Title
81374
    1CHL1    C3    1   3.749   4.309  10.287  0.4514  0.3845  0.7495
    1CHL1    H3    2   3.806   4.402  10.267  0.4015  0.2379 -0.1360
    1CHL1    O3    3   3.755   4.279  10.422 -0.3382  0.7142 -0.0603
    1CHL1   H3'    4   3.705   4.197  10.434 -0.4610  0.7401 -0.3888
    1CHL1    C4    5   3.594   4.317  10.249 -0.2852 -0.3799  0.0754
    1CHL1   H4A    6   3.549   4.217  10.266 -2.4823  0.2453 -1.7215
    1CHL1   H4B    7   3.541   4.384  10.320  1.3155  0.3360  0.6567
    1CHL1    C5    8   3.569   4.351  10.105 -0.1696 -1.2601  0.6588
    1CHL1    C6    9   3.489   4.453  10.063 -0.1963 -0.3150 -0.1174
    1CHL1    H6   10   3.442   4.516  10.140  0.9533  1.3445 -0.7011
    1CHL1    C7   11   3.459   4.480   9.916 -0.1143 -0.9203  0.1276
    1CHL1   H7A   12   3.350   4.475   9.894  0.2005 -1.8016 -1.3489
    1CHL1   H7B   13   3.498   4.579   9.884 -2.7233  1.0500  2.5172
    1CHL1    C8   14   3.502   4.366   9.822 -0.3699 -0.8529  0.4060
    1CHL1    H8   15   3.431   4.281   9.820 -1.1069 -0.2395  0.0657
    1CHL1   C14   16   3.502   4.415   9.680  0.3346 -0.6622  0.1973
    1CHL1   H14   17   3.570   4.502   9.671  0.4771 -0.7428  0.4987
    1CHL1   C15   18   3.357   4.467   9.635  0.3219  0.1012 -0.9176
    1CHL1  H15A   19   3.286   4.393   9.678  1.7276 -1.3708 -1.0316
    1CHL1  H15B   20   3.351   4.569   9.677  1.6413 -0.5252  0.9197
    1CHL1   C16   21   3.362   4.457   9.482 -0.2460 -0.3518 -0.0640
    1CHL1  H16A   22   3.284   4.385   9.448 -2.0980  1.5204  0.0360
    1CHL1  H16B   23   3.341   4.556   9.436 -0.9485 -0.0677  0.8528
    1CHL1   C17   24   3.507   4.403   9.444  0.1312  0.6204 -0.5263
    1CHL1   H17   25   3.580   4.487   9.437  0.9439 -0.1078 -0.8946
    1CHL1   C13   26   3.548   4.311   9.574  0.1410 -0.4096  0.1633
    1CHL1   C18   27   3.465   4.185   9.572 -0.5697  0.0995 -0.0395
    1CHL1  H18A   28   3.516   4.101   9.520 -2.0304  1.0557 -3.2642
    1CHL1  H18B   29   3.435   4.145   9.672  1.5570 -0.0700  0.5743
    1CHL1  H18C   30   3.371   4.194   9.514 -0.5340  1.1088  0.0435
    1CHL1   C12   31   3.693   4.282   9.591  0.1028  0.0813 -0.5202
    1CHL1  H12A   32   3.735   4.200   9.530 -0.0389 -0.0827 -0.3996
    1CHL1  H12B   33   3.757   4.373   9.587  1.5867 -0.8726  0.5440
    1CHL1   C11   34   3.709   4.228   9.744 -0.4997 -0.1941 -0.0642
    1CHL1  H11A   35   3.659   4.129   9.745 -0.3411 -0.3351  2.7243
    1CHL1  H11B   36   3.816   4.215   9.771 -0.4682 -1.3582 -0.7073
    1CHL1    C9   37   3.646   4.311   9.859 -0.0658 -0.6582  0.5697
    1CHL1    H9   38   3.703   4.406   9.870 -0.9728 -0.0477  0.1455
    1CHL1   C10   39   3.642   4.255  10.004 -0.0862 -0.1980 -0.2599
    1CHL1   C19   40   3.563   4.120  10.007 -0.5843  0.7368 -0.3897
    1CHL1  H19A   41   3.453   4.130   9.996 -1.5988 -4.0489  2.6183
    1CHL1  H19B   42   3.587   4.046   9.928 -1.3727  0.4058 -0.3242
    1CHL1  H19C   43   3.586   4.068  10.102  0.5193  1.5874 -0.1660
    1CHL1    C1   44   3.787   4.223  10.054 -0.1292 -0.0655 -0.3194
    1CHL1   H1A   45   3.825   4.134  10.000 -1.2773 -0.7527 -0.0358
    1CHL1   H1B   46   3.847   4.313  10.030 -1.1546  0.1885 -2.1677
    1CHL1    C2   47   3.809   4.195  10.208  0.4172 -0.3147  1.2173
    1CHL1   H2A   48   3.917   4.195  10.237  1.3295  3.7300 -1.2787
    1CHL1   H2B   49   3.757   4.104  10.242 -1.2363  0.7676  1.6674
    1CHL1   C20   50   3.521   4.331   9.305 -1.2006 -0.5260  0.1398
    1CHL1   H20   51   3.462   4.237   9.308  0.9889 -1.9680  1.1882
    1CHL1   C21   52   3.664   4.274   9.281 -0.2726 -0.2203 -0.7698
    1CHL1  H21A   53   3.697   4.262   9.176  1.3942  0.9478 -0.4256
    1CHL1  H21B   54   3.657   4.173   9.327 -1.0197  0.5999  1.0247
    1CHL1  H21C   55   3.738   4.330   9.342 -0.0232 -1.0591 -0.2704
    1CHL1   C22   56   3.466   4.414   9.185 -0.4587  0.4085 -0.6031
    1CHL1  H22A   57   3.363   4.434   9.220  0.2665 -1.5278  3.0899
    1CHL1  H22B   58   3.536   4.499   9.199  0.0221 -0.2171  0.9927
    1CHL1   C23   59   3.468   4.352   9.049 -0.0143  0.3585 -0.2988
    1CHL1  H23A   60   3.563   4.362   8.992  2.5700 -2.2034  3.1461
    1CHL1  H23B   61   3.452   4.242   9.057 -3.1462  0.7015 -0.4300
    1CHL1   C24   62   3.364   4.397   8.950 -0.2285 -0.0700 -0.2171
    1CHL1  H24A   63   3.266   4.397   9.001  0.2230  0.3554  0.6718
    1CHL1  H24B   64   3.389   4.500   8.917  2.2865  0.5590  3.0935
    1CHL1   C25   65   3.344   4.309   8.830  0.4061  0.3720 -0.7255
    1CHL1   H25   66   3.351   4.206   8.871 -0.6778 -0.0717 -1.6075
    1CHL1   C26   67   3.200   4.323   8.789  0.4032 -0.1246  0.3294
    1CHL1  H26A   68   3.188   4.426   8.749 -0.8813  0.3701  1.8487
    1CHL1  H26B   69   3.193   4.250   8.706  1.0788  0.0753  0.0881
    1CHL1  H26C   70   3.126   4.304   8.870 -0.3843  0.9464 -0.1053
    1CHL1   C27   71   3.455   4.324   8.730 -0.8892  0.0128 -0.2749
    1CHL1  H27A   72   3.465   4.429   8.697 -0.9876 -0.0564 -0.5249
    1CHL1  H27B   73   3.551   4.297   8.779 -0.5860  1.1428 -0.2214
    1CHL1  H27C   74   3.438   4.258   8.642  1.0468 -1.3271  0.2803
    2CHL1    C3   75   3.852   3.191  10.022  0.0709 -0.2239  0.5411
    2CHL1    H3   76   3.939   3.261  10.025 -2.2896  3.0252 -0.8198
    2CHL1    O3   77   3.786   3.178  10.148 -0.2930  0.5004  0.6197
    2CHL1   H3'   78   3.737   3.096  10.153 -0.2539  0.4893  0.8745
    2CHL1    C4   79   3.749   3.239   9.919  0.5933 -0.6823 -0.2268
    2CHL1   H4A   80   3.656   3.179   9.909 -0.2591  0.6691 -0.6518
    2CHL1   H4B   81   3.701   3.333   9.950 -2.4478 -1.9731 -0.6577
    2CHL1    C5   82   3.804   3.250   9.777  0.0412 -0.5900 -0.4108
    2CHL1    C6   83   3.797   3.373   9.723 -0.1454  0.0363  0.6209
    2CHL1    H6   84   3.753   3.454   9.782 -0.1919  1.4618 -1.2510
    2CHL1    C7   85   3.838   3.407   9.579 -0.8772 -0.4812 -0.1326
    2CHL1   H7A   86   3.759   3.467   9.529  0.5101  0.2949 -1.4944
    2CHL1   H7B   87   3.922   3.480   9.580 -1.7482  0.5402 -0.4885
    2CHL1    C8   88   3.866   3.277   9.500 -0.7297 -0.9196 -0.1307
    2CHL1    H8   89   3.777   3.236   9.448  0.0409 -2.1912 -0.5075
    2CHL1   C14   90   3.959   3.308   9.378  0.2887  0.2083 -0.7776
    2CHL1   H14   91   4.050   3.353   9.424 -0.1209  0.2385  0.0303
    2CHL1   C15   92   3.910   3.413   9.281 -0.5367 -0.0975 -0.5261
    2CHL1  H15A   93   3.805   3.388   9.258 -0.8614  1.6305 -1.0952
    2CHL1  H15B   94   3.899   3.518   9.317 -1.5575  0.2905 -1.8857
    2CHL1   C16   95   4.008   3.405   9.166 -0.2984 -0.8514 -0.2034
    2CHL1  H16A   96   3.948   3.412   9.073  0.1980  1.5332 -0.4212
    2CHL1  H16B   97   4.078   3.491   9.162 -2.3916  0.9164 -1.9266
    2CHL1   C17   98   4.088   3.277   9.188 -1.3716 -0.4803  0.7202
    2CHL1   H17   99   4.177   3.309   9.246  0.3421 -0.9114 -1.5645
    2CHL1   C13  100   4.006   3.192   9.292  0.1711 -0.1806  0.3974
    2CHL1   C18  101   3.887   3.128   9.217 -0.4508  0.0502  0.3246
    2CHL1  H18A  102   3.814   3.081   9.286 -2.1554  2.1390  0.0567
    2CHL1  H18B  103   3.836   3.204   9.154  0.5081 -0.0007 -0.5380
    2CHL1  H18C  104   3.926   3.054   9.144 -0.9677 -0.1070  0.2000
    2CHL1   C12  105   4.074   3.079   9.376  0.5922  0.4841  0.0665
    2CHL1  H12A  106   4.092   2.986   9.318 -0.8320  1.1631 -1.5504
    2CHL1  H12B  107   4.167   3.119   9.422  1.3099 -1.1882  0.1520
    2CHL1   C11  108   3.984   3.048   9.501 -0.3949  0.5380  0.1525
    2CHL1  H11A  109   3.892   2.993   9.473 -0.6053  0.5662  0.7702
    2CHL1  H11B  110   4.055   2.987   9.561  1.7308  1.7021 -1.0853
    2CHL1    C9  111   3.937   3.166   9.585  0.2757  0.1669 -0.1661
    2CHL1    H9  112   4.029   3.224   9.610  0.1715  0.0044  0.6136
    2CHL1   C10  113   3.864   3.124   9.718 -1.0767 -0.0482 -0.1308
    2CHL1   C19  114   3.752   3.026   9.683  0.0794 -0.6426  0.1708
    2CHL1  H19A  115   3.673   3.006   9.758 -1.8343  1.9041 -0.9903
    2CHL1  H19B  116   3.696   3.044   9.588 -0.9598 -0.7037  0.7531
    2CHL1  H19C  117   3.802   2.928   9.673  1.4160  0.0768 -0.4224
    2CHL1    C1  118   3.964   3.073   9.831 -0.5336  0.3908 -0.2228
    2CHL1   H1A  119   4.010   2.979   9.794  0.1336  0.7587 -0.3413
    2CHL1   H1B  120   4.041   3.151   9.848 -2.1314  1.6218  1.9178
    2CHL1    C2  121   3.899   3.054   9.972  0.0463 -1.3641  0.2134
    2CHL1   H2A  122   3.975   3.020  10.045 -0.3519  1.0646  1.8948
    2CHL1   H2B  123   3.806   2.994   9.971 -0.3509 -0.7987  1.3861
    2CHL1   C20  124   4.149   3.213   9.064 -0.3864 -0.2951 -0.0908
    2CHL1   H20  125   4.156   3.104   9.088 -1.2405 -0.1951  0.6535
    2CHL1   C21  126   4.286   3.265   9.029  0.8070 -0.0928 -0.7235
    2CHL1  H21A  127   4.294   3.375   9.016  0.8673  0.0327  0.2827
    2CHL1  H21B  128   4.336   3.205   8.950  3.0042 -0.5894  0.9300
    2CHL1  H21C  129   4.352   3.261   9.118  1.0518  3.1250 -0.6565
    2CHL1   C22  130   4.057   3.193   8.938  0.4451  0.1534  0.1541
    2CHL1  H22A  131   3.953   3.166   8.969  1.0634 -0.6096  1.6504
    2CHL1  H22B  132   4.069   3.295   8.895  2.3784 -0.1227 -0.0443
    2CHL1   C23  133   4.108   3.084   8.838  0.2578 -0.5727 -0.8714
    2CHL1  H23A  134   4.207   3.113   8.795 -0.6144  2.1458 -1.2346
    2CHL1  H23B  135   4.116   2.984   8.886 -0.2116 -0.0076  0.4527
    2CHL1   C24  136   4.014   3.076   8.715  0.0638 -0.4853 -0.1613
    2CHL1  H24A  137   3.919   3.039   8.759 -0.2302 -0.6828 -0.9404
    2CHL1  H24B  138   4.007   3.176   8.667  2.7026  0.5687  1.4471
    2CHL1   C25  139   4.053   2.975   8.606 -0.2834 -0.2676  0.1001
    2CHL1   H25  140   4.155   3.002   8.573 -1.0020 -0.2340 -2.2866
    2CHL1   C26  141   4.055   2.830   8.655  0.0159 -0.0025  0.2438
    2CHL1  H26A  142   3.962   2.806   8.711 -0.1230  0.5035  0.2329
    2CHL1  H26B  143   4.079   2.762   8.569  1.9784  2.0104 -0.8979
    2CHL1  H26C  144   4.134   2.806   8.729 -0.6260 -2.5829  0.2069
    2CHL1   C27  145   3.951   2.985   8.493  0.1808 -0.4422 -0.7842
    2CHL1  H27A  146   3.850   3.009   8.533  0.5606 -2.3904  1.5828
    2CHL1  H27B  147   3.980   3.070   8.428 -0.0802 -1.0538 -1.7246
    2CHL1  H27C  148   3.943   2.892   8.433 -3.1742 -0.0588 -1.1309
    3CHL1    C3  149   6.009   4.585  10.113 -0.4173 -0.3550  0.2424
    3CHL1    H3  150   6.064   4.675  10.077 -0.3610  1.2199  3.8117
    3CHL1    O3  151   5.975   4.611  10.248 -0.2385 -0.1018 -0.1200
    3CHL1   H3'  152   5.967   4.519  10.274 -0.5653 -0.8354 -2.5902
    3CHL1    C4  153   5.875   4.578  10.040 -0.1248  0.6192  0.3341
    3CHL1   H4A  154   5.811   4.502  10.090 -2.3074  1.3493 -1.1662
    3CHL1   H4B  155   5.818   4.671  10.063  0.6199  0.9477  0.8614
    3CHL1    C5  156   5.886   4.532   9.895 -0.1013  0.4325 -0.0480
    3CHL1    C6  157   5.826   4.604   9.803  0.4809 -0.1451 -0.4058
    3CHL1    H6  158   5.775   4.695   9.837 -1.4775 -1.9857  1.9436
    3CHL1    C7  159   5.829   4.579   9.659 -0.7652  0.1602  0.1884
    3CHL1   H7A  160   5.729   4.572   9.610  0.3113  1.2678 -2.3551
    3CHL1   H7B  161   5.890   4.656   9.608 -2.4901  0.0312 -2.2362
    3CHL1    C8  162   5.887   4.433   9.635  0.3379 -0.5739  0.7900
    3CHL1    H8  163   5.808   4.357   9.655 -0.5004  0.2049  0.5006
    3CHL1   C14  164   5.928   4.424   9.495  0.3936  1.1132 -0.0922
    3CHL1   H14  165   6.009   4.495   9.471  0.1327  0.9057 -1.7059
    3CHL1   C15  166   5.822   4.465   9.393  0.0907 -0.8709 -0.1026
    3CHL1  H15A  167   5.724   4.424   9.427  1.1734 -1.7292  2.1899
    3CHL1  H15B  168   5.814   4.575   9.380  0.4997 -1.0841 -2.9309
    3CHL1   C16  169   5.870   4.401   9.260 -0.2928 -0.4939 -0.4626
    3CHL1  H16A  170   5.795   4.347   9.200  0.7857 -1.3058 -1.1016
    3CHL1  H16B  171   5.914   4.474   9.188  1.2893  0.6319  1.5127
    3CHL1   C17  172   5.994   4.310   9.293 -0.4382  0.6940  0.0983
    3CHL1   H17  173   6.082   4.376   9.276  1.0304 -0.9785  0.9267
    3CHL1   C13  174   5.989   4.291   9.449  0.4831  0.6149  0.3668
    3CHL1   C18  175   5.888   4.169   9.483 -0.7964  0.0324  0.3426
    3CHL1  H18A  176   5.864   4.169   9.592 -1.3197 -1.6713  0.2555
    3CHL1  H18B  177   5.790   4.180   9.433 -0.3052 -1.5839 -1.0711
    3CHL1  H18C  178   5.923   4.067   9.458 -0.4667  0.7920 -2.6396
    3CHL1   C12  179   6.118   4.267   9.538 -0.0637  0.4173 -0.5012
    3CHL1  H12A  180   6.171   4.174   9.510  0.7522  1.5980 -3.2379
    3CHL1  H12B  181   6.181   4.358   9.520  1.2539 -0.6018 -1.2200
    3CHL1   C11  182   6.097   4.279   9.690  0.2883 -0.0260 -0.0298
    3CHL1  H11A  183   6.053   4.186   9.731 -0.4388 -0.0975 -0.9364
    3CHL1  H11B  184   6.194   4.292   9.742  0.1048  0.2212  0.2524
    3CHL1    C9  185   6.009   4.404   9.726  0.3848  0.2006 -0.1978
    3CHL1    H9  186   6.073   4.493   9.706  1.2152  0.1193  1.8719
    3CHL1   C10  187   5.973   4.404   9.875 -0.0563  0.2304  0.1689
    3CHL1   C19  188   5.885   4.282   9.907 -0.4089 -0.0544  0.1928
    3CHL1  H19A  189   5.845   4.298  10.009  2.6908  1.3829  1.3057
    3CHL1  H19B  190   5.802   4.264   9.835 -0.8931  1.9097  0.1967
    3CHL1  H19C  191   5.944   4.188   9.914  0.5327  0.6363  1.9364
    3CHL1    C1  192   6.099   4.394   9.974  0.2382 -0.1906  0.2179
    3CHL1   H1A  193   6.135   4.289   9.967  1.5023  0.3377 -3.8238
    3CHL1   H1B  194   6.179   4.463   9.939 -0.2267  0.1288 -0.2337
    3CHL1    C2  195   6.069   4.445  10.116 -0.5763 -0.2686  0.1055
    3CHL1   H2A  196   6.172   4.454  10.157 -0.4006  0.5250 -0.4726
    3CHL1   H2B  197   6.007   4.379  10.179  0.0030 -1.5950 -0.6850
    3CHL1   C20  198   6.011   4.178   9.201  0.9280 -0.5583  0.0481
    3CHL1   H20  199   5.923   4.116   9.225  0.7801 -0.9436 -1.4055
    3CHL1   C21  200   6.131   4.100   9.243  0.4439  0.1166 -0.3296
    3CHL1  H21A  201   6.230   4.150   9.231  1.5027 -0.2871  4.7135
    3CHL1  H21B  202   6.119   4.011   9.177 -2.2963 -0.1009  0.3643
    3CHL1  H21C  203   6.116   4.069   9.349 -1.9055  0.0382 -0.6302
    3CHL1   C22  204   6.014   4.210   9.045  0.5723 -0.1473 -0.1810
    3CHL1  H22A  205   6.004   4.108   9.003 -0.5275 -0.7325  1.3636
    3CHL1  H22B  206   5.918   4.259   9.015  0.9246  1.2904  0.8957
    3CHL1   C23  207   6.126   4.304   8.996 -0.2316  0.2207 -0.2699
    3CHL1  H23A  208   6.132   4.398   9.054 -0.5936 -0.5409  1.0537
    3CHL1  H23B  209   6.216   4.245   9.023  0.0740  1.4565  1.5847
    3CHL1   C24  210   6.114   4.324   8.845 -0.6564  0.4570  0.1670
    3CHL1  H24A  211   6.100   4.228   8.792  0.4994  0.2452  0.2070
    3CHL1  H24B  212   6.036   4.398   8.817  0.2633  1.1065 -0.8078
    3CHL1   C25  213   6.246   4.378   8.780  0.9398  0.2752 -0.0533
    3CHL1   H25  214   6.213   4.415   8.680  0.6014  1.4015  0.4661
    3CHL1   C26  215   6.312   4.500   8.843  0.2040  0.5200  0.0853
    3CHL1  H26A  216   6.399   4.542   8.789 -0.5833  0.4317 -1.3226
    3CHL1  H26B  217   6.228   4.572   8.851 -0.4578 -0.3956  2.0152
    3CHL1  H26C  218   6.346   4.461   8.941  1.5771 -0.3772 -0.7165
    3CHL1   C27  219   6.348   4.268   8.753 -0.3210 -0.1446 -0.4684
    3CHL1  H27A  220   6.367   4.227   8.854 -4.7911 -0.2398  0.5400
    3CHL1  H27B  221   6.310   4.191   8.682  1.0799 -0.6862 -0.6511
    3CHL1  H27C  222   6.440   4.305   8.705  0.2408 -1.2647 -0.2938
    4CHL1    C3  223   4.562   5.192  10.381 -0.1076 -0.1662  0.3574
    4CHL1    H3  224   4.653   5.252  10.359 -0.2230  0.0031  0.3422
    4CHL1    O3  225   4.576   5.141  10.511 -0.2115  0.2571 -0.6574
    4CHL1   H3'  226   4.617   5.219  10.550  0.9176 -1.2733  1.4163
    4CHL1    C4  227   4.443   5.287  10.370 -0.0838  0.5381  0.0801
    4CHL1   H4A  228   4.353   5.228  10.398 -1.1532  1.7537 -0.6872
    4CHL1   H4B  229   4.453   5.368  10.446  2.2375  1.7767 -1.4282
    4CHL1    C5  230   4.425   5.343  10.229 -0.3338 -0.1361 -0.7802
    4CHL1    C6  231   4.421   5.473  10.207  0.5402 -0.7283 -0.4529
    4CHL1    H6  232   4.423   5.536  10.297  1.8421 -0.0821 -0.9203
    4CHL1    C7  233   4.407   5.539  10.074  0.3631  0.0587  1.1092
    4CHL1   H7A  234   4.334   5.622  10.070 -2.0370 -1.9603  0.9880
    4CHL1   H7B  235   4.511   5.572  10.053  0.6375  0.0093  2.3142
    4CHL1    C8  236   4.367   5.432   9.960  0.6114 -0.3475  0.0446
    4CHL1    H8  237   4.263   5.403   9.987 -0.2058  0.7454 -1.7191
    4CHL1   C14  238   4.379   5.485   9.822  0.3213  0.7648  0.0978
    4CHL1   H14  239   4.486   5.514   9.814 -0.4342  3.5574 -1.1778
    4CHL1   C15  240   4.312   5.615   9.777  0.5279 -0.6666  1.0432
    4CHL1  H15A  241   4.218   5.642   9.830  0.4681  0.5590  0.3532
    4CHL1  H15B  242   4.383   5.700   9.782  1.2343 -0.6124 -4.0813
    4CHL1   C16  243   4.300   5.603   9.624  0.0865 -0.8187  0.0327
    4CHL1  H16A  244   4.193   5.605   9.593  0.2089 -0.2185 -0.3654
    4CHL1  H16B  245   4.348   5.693   9.579  0.6915  0.3695  2.8345
    4CHL1   C17  246   4.367   5.471   9.579 -0.0365  0.4611 -0.5637
    4CHL1   H17  247   4.474   5.499   9.590 -0.2706  0.8594  0.9199
    4CHL1   C13  248   4.350   5.379   9.705  0.3638 -0.0515 -0.9252
    4CHL1   C18  249   4.207   5.321   9.706  0.7861 -0.1234 -0.4747
    4CHL1  H18A  250   4.187   5.267   9.800 -2.0068  0.8174 -0.4536
    4CHL1  H18B  251   4.138   5.408   9.693 -1.6624 -1.9804 -0.5379
    4CHL1  H18C  252   4.193   5.250   9.622  1.5622  1.6464 -2.1898
    4CHL1   C12  253   4.468   5.281   9.728  0.4518 -0.2036  0.1900
    4CHL1  H12A  254   4.482   5.204   9.649 -0.1274  0.3359 -0.4490
    4CHL1  H12B  255   4.559   5.344   9.717 -1.1177  1.7634 -3.2339
    4CHL1   C11  256   4.447   5.209   9.865  0.2757  0.1422  0.5177
    4CHL1  H11A  257   4.348   5.160   9.861 -0.7209  1.9172  1.9070
    4CHL1  H11B  258   4.523   5.128   9.874  0.5401  0.2913 -0.3177
    4CHL1    C9  259   4.456   5.304   9.979  0.2217  0.3074 -0.1491
    4CHL1    H9  260   4.561   5.339   9.983  0.2145  0.3613 -0.4534
    4CHL1   C10  261   4.431   5.232  10.117  0.0482  0.0113 -0.2468
    4CHL1   C19  262   4.297   5.154  10.126 -0.2108  0.3833 -0.0817
    4CHL1  H19A  263   4.293   5.084  10.212 -0.4343  0.7235  0.1879
    4CHL1  H19B  264   4.204   5.214  10.132  0.0152  0.9327 -1.5580
    4CHL1  H19C  265   4.297   5.083  10.040 -2.0326 -0.1013  0.2936
    4CHL1    C1  266   4.545   5.134  10.136 -0.1537 -1.1188  0.1880
    4CHL1   H1A  267   4.515   5.051  10.068  0.8396 -0.0059 -1.6950
    4CHL1   H1B  268   4.644   5.168  10.099 -0.9852  0.8112 -0.3886
    4CHL1    C2  269   4.561   5.077  10.280 -1.0296  0.1922 -0.8239
    4CHL1   H2A  270   4.659   5.028  10.300 -1.0096  0.5406 -0.0557
    4CHL1   H2B  271   4.480   5.007  10.309 -0.7017  0.8128  1.8316
    4CHL1   C20  272   4.340   5.401   9.446 -1.0943 -0.9335  0.0329
    4CHL1   H20  273   4.368   5.294   9.452 -0.3317 -0.6711  1.3438
    4CHL1   C21  274   4.432   5.467   9.343 -0.3038  0.5508  0.8759
    4CHL1  H21A  275   4.443   5.398   9.256  0.7291  2.1107 -0.2795
    4CHL1  H21B  276   4.533   5.468   9.391  0.7735 -0.7581 -1.2117
    4CHL1  H21C  277   4.406   5.570   9.309  0.0907 -0.2344 -2.1184
    4CHL1   C22  278   4.199   5.411   9.384 -0.2776  0.1836 -0.4624
    4CHL1  H22A  279   4.109   5.392   9.446 -0.0399  1.4694  0.3126
    4CHL1  H22B  280   4.186   5.515   9.347 -2.0215 -0.6309 -2.3272
    4CHL1   C23  281   4.197   5.336   9.248 -0.4572 -0.0439 -0.1575
    4CHL1  H23A  282   4.253   5.384   9.165 -1.3292  0.2138 -0.5973
    4CHL1  H23B  283   4.237   5.235   9.273  1.3031  0.9421  1.2839
    4CHL1   C24  284   4.051   5.333   9.195 -0.8190 -0.0392 -0.2859
    4CHL1  H24A  285   3.983   5.293   9.274 -1.2838 -0.2556 -0.7929
    4CHL1  H24B  286   4.027   5.438   9.171  1.5748  0.9754  1.3541
    4CHL1   C25  287   4.022   5.238   9.084  0.0373  0.2362  0.3298
    4CHL1   H25  288   4.075   5.142   9.103  0.5188  0.4779  0.2124
    4CHL1   C26  289   3.869   5.214   9.073  0.2853 -0.3711 -0.1868
    4CHL1  H26A  290   3.822   5.156   9.156 -1.3013 -1.9374 -2.0823
    4CHL1  H26B  291   3.818   5.313   9.065  0.7321 -0.0985  0.2859
    4CHL1  H26C  292   3.850   5.151   8.984 -0.7942 -0.2733 -0.0448
    4CHL1   C27  293   4.076   5.313   8.961  0.0428 -0.1367  0.5657
    4CHL1  H27A  294   4.046   5.279   8.859  1.2742 -0.5103  0.3190
    4CHL1  H27B  295   4.057   5.421   8.974 -2.4519 -0.2979 -0.9030
    4CHL1  H27C  296   4.186   5.307   8.959  0.2149  1.9128 -2.2871
    5CHL1    C3  297   4.223   2.808  10.452 -1.0036 -0.2178 -0.0185
    5CHL1    H3  298   4.313   2.872  10.461 -0.9770  0.3404 -3.0449
    5CHL1    O3  299   4.145   2.807  10.575 -0.8860  0.8022  0.1696
    5CHL1   H3'  300   4.080   2.736  10.565  1.4001 -1.2494 -1.1620
    5CHL1    C4  301   4.138   2.875  10.340  0.7155 -0.3445 -0.5761
    5CHL1   H4A  302   4.034   2.836  10.345  1.5570 -2.6276  0.4874
    5CHL1   H4B  303   4.145   2.982  10.369  2.7007 -0.3680 -0.8410
    5CHL1    C5  304   4.201   2.857  10.206 -0.2217 -0.8976 -0.2565
    5CHL1    C6  305   4.239   2.967  10.129 -0.0856 -0.0530  0.0861
    5CHL1    H6  306   4.208   3.067  10.164  2.1737  0.5372  0.6034
    5CHL1    C7  307   4.303   2.959   9.997 -0.2457 -0.1306  0.9075
    5CHL1   H7A  308   4.255   3.038   9.937 -1.4292  0.2909  2.3265
    5CHL1   H7B  309   4.413   2.967  10.006 -0.1056 -0.6399 -0.2407
    5CHL1    C8  310   4.277   2.818   9.930 -0.5042  0.1724 -0.2734
    5CHL1    H8  311   4.169   2.827   9.906 -0.8119  2.0947  1.6274
    5CHL1   C14  312   4.366   2.808   9.805  0.0262  0.5026 -0.6487
    5CHL1   H14  313   4.472   2.809   9.839 -0.5072  4.1612  1.4271
    5CHL1   C15  314   4.349   2.925   9.706  0.5533 -0.3272 -0.9170
    5CHL1  H15A  315   4.244   2.951   9.680  0.1882  0.3338  0.9767
    5CHL1  H15B  316   4.402   3.020   9.730  3.3488 -1.9417 -0.1366
    5CHL1   C16  317   4.425   2.860   9.585 -0.1129 -0.9993  0.1176
    5CHL1  H16A  318   4.380   2.881   9.486  0.4856 -0.0198  0.0305
    5CHL1  H16B  319   4.527   2.904   9.592 -1.1498  1.4336  1.5489
    5CHL1   C17  320   4.439   2.712   9.610  0.3487  0.1608 -0.3461
    5CHL1   H17  321   4.540   2.686   9.647 -0.3876 -0.6303  1.2056
    5CHL1   C13  322   4.339   2.685   9.726 -0.3085 -0.2419  0.5823
    5CHL1   C18  323   4.195   2.679   9.674  0.2213  0.1613 -0.4519
    5CHL1  H18A  324   4.170   2.773   9.619  0.5286  0.1690 -0.5769
    5CHL1  H18B  325   4.174   2.595   9.604 -1.0660  0.7880 -0.8647
    5CHL1  H18C  326   4.127   2.665   9.761 -1.5364  1.6985 -1.4876
    5CHL1   C12  327   4.372   2.565   9.824  0.0858 -1.2170  0.5227
    5CHL1  H12A  328   4.350   2.473   9.765  3.4757 -1.5529 -0.4252
    5CHL1  H12B  329   4.480   2.566   9.847  0.1498 -0.2449  0.2098
    5CHL1   C11  330   4.295   2.573   9.957 -0.3542  0.2203  0.2172
    5CHL1  H11A  331   4.190   2.545   9.936  0.4163 -2.7512 -0.0930
    5CHL1  H11B  332   4.327   2.497  10.032 -1.1052 -0.1727  0.1528
    5CHL1    C9  333   4.304   2.705  10.027 -0.3389 -0.0988 -0.1469
    5CHL1    H9  334   4.412   2.718  10.050 -0.3092  3.1214 -1.5033
    5CHL1   C10  335   4.229   2.723  10.162 -0.1449 -0.7702  0.2646
    5CHL1   C19  336   4.085   2.661  10.149 -0.0523 -0.4620 -1.1552
    5CHL1  H19A  337   4.027   2.715  10.072 -0.8401 -1.3085 -1.1708
    5CHL1  H19B  338   4.093   2.555  10.117  0.2195 -1.5000  1.9878
    5CHL1  H19C  339   4.026   2.663  10.243 -1.4480 -2.0250 -1.9535
    5CHL1    C1  340   4.312   2.649  10.271  0.3552  0.0686  0.6205
    5CHL1   H1A  341   4.332   2.541  10.253  0.5536  0.1841  0.1241
    5CHL1   H1B  342   4.413   2.696  10.282  1.6847 -3.0415  3.0752
    5CHL1    C2  343   4.246   2.659  10.412  0.4062 -0.0449  0.6011
    5CHL1   H2A  344   4.321   2.620  10.484  0.9658 -0.6651 -0.3000
    5CHL1   H2B  345   4.156   2.594  10.417 -0.6260  1.3068  0.2154
    5CHL1   C20  346   4.425   2.617   9.478 -0.4169  0.3286 -0.6447
    5CHL1   H20  347   4.322   2.634   9.440  0.1289  1.4206 -1.7253
    5CHL1   C21  348   4.436   2.464   9.509  0.9176 -0.1525 -0.7266
    5CHL1  H21A  349   4.351   2.435   9.575  2.5191 -2.3610  0.4917
    5CHL1  H21B  350   4.530   2.444   9.564  0.4460 -0.7078 -0.1022
    5CHL1  H21C  351   4.425   2.415   9.410 -1.6514 -2.5049  0.5978
    5CHL1   C22  352   4.532   2.660   9.369  0.3488  0.3709  0.5282
    5CHL1  H22A  353   4.593   2.739   9.419 -0.2570  0.3773  1.2848
    5CHL1  H22B  354   4.591   2.569   9.349 -1.6924 -0.9407  0.2094
    5CHL1   C23  355   4.472   2.719   9.236  0.1013  0.6819 -0.4362
    5CHL1  H23A  356   4.361   2.728   9.243  0.1124 -0.1510  1.1520
    5CHL1  H23B  357   4.505   2.824   9.221  0.7671  1.2981  3.9891
    5CHL1   C24  358   4.495   2.636   9.108 -0.4883 -0.3824  0.0748
    5CHL1  H24A  359   4.603   2.647   9.083 -0.1661  4.7773  2.3595
    5CHL1  H24B  360   4.454   2.534   9.123 -0.7927 -0.1481  0.8441
    5CHL1   C25  361   4.430   2.701   8.983 -0.8402  0.1046 -0.4793
    5CHL1   H25  362   4.461   2.807   8.971 -0.2867 -0.2059 -2.1643
    5CHL1   C26  363   4.479   2.633   8.853  0.7550  1.7328  0.3934
    5CHL1  H26A  364   4.443   2.686   8.763 -1.1577 -2.7147 -1.7479
    5CHL1  H26B  365   4.589   2.640   8.836  0.9451  0.9024  1.2251
    5CHL1  H26C  366   4.469   2.523   8.839  3.3633  1.4246  0.4531
    5CHL1   C27  367   4.282   2.700   8.990  0.9560 -0.3411  0.3939
    5CHL1  H27A  368   4.247   2.768   9.070 -3.3539  1.6346 -2.7848
    5CHL1  H27B  369   4.231   2.743   8.901  1.9829 -0.8943 -0.5023
    5CHL1  H27C  370   4.246   2.596   9.008  0.4467 -0.5842 -1.7014
    6CHL1    C3  371   1.919   3.011  10.414  0.5501  0.6913 -0.3194
    6CHL1    H3  372   1.881   3.111  10.383 -3.4191 -1.0137 -1.5695
    6CHL1    O3  373   1.958   3.009  10.551  0.0031  0.0978  0.8520
    6CHL1   H3'  374   1.996   2.925  10.578  1.9729  0.9670  0.9286
    6CHL1    C4  375   1.803   2.910  10.391  0.2753  0.0671  1.3757
    6CHL1   H4A  376   1.817   2.811  10.438  2.5080 -0.0274  0.6437
    6CHL1   H4B  377   1.713   2.947  10.445 -0.5749  0.3016 -0.1326
    6CHL1    C5  378   1.763   2.890  10.246 -0.3469  0.1090  0.2167
    6CHL1    C6  379   1.639   2.903  10.211  0.0886  0.3014  0.1540
    6CHL1    H6  380   1.567   2.925  10.292 -0.0996 -1.3736  0.4796
    6CHL1    C7  381   1.582   2.894  10.079 -0.4170 -0.2790  0.0631
    6CHL1   H7A  382   1.492   2.830  10.084 -0.9969  0.6033  3.0749
    6CHL1   H7B  383   1.556   2.996  10.043  0.0421  0.0835  0.7148
    6CHL1    C8  384   1.678   2.821   9.976 -0.2278 -0.9831 -0.5309
    6CHL1    H8  385   1.671   2.713  10.000  1.7859 -1.3672 -1.4336
    6CHL1   C14  386   1.642   2.853   9.834  0.3254  0.1316  0.6600
    6CHL1   H14  387   1.650   2.964   9.835 -2.1242  0.3739 -0.7155
    6CHL1   C15  388   1.495   2.831   9.799 -0.1658 -0.3111 -0.6661
    6CHL1  H15A  389   1.458   2.734   9.838  0.8608 -1.0260 -1.4151
    6CHL1  H15B  390   1.442   2.920   9.839  1.0181  0.4028 -0.6424
    6CHL1   C16  391   1.499   2.823   9.643 -0.2074 -1.1399 -0.6873
    6CHL1  H16A  392   1.464   2.727   9.600 -1.4110 -0.7823 -0.5294
    6CHL1  H16B  393   1.426   2.893   9.598 -0.4135 -1.1199 -0.3213
    6CHL1   C17  394   1.652   2.848   9.602  0.3536 -0.2003 -0.6427
    6CHL1   H17  395   1.663   2.958   9.605  0.8198 -0.1818 -2.2260
    6CHL1   C13  396   1.733   2.802   9.722 -0.6076 -0.8341  0.2410
    6CHL1   C18  397   1.728   2.644   9.733 -0.0617  0.3796 -0.2279
    6CHL1  H18A  398   1.622   2.616   9.716 -0.2765  0.8968  0.2650
    6CHL1  H18B  399   1.786   2.592   9.654 -1.4307 -2.0838  0.2943
    6CHL1  H18C  400   1.768   2.605   9.829  1.1230 -2.4526 -1.7547
    6CHL1   C12  401   1.876   2.862   9.751 -0.7534  1.4254  0.0987
    6CHL1  H12A  402   1.945   2.828   9.671 -2.8294  0.0092 -1.2007
    6CHL1  H12B  403   1.857   2.970   9.735 -2.8782  0.9537 -0.8782
    6CHL1   C11  404   1.927   2.818   9.893 -0.4090  0.3221  0.4603
    6CHL1  H11A  405   1.946   2.709   9.899 -0.9664  0.2573  1.2162
    6CHL1  H11B  406   2.025   2.868   9.906 -1.9542  3.6473  0.2401
    6CHL1    C9  407   1.823   2.872   9.998 -0.8024 -0.2517 -0.1155
    6CHL1    H9  408   1.819   2.981   9.976  0.8231  0.7744  3.8272
    6CHL1   C10  409   1.874   2.872  10.145  0.4926  0.3847  0.5373
    6CHL1   C19  410   1.925   2.728  10.175 -0.1998  0.2304 -0.3012
    6CHL1  H19A  411   2.020   2.718  10.118 -0.4504  0.3935 -0.7522
    6CHL1  H19B  412   1.958   2.699  10.277 -0.7537 -1.4862 -0.5928
    6CHL1  H19C  413   1.848   2.655  10.145 -1.1735 -0.5873  3.6188
    6CHL1    C1  414   1.988   2.972  10.172  0.6865 -0.4865 -0.2191
    6CHL1   H1A  415   2.076   2.948  10.108 -0.1340 -0.9240 -1.2114
    6CHL1   H1B  416   1.962   3.079  10.153  0.3752 -0.7127 -1.1036
    6CHL1    C2  417   2.038   2.975  10.320  0.1257  0.2111 -0.8714
    6CHL1   H2A  418   2.126   3.041  10.339 -0.0098  0.0624  0.3517
    6CHL1   H2B  419   2.074   2.875  10.353 -0.1797  0.1505 -0.7186
    6CHL1   C20  420   1.696   2.812   9.455  0.3790  0.2157  0.3210
    6CHL1   H20  421   1.708   2.703   9.441 -1.7511  0.1495 -1.5493
    6CHL1   C21  422   1.838   2.858   9.434  0.5141 -0.0540 -0.4436
    6CHL1  H21A  423   1.908   2.782   9.474 -0.6181 -0.0311  1.7162
    6CHL1  H21B  424   1.860   2.957   9.479  2.4553 -0.2458 -0.9118
    6CHL1  H21C  425   1.858   2.862   9.325 -0.4751 -0.3185 -0.6466
    6CHL1   C22  426   1.600   2.868   9.359 -0.1423  1.2490 -0.0434
    6CHL1  H22A  427   1.631   2.843   9.255 -0.9381  1.8215 -0.4328
    6CHL1  H22B  428   1.498   2.829   9.376  0.0769  1.8637  3.3235
    6CHL1   C23  429   1.596   3.021   9.343 -0.8454  0.0477  0.3908
    6CHL1  H23A  430   1.532   3.053   9.428 -1.4727 -1.4468  0.5080
    6CHL1  H23B  431   1.703   3.052   9.341 -1.1751  1.2369 -0.7821
    6CHL1   C24  432   1.529   3.078   9.210 -0.0810 -0.0683 -0.3734
    6CHL1  H24A  433   1.559   3.185   9.206  0.8164 -0.2441  0.7809
    6CHL1  H24B  434   1.585   3.047   9.120 -1.7314 -0.3759 -1.3263
    6CHL1   C25  435   1.381   3.047   9.190 -0.6271 -0.2719 -0.2317
    6CHL1   H25  436   1.376   2.938   9.169 -1.4354  0.0865 -2.1789
    6CHL1   C26  437   1.284   3.098   9.306  0.5299  0.0715 -0.4825
    6CHL1  H26A  438   1.280   3.208   9.324 -2.7612 -0.4600  3.5319
    6CHL1  H26B  439   1.180   3.080   9.272  0.8786  0.0594 -1.5737
    6CHL1  H26C  440   1.318   3.058   9.404  0.2697  0.5318 -0.1957
    6CHL1   C27  441   1.328   3.094   9.053  0.0605  0.2670 -0.0777
    6CHL1  H27A  442   1.230   3.051   9.026  0.4903  1.4980 -4.3277
    6CHL1  H27B  443   1.335   3.205   9.041 -1.8864  0.3662 -0.6020
    6CHL1  H27C  444   1.399   3.047   8.982 -0.1788 -0.6416  0.2783
    7CHL1    C3  445   5.937   2.656  10.342 -0.0041 -0.2210 -0.5655
    7CHL1    H3  446   6.031   2.599  10.357  0.2670 -0.1995 -2.0528
    7CHL1    O3  447   5.872   2.686  10.469  0.2787  0.1542 -0.6309
    7CHL1   H3'  448   5.857   2.610  10.525  1.8770 -0.2524 -0.7232
    7CHL1    C4  449   5.962   2.793  10.276 -0.1538 -0.2923  0.2461
    7CHL1   H4A  450   5.862   2.841  10.285 -0.2399 -0.7217  2.0521
    7CHL1   H4B  451   6.033   2.847  10.342 -1.1263  4.0229 -1.8992
    7CHL1    C5  452   6.012   2.786  10.131 -0.7105  0.3754 -0.5454
    7CHL1    C6  453   6.128   2.846  10.095 -0.6934  0.3775 -0.5045
    7CHL1    H6  454   6.177   2.907  10.172 -1.4259  1.1247 -0.6114
    7CHL1    C7  455   6.188   2.844   9.958 -0.5930  0.0604  0.3090
    7CHL1   H7A  456   6.218   2.945   9.925 -0.1448  0.0167  0.5794
    7CHL1   H7B  457   6.277   2.778   9.959  0.7217  1.7805  1.2284
    7CHL1    C8  458   6.079   2.792   9.859 -0.4127 -0.0438  1.0857
    7CHL1    H8  459   6.009   2.877   9.851 -2.0160 -1.1922  2.2079
    7CHL1   C14  460   6.142   2.765   9.722  0.1444  0.0165 -0.4691
    7CHL1   H14  461   6.224   2.693   9.746  0.0628 -0.1405 -0.6637
    7CHL1   C15  462   6.207   2.885   9.650 -0.0557  0.0788 -0.3587
    7CHL1  H15A  463   6.148   2.979   9.650  1.6921  1.2142 -0.6572
    7CHL1  H15B  464   6.307   2.906   9.692  0.3749 -2.0006 -0.2334
    7CHL1   C16  465   6.235   2.835   9.505 -0.4899  0.3611 -0.0816
    7CHL1  H16A  466   6.217   2.925   9.442  1.3509  1.0807  0.3570
    7CHL1  H16B  467   6.337   2.792   9.509 -1.8305 -3.0057  1.0247
    7CHL1   C17  468   6.147   2.711   9.488  0.7699  0.2471  0.3113
    7CHL1   H17  469   6.211   2.621   9.498  0.1986 -0.2750 -0.5386
    7CHL1   C13  470   6.049   2.708   9.613  0.2264  0.1705 -0.8446
    7CHL1   C18  471   5.923   2.800   9.590  0.6888  0.1187 -0.5885
    7CHL1  H18A  472   5.957   2.902   9.561  0.7943 -0.5814 -3.1405
    7CHL1  H18B  473   5.853   2.748   9.521 -0.3456 -0.8414  1.1221
    7CHL1  H18C  474   5.866   2.810   9.684 -0.8075  0.7507 -1.5280
    7CHL1   C12  475   6.004   2.571   9.673  0.1249  0.1423  0.1454
    7CHL1  H12A  476   5.924   2.535   9.604 -0.5124  0.6192  0.6283
    7CHL1  H12B  477   6.084   2.495   9.678  0.0663  0.0363 -0.3879
    7CHL1   C11  478   5.926   2.581   9.806 -0.0572  0.3523 -0.7292
    7CHL1  H11A  479   5.828   2.626   9.777 -0.8182 -1.4338 -1.0862
    7CHL1  H11B  480   5.906   2.482   9.852  1.0674 -0.6905 -2.4043
    7CHL1    C9  481   6.007   2.666   9.913 -0.0809 -0.9257 -0.2838
    7CHL1    H9  482   6.088   2.595   9.942  0.4267  0.7183  2.8111
    7CHL1   C10  483   5.928   2.697  10.041 -0.3336 -0.5318 -0.3835
    7CHL1   C19  484   5.792   2.764  10.010  0.4791 -0.0290 -0.6188
    7CHL1  H19A  485   5.811   2.862   9.962  0.6565  0.0737 -0.3405
    7CHL1  H19B  486   5.725   2.710   9.939 -0.9223 -0.6472  1.0980
    7CHL1  H19C  487   5.730   2.781  10.101 -1.3678  0.8201 -1.9605
    7CHL1    C1  488   5.906   2.557  10.112  0.0318 -0.0698 -0.1085
    7CHL1   H1A  489   5.847   2.503  10.035  0.0273  1.8933 -1.5620
    7CHL1   H1B  490   6.005   2.506  10.111 -0.2768 -0.8717 -3.6119
    7CHL1    C2  491   5.842   2.571  10.254 -0.0313  0.9162  0.2457
    7CHL1   H2A  492   5.836   2.472  10.302 -0.1780 -0.1972 -1.9543
    7CHL1   H2B  493   5.742   2.621  10.256  0.1145  1.1908  2.0353
    7CHL1   C20  494   6.081   2.706   9.356 -0.0607 -0.2210 -0.2614
    7CHL1   H20  495   6.023   2.801   9.353  0.0240 -0.0108  2.5469
    7CHL1   C21  496   5.983   2.586   9.336 -0.5558 -0.4163  0.7043
    7CHL1  H21A  497   6.025   2.486   9.362  1.2143  0.5375  1.6325
    7CHL1  H21B  498   5.957   2.582   9.228  1.4456 -0.3529  0.1760
    7CHL1  H21C  499   5.883   2.592   9.383 -0.6447 -0.0922  0.4752
    7CHL1   C22  500   6.181   2.710   9.240  0.3961 -0.2204  0.2415
    7CHL1  H22A  501   6.275   2.767   9.258 -0.0894  1.1373 -1.2261
    7CHL1  H22B  502   6.210   2.609   9.205  0.9559  0.1885 -0.5209
    7CHL1   C23  503   6.114   2.771   9.121 -0.2747 -0.4087 -0.4191
    7CHL1  H23A  504   6.014   2.738   9.087 -0.1062 -2.5785  1.0203
    7CHL1  H23B  505   6.096   2.879   9.138  0.4534 -0.3420 -0.0164
    7CHL1   C24  506   6.202   2.767   8.991  0.5269  0.2123  0.0861
    7CHL1  H24A  507   6.304   2.796   9.025 -0.2164  3.4728 -0.1960
    7CHL1  H24B  508   6.207   2.660   8.961  0.0581 -0.0869  1.0350
    7CHL1   C25  509   6.166   2.866   8.883 -0.4049  0.2018 -0.0046
    7CHL1   H25  510   6.129   2.961   8.926 -1.4613 -0.8268  1.4425
    7CHL1   C26  511   6.293   2.895   8.806 -0.6987  0.7129 -0.1331
    7CHL1  H26A  512   6.329   2.808   8.746  1.0694 -1.0486  3.2006
    7CHL1  H26B  513   6.278   2.974   8.729  0.4822 -1.4707 -2.7928
    7CHL1  H26C  514   6.381   2.920   8.869 -1.6341 -0.0151  1.5130
    7CHL1   C27  515   6.045   2.835   8.803  0.7241 -0.7940  0.0559
    7CHL1  H27A  516   5.948   2.844   8.856 -0.6735 -0.6479 -2.3524
    7CHL1  H27B  517   6.040   2.896   8.710 -1.4206 -0.1461  0.5337
    7CHL1  H27C  518   6.051   2.729   8.770  0.2495 -0.7427 -0.2181
    8CHL1    C3  519   0.969   5.890  10.183 -0.1691  0.9634 -0.3315
    8CHL1    H3  520   0.906   5.981  10.176 -3.1178 -0.9354  0.1151
    8CHL1    O3  521   0.953   5.869  10.326 -0.5214  0.1456  0.4522
    8CHL1   H3'  522   1.012   5.795  10.340 -0.7543 -0.7022 -2.4573
    8CHL1    C4  523   0.902   5.764  10.109 -0.2456 -0.4207 -0.9546
    8CHL1   H4A  524   0.965   5.677  10.139  0.2048 -0.2008 -1.2437
    8CHL1   H4B  525   0.802   5.747  10.152  0.0213  2.2578  0.9929
    8CHL1    C5  526   0.906   5.789   9.965 -0.6364 -0.0270  0.2390
    8CHL1    C6  527   0.791   5.798   9.896  0.2340  0.4775  0.2765
    8CHL1    H6  528   0.695   5.781   9.946 -0.1923 -0.6101 -0.8402
    8CHL1    C7  529   0.781   5.835   9.749 -0.7285  0.0893 -0.1841
    8CHL1   H7A  530   0.723   5.757   9.695  0.6842 -0.2641 -1.2269
    8CHL1   H7B  531   0.744   5.940   9.738  0.5371  0.9070  2.4447
    8CHL1    C8  532   0.927   5.818   9.684  0.0013 -0.0625  0.2264
    8CHL1    H8  533   0.947   5.709   9.685  2.2697  0.2944 -0.8792
    8CHL1   C14  534   0.936   5.877   9.541  0.6046 -0.5103  0.1269
    8CHL1   H14  535   0.915   5.986   9.550 -1.2820 -0.8749  0.6299
    8CHL1   C15  536   0.831   5.828   9.442 -0.3353 -0.3113 -0.0282
    8CHL1  H15A  537   0.823   5.718   9.437 -2.1893 -0.3808  2.5578
    8CHL1  H15B  538   0.739   5.884   9.469  1.6111  2.5188  1.2384
    8CHL1   C16  539   0.887   5.882   9.308  0.2532  0.5677 -0.2461
    8CHL1  H16A  540   0.869   5.796   9.241 -0.9625  1.0676 -0.5931
    8CHL1  H16B  541   0.831   5.972   9.272  1.2004  0.7281 -1.3876
    8CHL1   C17  542   1.042   5.908   9.320  0.0342 -0.3325 -0.4071
    8CHL1   H17  543   1.060   6.018   9.322  0.9239 -0.4888  0.8787
    8CHL1   C13  544   1.072   5.863   9.465 -0.7067  0.3981 -0.9032
    8CHL1   C18  545   1.107   5.708   9.459  0.2269  0.4665  0.4868
    8CHL1  H18A  546   1.209   5.699   9.417  0.4907 -1.5566  1.4542
    8CHL1  H18B  547   1.118   5.660   9.559  1.5391 -0.0680  0.0958
    8CHL1  H18C  548   1.035   5.651   9.397  0.6407 -0.7977  1.1311
    8CHL1   C12  549   1.175   5.947   9.548 -0.5993  0.5255 -0.3911
    8CHL1  H12A  550   1.275   5.943   9.501 -0.1924 -2.6562  0.5273
    8CHL1  H12B  551   1.135   6.051   9.547 -1.2739  0.2722 -2.0973
    8CHL1   C11  552   1.180   5.891   9.693  0.3086  0.5884  0.6091
    8CHL1  H11A  553   1.234   5.794   9.691  0.0275  0.4282 -1.4217
    8CHL1  H11B  554   1.249   5.956   9.752 -1.2766  1.9193  1.0787
    8CHL1    C9  555   1.038   5.887   9.757 -0.5313  0.6281  0.2825
    8CHL1    H9  556   1.006   5.994   9.760  0.8967  1.1311 -1.0881
    8CHL1   C10  557   1.043   5.829   9.903  0.2195  0.8950  0.2972
    8CHL1   C19  558   1.127   5.693   9.899  0.5037  0.5693  0.4650
    8CHL1  H19A  559   1.112   5.634   9.992 -2.0904 -0.5193 -0.5245
    8CHL1  H19B  560   1.092   5.621   9.821 -0.9773 -0.3003  1.8725
    8CHL1  H19C  561   1.233   5.716   9.877  0.7165 -0.1248  0.7478
    8CHL1    C1  562   1.120   5.929   9.994 -0.1071 -0.1725  0.8949
    8CHL1   H1A  563   1.226   5.924   9.961 -0.6411 -1.0847 -0.8118
    8CHL1   H1B  564   1.085   6.032   9.973 -0.4760 -0.6782 -1.2060
    8CHL1    C2  565   1.116   5.904  10.148 -0.5145 -0.1510 -0.1558
    8CHL1   H2A  566   1.150   5.995  10.201  1.8880 -0.6806 -0.6737
    8CHL1   H2B  567   1.178   5.818  10.181  1.0185  1.5030  1.4152
    8CHL1   C20  568   1.118   5.850   9.203  0.3413  0.2977  0.0629
    8CHL1   H20  569   1.111   5.739   9.204 -0.0826  0.3277  0.2007
    8CHL1   C21  570   1.260   5.906   9.209  0.0992  0.0497 -0.0928
    8CHL1  H21A  571   1.267   6.006   9.255  0.5588 -0.9016  2.0000
    8CHL1  H21B  572   1.314   5.892   9.113  0.4203 -0.6496  0.1829
    8CHL1  H21C  573   1.312   5.840   9.281  0.6468  0.5905  0.0122
    8CHL1   C22  574   1.058   5.903   9.066 -0.8304  0.0591 -0.3018
    8CHL1  H22A  575   0.954   5.864   9.056 -0.3727 -0.9189 -1.4942
    8CHL1  H22B  576   1.037   6.011   9.075 -0.7005  0.0786 -0.2320
    8CHL1   C23  577   1.140   5.871   8.940  0.3467 -1.0558 -0.3481
    8CHL1  H23A  578   1.237   5.924   8.936  1.3437 -2.7719  0.0397
    8CHL1  H23B  579   1.161   5.762   8.927 -0.9443 -1.0264 -3.7389
    8CHL1   C24  580   1.057   5.924   8.821 -0.1529 -0.7233  0.2243
    8CHL1  H24A  581   0.958   5.873   8.820  0.0219 -1.0697  0.4006
    8CHL1  H24B  582   1.044   6.033   8.839 -3.2514 -0.9908  0.2748
    8CHL1   C25  583   1.132   5.895   8.694 -0.4499  0.6088  0.1989
    8CHL1   H25  584   1.229   5.947   8.708 -0.1968 -0.1780  1.4498
    8CHL1   C26  585   1.153   5.742   8.673 -0.2660 -0.2272  0.0647
    8CHL1  H26A  586   1.255   5.715   8.708  0.1237  0.8566 -0.1714
    8CHL1  H26B  587   1.074   5.691   8.730 -1.3890  0.4628 -0.8368
    8CHL1  H26C  588   1.153   5.719   8.564  0.7485  2.0595 -0.4938
    8CHL1   C27  589   1.059   5.949   8.570 -0.0073 -0.1187 -0.7564
    8CHL1  H27A  590   1.123   5.946   8.479 -0.2165  0.9565 -0.9627
    8CHL1  H27B  591   0.973   5.882   8.550  0.2505 -0.2876 -1.3301
    8CHL1  H27C  592   1.040   6.059   8.575  2.6301  0.4634 -1.8281
    9CHL1    C3  593   2.435   0.737  10.116 -0.3762  0.3801  0.1184
    9CHL1    H3  594   2.385   0.642  10.091  0.2341  0.2865 -0.8034
    9CHL1    O3  595   2.461   0.741  10.254 -0.2118 -0.2183  0.7596
    9CHL1   H3'  596   2.554   0.763  10.264 -0.4364  1.5437 -0.5045
    9CHL1    C4  597   2.566   0.752  10.037 -0.2497 -0.7345 -0.4229
    9CHL1   H4A  598   2.613   0.850  10.059  1.7306 -1.8931  0.8277
    9CHL1   H4B  599   2.635   0.671  10.070 -0.7414 -1.0071 -0.0521
    9CHL1    C5  600   2.520   0.737   9.892  0.2027  0.3861 -0.0945
    9CHL1    C6  601   2.570   0.645   9.812  0.5285 -0.0611  0.2603
    9CHL1    H6  602   2.633   0.568   9.860  0.6443  0.3836  0.8413
    9CHL1    C7  603   2.551   0.644   9.668 -0.8840  0.0051  0.4119
    9CHL1   H7A  604   2.655   0.630   9.631 -1.0885  0.7048 -0.4487
    9CHL1   H7B  605   2.498   0.551   9.637 -0.6667 -0.1292  0.4345
    9CHL1    C8  606   2.481   0.767   9.606  0.3684  0.5464  0.4570
    9CHL1    H8  607   2.560   0.846   9.604  1.2277 -0.3065 -0.5685
    9CHL1   C14  608   2.429   0.733   9.466  0.6623 -0.0467  0.1583
    9CHL1   H14  609   2.350   0.656   9.480  1.4224 -0.8228  0.2428
    9CHL1   C15  610   2.534   0.679   9.365 -0.1218  0.6456  0.4282
    9CHL1  H15A  611   2.630   0.735   9.362  0.7690 -0.7618  1.3471
    9CHL1  H15B  612   2.565   0.575   9.390 -0.6612  0.4861  0.4565
    9CHL1   C16  613   2.449   0.695   9.238  0.3305 -0.2900  0.5974
    9CHL1  H16A  614   2.521   0.740   9.167  0.1631 -0.9911 -0.0257
    9CHL1  H16B  615   2.420   0.591   9.211 -0.4213  0.3713 -1.3297
    9CHL1   C17  616   2.326   0.783   9.267  0.2360 -0.2033 -0.0447
    9CHL1   H17  617   2.240   0.712   9.270 -0.2830  0.4284  0.1934
    9CHL1   C13  618   2.352   0.848   9.396  0.0395 -0.0609  0.3956
    9CHL1   C18  619   2.429   0.982   9.375 -0.3197 -0.0979 -0.4199
    9CHL1  H18A  620   2.525   0.967   9.322 -0.0825  1.5955 -0.5082
    9CHL1  H18B  621   2.371   1.064   9.327 -1.1537 -0.0039  0.7036
    9CHL1  H18C  622   2.464   1.024   9.471  0.4491  0.0021 -0.7417
    9CHL1   C12  623   2.228   0.872   9.478 -0.2749  0.9221 -0.0939
    9CHL1  H12A  624   2.168   0.954   9.436 -0.5654  0.3448 -0.8167
    9CHL1  H12B  625   2.167   0.779   9.481 -0.3296  0.9770  1.1262
    9CHL1   C11  626   2.260   0.901   9.625  0.7121 -0.2782  0.1566
    9CHL1  H11A  627   2.311   1.000   9.621  1.1158 -0.5132 -1.7452
    9CHL1  H11B  628   2.170   0.920   9.688  0.5910  0.4708 -0.2293
    9CHL1    C9  629   2.367   0.805   9.698 -0.3526  0.1204  0.7190
    9CHL1    H9  630   2.304   0.714   9.705  2.4095 -1.8009  2.6167
    9CHL1   C10  631   2.410   0.844   9.833  0.3775  0.2953 -0.2962
    9CHL1   C19  632   2.480   0.985   9.829 -0.0338 -0.0700 -0.3548
    9CHL1  H19A  633   2.532   1.007   9.924 -1.4771 -0.6725  0.6095
    9CHL1  H19B  634   2.546   0.991   9.740  1.4262 -2.5795  0.4587
    9CHL1  H19C  635   2.404   1.067   9.823  0.3867  0.8046  3.4453
    9CHL1    C1  636   2.294   0.839   9.931 -0.3767 -0.0409 -0.3143
    9CHL1   H1A  637   2.212   0.910   9.905 -1.9968 -1.6253  0.2591
    9CHL1   H1B  638   2.250   0.739   9.913  1.5771 -0.7204 -1.6388
    9CHL1    C2  639   2.331   0.847  10.084 -0.0897  0.1691 -0.2018
    9CHL1   H2A  640   2.245   0.824  10.150 -1.5237  1.6851 -1.4422
    9CHL1   H2B  641   2.372   0.947  10.112 -1.6935  1.1244 -1.1100
    9CHL1   C20  642   2.285   0.866   9.141 -0.8459 -0.6561  0.1041
    9CHL1   H20  643   2.362   0.943   9.122  0.3234 -2.1365 -1.4795
    9CHL1   C21  644   2.151   0.943   9.153  0.5215 -0.1035 -0.1714
    9CHL1  H21A  645   2.131   1.011   9.238  1.4467  2.5791 -1.9610
    9CHL1  H21B  646   2.068   0.868   9.156 -1.2561  1.8088  0.9837
    9CHL1  H21C  647   2.140   1.002   9.060 -0.3169  0.3533  0.2093
    9CHL1   C22  648   2.290   0.781   9.008 -0.1067 -0.7451  0.0376
    9CHL1  H22A  649   2.385   0.726   8.992 -0.6101 -2.1226  1.5128
    9CHL1  H22B  650   2.215   0.699   9.011 -2.2455  1.0791 -1.2314
    9CHL1   C23  651   2.254   0.851   8.879 -0.0027 -0.6526  0.8430
    9CHL1  H23A  652   2.165   0.915   8.896 -0.0910 -0.4524 -0.3060
    9CHL1  H23B  653   2.332   0.915   8.833 -0.0830 -0.7959  0.5008
    9CHL1   C24  654   2.206   0.755   8.765 -0.7046 -0.0244 -0.0201
    9CHL1  H24A  655   2.286   0.679   8.758 -0.2848  0.5533 -1.8642
    9CHL1  H24B  656   2.108   0.710   8.790 -2.0022  1.4039 -2.1858
    9CHL1   C25  657   2.199   0.824   8.623 -0.0266  0.2867 -0.7810
    9CHL1   H25  658   2.289   0.886   8.602  1.4391 -1.7537 -0.7966
    9CHL1   C26  659   2.206   0.712   8.513  0.1416 -0.6544 -0.0996
    9CHL1  H26A  660   2.183   0.746   8.410  0.7464  0.5154  0.1356
    9CHL1  H26B  661   2.308   0.668   8.508  0.0772 -0.9271  0.7470
    9CHL1  H26C  662   2.142   0.626   8.541 -1.8669  0.0972 -2.1471
    9CHL1   C27  663   2.079   0.912   8.625  0.1355 -0.4662 -0.2515
    9CHL1  H27A  664   2.084   0.979   8.536  1.0297  0.6074  0.5759
    9CHL1  H27B  665   1.977   0.869   8.634  0.0243 -0.3358 -0.8068
    9CHL1  H27C  666   2.083   0.981   8.712 -1.6135 -1.1538  0.4298
   10CHL1    C3  667   0.960   0.978  10.098  0.0405  0.0203 -0.2429
   10CHL1    H3  668   0.930   1.085  10.105 -2.3000 -0.4200 -2.1507
   10CHL1    O3  669   1.036   0.916  10.205  0.5398  0.0643 -0.2997
   10CHL1   H3'  670   1.061   0.997  10.249  1.6971 -0.5988  0.2955
   10CHL1    C4  671   0.825   0.901  10.091 -0.5361  0.2388 -0.0487
   10CHL1   H4A  672   0.858   0.796  10.083  0.8065  0.6864 -0.7351
   10CHL1   H4B  673   0.771   0.915  10.187 -1.5982 -3.1211 -0.0520
   10CHL1    C5  674   0.731   0.941   9.976 -0.3035 -0.1546  0.4136
   10CHL1    C6  675   0.613   0.998   9.996  0.1075  0.1217  0.3946
   10CHL1    H6  676   0.578   1.003  10.100  0.4386 -0.9200  0.5687
   10CHL1    C7  677   0.517   1.046   9.891  0.3491  0.6559  0.3607
   10CHL1   H7A  678   0.410   1.022   9.904  0.3412  0.6282  0.2443
   10CHL1   H7B  679   0.521   1.157   9.878 -0.0910  0.6403  0.0914
   10CHL1    C8  680   0.563   0.987   9.751  0.0214 -0.2701  0.8638
   10CHL1    H8  681   0.543   0.878   9.754 -1.6058 -0.1565 -2.0651
   10CHL1   C14  682   0.501   1.065   9.639 -0.5918  0.6941 -0.2438
   10CHL1   H14  683   0.541   1.167   9.656 -1.2015  0.7311  1.0558
   10CHL1   C15  684   0.353   1.088   9.640  0.3426  0.7186 -0.9112
   10CHL1  H15A  685   0.292   0.995   9.638 -3.4698  3.0134 -1.0092
   10CHL1  H15B  686   0.335   1.150   9.731 -1.7118 -2.0241  0.6966
   10CHL1   C16  687   0.332   1.166   9.509 -0.5644 -0.1046  0.0591
   10CHL1  H16A  688   0.250   1.117   9.452 -0.2207  0.6408 -1.1242
   10CHL1  H16B  689   0.318   1.276   9.521  1.3667  0.3661 -1.4961
   10CHL1   C17  690   0.456   1.137   9.421 -0.7180  0.5548 -0.5205
   10CHL1   H17  691   0.517   1.230   9.426  0.8876 -0.5154  3.3289
   10CHL1   C13  692   0.536   1.028   9.496  0.1239 -0.3961 -0.2751
   10CHL1   C18  693   0.479   0.888   9.468 -0.2256 -0.2587 -0.6494
   10CHL1  H18A  694   0.532   0.811   9.529 -3.4032  0.0383  2.8935
   10CHL1  H18B  695   0.371   0.869   9.486  0.1115 -2.6245 -0.7961
   10CHL1  H18C  696   0.500   0.877   9.360 -1.1169  2.0004 -1.0938
   10CHL1   C12  697   0.687   1.050   9.482  1.3204  0.5311  0.4322
   10CHL1  H12A  698   0.728   1.019   9.384  0.6339  2.8060 -0.6513
   10CHL1  H12B  699   0.717   1.156   9.499  0.1249  0.7814  1.1663
   10CHL1   C11  700   0.758   0.965   9.586 -0.0783  1.3102 -0.6359
   10CHL1  H11A  701   0.733   0.860   9.561 -0.0845  1.2704 -0.4653
   10CHL1  H11B  702   0.867   0.987   9.584  0.1105  1.0905  2.2910
   10CHL1    C9  703   0.714   0.996   9.733 -0.2107  0.7497 -0.1930
   10CHL1    H9  704   0.738   1.104   9.744  0.6280  0.3577  2.4486
   10CHL1   C10  705   0.798   0.927   9.840 -0.1575  0.4743 -0.1290
   10CHL1   C19  706   0.812   0.780   9.804 -0.3267  0.7756 -0.0254
   10CHL1  H19A  707   0.889   0.764   9.726  0.6360  0.1945  1.0275
   10CHL1  H19B  708   0.851   0.716   9.885  3.1780  0.3156 -1.8838
   10CHL1  H19C  709   0.722   0.734   9.757 -0.5492  0.6965  0.4755
   10CHL1    C1  710   0.945   1.002   9.851 -0.2404 -0.0669 -0.0260
   10CHL1   H1A  711   0.998   0.990   9.755 -0.3733 -0.7050 -0.0186
   10CHL1   H1B  712   0.916   1.110   9.855 -0.7274 -0.0722 -2.3527
   10CHL1    C2  713   1.033   0.960   9.969 -0.2089 -0.1636  0.0048
   10CHL1   H2A  714   1.133   1.007   9.970 -0.5232  0.5230  1.3178
   10CHL1   H2B  715   1.061   0.855   9.944  0.8733 -0.5124  2.3892
   10CHL1   C20  716   0.415   1.119   9.275  0.1167 -0.8954 -0.4574
   10CHL1   H20  717   0.344   1.034   9.263 -0.1115 -0.7490 -0.1753
   10CHL1   C21  718   0.533   1.096   9.184 -0.2034  0.8017 -0.0313
   10CHL1  H21A  719   0.582   0.999   9.205 -0.5266  0.7490  0.4970
   10CHL1  H21B  720   0.608   1.178   9.189  1.1294 -0.4153  0.3291
   10CHL1  H21C  721   0.498   1.077   9.080 -2.8572  0.6039  0.8172
   10CHL1   C22  722   0.338   1.245   9.229  0.3567 -0.2116 -0.0666
   10CHL1  H22A  723   0.238   1.240   9.277 -1.0833  0.0832 -2.8455
   10CHL1  H22B  724   0.384   1.342   9.261 -0.2187  0.4318 -1.1229
   10CHL1   C23  725   0.325   1.262   9.078 -0.1043 -0.6004  0.2496
   10CHL1  H23A  726   0.422   1.307   9.050 -0.9262  0.4362 -1.0685
   10CHL1  H23B  727   0.308   1.167   9.023 -1.9397 -0.0465 -0.2088
   10CHL1   C24  728   0.207   1.353   9.044 -0.7209 -0.7318  0.0666
   10CHL1  H24A  729   0.111   1.305   9.073 -2.3593  0.9615 -2.2125
   10CHL1  H24B  730   0.208   1.442   9.109 -1.4586  0.0690 -0.9863
   10CHL1   C25  731   0.183   1.398   8.897 -0.5348 -0.0202 -0.2722
   10CHL1   H25  732   0.166   1.306   8.836  0.9813 -0.3228 -0.2788
   10CHL1   C26  733   0.061   1.488   8.906 -0.4742  0.1008  0.1022
   10CHL1  H26A  734   0.084   1.581   8.963 -1.4058  1.3456 -1.4816
   10CHL1  H26B  735   0.019   1.505   8.805 -1.0246 -0.0381  0.3001
   10CHL1  H26C  736  -0.015   1.437   8.969 -0.4292 -0.8676 -0.6068
   10CHL1   C27  737   0.315   1.455   8.836 -0.4823 -0.3297 -0.5514
   10CHL1  H27A  738   0.313   1.437   8.726 -1.1904  1.3902 -0.8515
   10CHL1  H27B  739   0.317   1.565   8.845  0.7411 -0.3361 -0.5192
   10CHL1  H27C  740   0.413   1.416   8.873  2.0604  4.0886 -1.8258
   11CHL1    C3  741   2.762   2.334  10.047  0.1402 -0.5099  0.2005
   11CHL1    H3  742   2.679   2.263  10.029  0.2779 -0.2569 -1.6722
   11CHL1    O3  743   2.805   2.348  10.184 -0.0599 -0.2744  0.3839
   11CHL1   H3'  744   2.867   2.421  10.185  1.1331 -1.2339  0.1486
   11CHL1    C4  745   2.885   2.292   9.971  0.5230  0.6794  0.1742
   11CHL1   H4A  746   2.966   2.365   9.992  0.9388  0.4804 -0.7259
   11CHL1   H4B  747   2.909   2.194  10.017 -0.4956  0.6308  0.6472
   11CHL1    C5  748   2.855   2.278   9.822 -0.5410  0.1956 -0.4446
   11CHL1    C6  749   2.866   2.159   9.761 -0.8140 -0.6441  0.1121
   11CHL1    H6  750   2.900   2.067   9.810  0.0560 -1.7473 -2.3801
   11CHL1    C7  751   2.850   2.139   9.616  0.0989  0.4184  0.0364
   11CHL1   H7A  752   2.919   2.063   9.573 -0.4130  1.4932 -2.9459
   11CHL1   H7B  753   2.750   2.092   9.607  0.0735 -0.2217  2.7268
   11CHL1    C8  754   2.843   2.271   9.534 -0.0960  0.4164 -0.5045
   11CHL1    H8  755   2.944   2.313   9.520 -0.0886  0.0284 -1.6602
   11CHL1   C14  756   2.782   2.238   9.396  0.0090  0.0810 -0.7473
   11CHL1   H14  757   2.678   2.207   9.418  0.1571  0.1981  0.1496
   11CHL1   C15  758   2.847   2.127   9.317 -0.2427 -0.1363 -0.2030
   11CHL1  H15A  759   2.957   2.138   9.327 -0.2024  0.4173 -1.1670
   11CHL1  H15B  760   2.817   2.026   9.354 -0.7142 -0.5120 -1.5462
   11CHL1   C16  761   2.802   2.146   9.169  0.2271  0.2242 -0.2964
   11CHL1  H16A  762   2.888   2.148   9.100 -0.3912 -0.4750 -1.1101
   11CHL1  H16B  763   2.743   2.054   9.149  2.1614 -1.1962  0.2416
   11CHL1   C17  764   2.715   2.283   9.169  0.0339 -0.5760  0.2213
   11CHL1   H17  765   2.607   2.259   9.181 -0.2777 -0.0876 -1.3073
   11CHL1   C13  766   2.757   2.356   9.301  0.8361 -0.0349  1.0334
   11CHL1   C18  767   2.884   2.428   9.269 -0.1417 -0.1573  0.5476
   11CHL1  H18A  768   2.939   2.474   9.355  2.3157  0.5474 -1.2841
   11CHL1  H18B  769   2.958   2.364   9.217  0.5999 -0.0662  1.4488
   11CHL1  H18C  770   2.856   2.516   9.207 -1.5286 -2.7868 -2.8984
   11CHL1   C12  771   2.653   2.447   9.372 -0.6538  0.2441  1.3130
   11CHL1  H12A  772   2.629   2.537   9.310  0.3558 -0.4346 -0.1304
   11CHL1  H12B  773   2.555   2.396   9.379 -0.0832 -0.9231  0.9843
   11CHL1   C11  774   2.697   2.484   9.512  0.4705 -0.0861 -0.1032
   11CHL1  H11A  775   2.772   2.566   9.517  0.1887  0.1473  0.3996
   11CHL1  H11B  776   2.610   2.519   9.571 -0.5813 -1.7674 -0.5951
   11CHL1    C9  777   2.751   2.368   9.603  0.0334  0.0070 -0.2320
   11CHL1    H9  778   2.656   2.311   9.612 -1.5300  2.4904  0.0810
   11CHL1   C10  779   2.804   2.400   9.746  0.3431 -0.4902 -0.0253
   11CHL1   C19  780   2.920   2.498   9.736  0.1942 -0.5685  0.7068
   11CHL1  H19A  781   2.964   2.523   9.836 -1.8762  1.5834  1.1832
   11CHL1  H19B  782   3.002   2.463   9.671  0.4528 -0.5985  1.0428
   11CHL1  H19C  783   2.887   2.598   9.700  0.9024  0.1206  1.8923
   11CHL1    C1  784   2.684   2.458   9.833  0.3300 -0.5153 -0.3922
   11CHL1   H1A  785   2.669   2.566   9.809 -1.0727 -0.0412  2.2077
   11CHL1   H1B  786   2.591   2.400   9.817  0.6800 -2.2210  2.8786
   11CHL1    C2  787   2.725   2.472   9.984  0.3698  0.2168 -0.1702
   11CHL1   H2A  788   2.636   2.513  10.037 -0.7793 -2.1566 -0.1282
   11CHL1   H2B  789   2.808   2.546   9.980  0.2249  0.3564 -0.7654
   11CHL1   C20  790   2.729   2.358   9.037 -0.1468  0.4598 -0.1744
   11CHL1   H20  791   2.834   2.373   9.004 -0.6428 -0.9218 -2.5729
   11CHL1   C21  792   2.651   2.489   9.039 -0.0783  0.9094  0.5101
   11CHL1  H21A  793   2.634   2.525   8.936 -1.5892 -0.7996  0.0942
   11CHL1  H21B  794   2.702   2.561   9.106  3.6366 -3.0753  2.4634
   11CHL1  H21C  795   2.551   2.478   9.087  0.8453  0.2264  2.4164
   11CHL1   C22  796   2.676   2.257   8.925  0.3357  0.1522  0.6106
   11CHL1  H22A  797   2.743   2.168   8.924  1.2861  0.8465 -0.7053
   11CHL1  H22B  798   2.571   2.222   8.937 -0.4888  2.0217 -0.6454
   11CHL1   C23  799   2.687   2.325   8.788  0.4684 -0.2248 -0.6315
   11CHL1  H23A  800   2.615   2.409   8.775 -1.8242 -2.0922 -0.8811
   11CHL1  H23B  801   2.790   2.365   8.780  1.4274 -2.2886  0.5452
   11CHL1   C24  802   2.667   2.227   8.668 -0.1615 -0.6866  0.1063
   11CHL1  H24A  803   2.737   2.142   8.678  2.4334  1.2949 -0.1260
   11CHL1  H24B  804   2.564   2.187   8.680  0.0364 -0.4778  2.9818
   11CHL1   C25  805   2.705   2.279   8.527  0.3021 -0.1789  0.0953
   11CHL1   H25  806   2.647   2.370   8.502 -0.3348 -0.7605 -0.6267
   11CHL1   C26  807   2.856   2.296   8.513  0.5891 -0.4801  0.8182
   11CHL1  H26A  808   2.880   2.301   8.404 -3.0005 -0.3520 -0.0724
   11CHL1  H26B  809   2.905   2.379   8.569 -2.5388  1.7469  0.4627
   11CHL1  H26C  810   2.889   2.192   8.536 -0.6496 -0.6479  1.9225
   11CHL1   C27  811   2.659   2.174   8.417 -0.2344  0.1952 -0.8191
   11CHL1  H27A  812   2.679   2.221   8.318  1.7837 -1.5508 -1.3345
   11CHL1  H27B  813   2.733   2.092   8.431  1.6681  1.9512 -0.0052
   11CHL1  H27C  814   2.552   2.146   8.425 -1.0591  2.9910 -1.1218
   12CHL1    C3  815   1.058   4.393  10.406  0.2908  0.0549 -0.5266
   12CHL1    H3  816   0.958   4.352  10.380 -0.0003  1.9442 -2.6105
   12CHL1    O3  817   1.081   4.359  10.545  0.0149 -0.1282  0.2372
   12CHL1   H3'  818   1.136   4.427  10.585 -0.6366 -0.0996  1.1004
   12CHL1    C4  819   1.157   4.329  10.314  0.1572 -0.0764 -1.5954
   12CHL1   H4A  820   1.253   4.363  10.357 -0.7404  1.0817 -0.4224
   12CHL1   H4B  821   1.141   4.221  10.331 -0.1415  0.0180 -1.2668
   12CHL1    C5  822   1.137   4.373  10.171  0.1941 -0.8550 -0.1100
   12CHL1    C6  823   1.113   4.287  10.072 -0.5445  0.2256 -1.0907
   12CHL1    H6  824   1.123   4.180  10.096  0.5728  0.0873 -2.0813
   12CHL1    C7  825   1.113   4.332   9.933  0.1319  0.0871 -0.4094
   12CHL1   H7A  826   1.167   4.260   9.868  2.8146 -0.0487  1.7524
   12CHL1   H7B  827   1.008   4.328   9.897  0.1627  0.0958 -0.5006
   12CHL1    C8  828   1.160   4.474   9.898 -0.8992  1.7267 -0.2374
   12CHL1    H8  829   1.270   4.485   9.907 -0.9857  1.6320  1.1307
   12CHL1   C14  830   1.116   4.514   9.759  0.5188 -0.1394  0.5559
   12CHL1   H14  831   1.005   4.513   9.764  0.3398  0.6098 -1.8207
   12CHL1   C15  832   1.152   4.428   9.634  0.0461  0.3433 -0.5192
   12CHL1  H15A  833   1.262   4.415   9.639  0.0257  0.6709  2.0421
   12CHL1  H15B  834   1.096   4.333   9.619 -1.3598 -0.2441  5.7062
   12CHL1   C16  835   1.113   4.526   9.516  1.0021  0.1468  0.1286
   12CHL1  H16A  836   1.207   4.524   9.457 -0.4534  4.2685 -2.7643
   12CHL1  H16B  837   1.038   4.479   9.448 -2.5563  2.2053  2.3045
   12CHL1   C17  838   1.092   4.669   9.574 -0.1680  0.3451 -0.6497
   12CHL1   H17  839   0.983   4.691   9.574 -0.2307  0.1169 -1.6774
   12CHL1   C13  840   1.141   4.656   9.718 -0.4248 -0.5083  0.8988
   12CHL1   C18  841   1.297   4.674   9.720  1.4177 -0.4829  0.2992
   12CHL1  H18A  842   1.331   4.777   9.697 -0.1048 -0.3966 -1.8916
   12CHL1  H18B  843   1.356   4.649   9.810  1.7482 -0.9840 -0.0502
   12CHL1  H18C  844   1.350   4.622   9.637 -1.0423  0.0662 -1.7681
   12CHL1   C12  845   1.066   4.751   9.826  0.1163  0.0366  0.0536
   12CHL1  H12A  846   1.074   4.859   9.802 -1.6790 -0.1455 -1.5031
   12CHL1  H12B  847   0.958   4.732   9.815  0.0344  0.0630  0.7516
   12CHL1   C11  848   1.108   4.725   9.970 -0.3555  0.4381  0.3498
   12CHL1  H11A  849   1.210   4.769   9.968 -0.9433  1.8412  0.0732
   12CHL1  H11B  850   1.056   4.786  10.047  1.5829  0.5835  1.6044
   12CHL1    C9  851   1.104   4.578  10.002  0.7068 -0.3486 -0.2798
   12CHL1    H9  852   0.994   4.566  10.005  0.7235 -0.4053  2.4262
   12CHL1   C10  853   1.138   4.526  10.148 -0.3232 -0.3034  0.0188
   12CHL1   C19  854   1.284   4.575  10.172 -0.1077 -0.3725 -0.2413
   12CHL1  H19A  855   1.351   4.506  10.116 -1.0838  0.1247 -2.0750
   12CHL1  H19B  856   1.309   4.680  10.145 -0.3204  0.0149  0.9808
   12CHL1  H19C  857   1.321   4.567  10.277  1.6272 -0.2211 -0.7952
   12CHL1    C1  858   1.039   4.593  10.244 -0.1623  0.8241  0.1912
   12CHL1   H1A  859   1.055   4.701  10.260  0.8836  0.4983  1.5081
   12CHL1   H1B  860   0.930   4.583  10.221 -0.0317  0.7059 -0.3932
   12CHL1    C2  861   1.051   4.543  10.395  0.5137 -0.2593 -0.1243
   12CHL1   H2A  862   0.970   4.580  10.463  0.8061 -0.0768  0.1296
   12CHL1   H2B  863   1.139   4.592  10.443  0.6796 -1.5308  0.9416
   12CHL1   C20  864   1.160   4.778   9.482 -0.6317 -0.2658  0.4697
   12CHL1   H20  865   1.269   4.753   9.480 -0.7890 -0.9773  0.6289
   12CHL1   C21  866   1.126   4.912   9.536  0.5362 -0.0924 -0.7045
   12CHL1  H21A  867   1.154   4.998   9.471 -0.5100  1.9332  1.3693
   12CHL1  H21B  868   1.190   4.945   9.621 -0.9452  1.7057 -0.2192
   12CHL1  H21C  869   1.017   4.921   9.552  0.6937  0.0071  0.4759
   12CHL1   C22  870   1.115   4.756   9.332 -0.1359  0.3183  0.3396
   12CHL1  H22A  871   1.154   4.661   9.289 -0.1428  0.9253 -1.0406
   12CHL1  H22B  872   1.005   4.745   9.333 -0.3589  2.1584  0.0624
   12CHL1   C23  873   1.155   4.866   9.236  0.1205  0.2093  0.1676
   12CHL1  H23A  874   1.083   4.950   9.231  0.2185  0.4164  1.7201
   12CHL1  H23B  875   1.250   4.905   9.278  0.2065 -2.6009  2.9581
   12CHL1   C24  876   1.191   4.821   9.092 -0.1514  0.1157 -0.1198
   12CHL1  H24A  877   1.283   4.758   9.092  0.3434  0.7748 -2.1973
   12CHL1  H24B  878   1.107   4.764   9.047  1.2131 -0.8425 -1.5996
   12CHL1   C25  879   1.201   4.948   8.998 -0.4409 -0.4519  0.3937
   12CHL1   H25  880   1.108   5.007   9.011 -0.2472 -0.1370  0.3380
   12CHL1   C26  881   1.320   5.028   9.046  0.0868  0.1425  0.2037
   12CHL1  H26A  882   1.410   4.965   9.031 -0.4156 -0.5011 -0.1658
   12CHL1  H26B  883   1.341   5.109   8.973  1.2486 -0.4177 -0.1041
   12CHL1  H26C  884   1.315   5.080   9.144  0.0224 -0.0475  0.3014
   12CHL1   C27  885   1.209   4.913   8.850 -0.6103  1.0425 -0.0556
   12CHL1  H27A  886   1.286   4.834   8.838 -1.1438  0.7139 -1.5546
   12CHL1  H27B  887   1.111   4.866   8.827 -0.0585  0.4838 -1.3450
   12CHL1  H27C  888   1.226   5.000   8.784  1.5654 -0.9491 -2.3037
   13CHL1    C3  889   2.200   6.657  10.134 -0.0619 -0.2153  0.1180
   13CHL1    H3  890   2.090   6.668  10.119 -0.4740 -1.4093  1.9668
   13CHL1    O3  891   2.227   6.655  10.273  0.1356 -0.0541 -0.2069
   13CHL1   H3'  892   2.321   6.637  10.279  0.4663  1.8860  1.7679
   13CHL1    C4  893   2.267   6.530  10.082  0.1923 -0.3879 -0.1746
   13CHL1   H4A  894   2.366   6.523  10.132  0.7690  0.2068 -1.2022
   13CHL1   H4B  895   2.225   6.437  10.125 -2.4165  1.3906  1.3991
   13CHL1    C5  896   2.271   6.524   9.929  0.7024 -0.2232 -0.7681
   13CHL1    C6  897   2.224   6.418   9.860  0.3362  0.8709  0.2300
   13CHL1    H6  898   2.167   6.340   9.913 -0.0809  1.9290  1.3862
   13CHL1    C7  899   2.248   6.399   9.712  0.9124 -0.6664 -0.0306
   13CHL1   H7A  900   2.294   6.300   9.689  4.4418  0.5103  1.2234
   13CHL1   H7B  901   2.147   6.414   9.669  0.8557  1.7202  0.7968
   13CHL1    C8  902   2.341   6.504   9.642 -0.0461  0.2076 -0.0154
   13CHL1    H8  903   2.447   6.473   9.653 -0.6452 -1.5433  1.2463
   13CHL1   C14  904   2.310   6.517   9.496 -0.0379  0.7177  0.0887
   13CHL1   H14  905   2.210   6.565   9.485  0.2824  0.9387 -2.2945
   13CHL1   C15  906   2.301   6.385   9.417  0.4433 -0.6567 -0.6388
   13CHL1  H15A  907   2.384   6.318   9.445  0.6452  0.1390  0.7502
   13CHL1  H15B  908   2.208   6.331   9.447  1.6658 -1.7700  1.2980
   13CHL1   C16  909   2.315   6.435   9.270  0.4264 -0.0764  0.1204
   13CHL1  H16A  910   2.391   6.381   9.210  4.1908  3.6464  1.0901
   13CHL1  H16B  911   2.224   6.409   9.212 -0.4412 -3.4058  2.6437
   13CHL1   C17  912   2.359   6.582   9.273 -0.4436 -0.2675  0.1188
   13CHL1   H17  913   2.269   6.646   9.261 -0.6069 -0.2456  1.2671
   13CHL1   C13  914   2.403   6.610   9.422  0.3553  0.6405 -0.0220
   13CHL1   C18  915   2.552   6.551   9.435 -0.0866 -0.2008  0.5194
   13CHL1  H18A  916   2.573   6.448   9.398  2.4412 -0.2676  1.9748
   13CHL1  H18B  917   2.617   6.614   9.371 -0.5605  0.2800  0.5069
   13CHL1  H18C  918   2.595   6.542   9.537  1.7601  0.6120 -0.1428
   13CHL1   C12  919   2.380   6.747   9.481  0.1496  0.5144 -0.8355
   13CHL1  H12A  920   2.436   6.826   9.427  2.0307 -1.1608 -1.4249
   13CHL1  H12B  921   2.271   6.770   9.472 -0.4910 -1.4705  1.0226
   13CHL1   C11  922   2.405   6.750   9.631  0.4411  0.5116 -0.7367
   13CHL1  H11A  923   2.515   6.745   9.651  0.3257 -1.4506 -0.3696
   13CHL1  H11B  924   2.367   6.845   9.674 -0.8504 -0.1603 -0.3466
   13CHL1    C9  925   2.331   6.638   9.714 -0.5477 -0.8132 -1.0607
   13CHL1    H9  926   2.222   6.659   9.699 -0.6641 -1.6152 -1.3563
   13CHL1   C10  927   2.347   6.641   9.867 -0.0950 -0.1570 -0.5850
   13CHL1   C19  928   2.503   6.634   9.890  0.0265 -0.2775 -0.3001
   13CHL1  H19A  929   2.521   6.633  10.000  0.4965  2.2274 -0.3042
   13CHL1  H19B  930   2.542   6.541   9.844  0.9706  0.1316 -0.3596
   13CHL1  H19C  931   2.550   6.728   9.854  2.1459 -0.7423  1.0709
   13CHL1    C1  932   2.280   6.773   9.916  0.0180 -0.3327  0.0304
   13CHL1   H1A  933   2.335   6.863   9.882  0.6064  0.2827  2.4553
   13CHL1   H1B  934   2.173   6.775   9.886 -1.0593 -2.6220  3.1115
   13CHL1    C2  935   2.271   6.783  10.070 -0.1082  0.1326  0.5927
   13CHL1   H2A  936   2.225   6.880  10.099  0.0084  0.1600  0.6841
   13CHL1   H2B  937   2.373   6.800  10.111  0.0841 -1.2431  0.7222
   13CHL1   C20  938   2.450   6.623   9.156  0.1206  0.1019  0.2241
   13CHL1   H20  939   2.551   6.578   9.167  0.7643  1.4216 -0.0715
   13CHL1   C21  940   2.473   6.777   9.172 -0.3962  0.1448  0.3563
   13CHL1  H21A  941   2.522   6.817   9.081 -0.7269 -0.9233 -0.3150
   13CHL1  H21B  942   2.553   6.797   9.245 -0.1848  2.3937 -0.4153
   13CHL1  H21C  943   2.375   6.821   9.199 -0.7235  0.1060 -0.7006
   13CHL1   C22  944   2.395   6.581   9.017  0.8935  0.4230  0.2555
   13CHL1  H22A  945   2.351   6.479   9.029  0.8360  0.2917 -0.9419
   13CHL1  H22B  946   2.326   6.659   8.978  1.3810  0.1241 -1.2728
   13CHL1   C23  947   2.492   6.553   8.900  0.1506  0.5229 -0.6489
   13CHL1  H23A  948   2.544   6.644   8.861  4.9615 -3.1152 -4.0475
   13CHL1  H23B  949   2.576   6.490   8.935 -0.7754 -0.7560 -0.6772
   13CHL1   C24  950   2.427   6.498   8.774  0.2626  0.5749  0.6048
   13CHL1  H24A  951   2.353   6.417   8.790  1.4947 -0.8233 -0.4221
   13CHL1  H24B  952   2.370   6.583   8.730 -0.9164 -0.3912  0.2328
   13CHL1   C25  953   2.521   6.456   8.661  0.1089 -0.5871  0.3140
   13CHL1   H25  954   2.567   6.363   8.700  1.7236  0.6783  1.6075
   13CHL1   C26  955   2.446   6.420   8.534  0.0992  0.3798  0.4810
   13CHL1  H26A  956   2.364   6.348   8.554  0.5023  0.3743  2.2788
   13CHL1  H26B  957   2.390   6.509   8.498 -1.1614 -0.7032 -0.3237
   13CHL1  H26C  958   2.517   6.378   8.461 -0.3647  1.1755 -0.4588
   13CHL1   C27  959   2.628   6.556   8.630 -1.0147 -0.6143 -0.1872
   13CHL1  H27A  960   2.587   6.645   8.577 -2.4933 -0.6627  0.8281
   13CHL1  H27B  961   2.684   6.594   8.719  0.1691  1.9773 -1.9176
   13CHL1  H27C  962   2.707   6.507   8.569 -2.1449 -1.9539 -0.6178
   14CHL1    C3  963   5.063   4.786  10.176 -0.5047  0.7845 -1.0098
   14CHL1    H3  964   5.162   4.796  10.127 -0.4466  1.3105 -0.7944
   14CHL1    O3  965   5.078   4.748  10.311  0.2172 -0.1641 -0.4382
   14CHL1   H3'  966   5.112   4.827  10.354  1.2661 -1.7440  1.8533
   14CHL1    C4  967   4.993   4.922  10.174  0.3437  0.1338  0.7332
   14CHL1   H4A  968   4.894   4.915  10.224  1.2350 -0.9455  2.4129
   14CHL1   H4B  969   5.042   5.000  10.234  2.0778 -0.0330 -0.3843
   14CHL1    C5  970   4.971   4.974  10.033  0.0076 -0.0087 -0.1612
   14CHL1    C6  971   5.023   5.089   9.992  0.0757 -0.3361 -0.2267
   14CHL1    H6  972   5.082   5.155  10.058 -1.4491 -0.5954  1.4989
   14CHL1    C7  973   4.995   5.154   9.855  0.7196  0.5792  0.6547
   14CHL1   H7A  974   4.935   5.247   9.869 -1.1795 -0.6472  1.0311
   14CHL1   H7B  975   5.085   5.177   9.794 -0.3247  1.6576 -0.5355
   14CHL1    C8  976   4.888   5.063   9.780 -0.4389  0.2716  0.2661
   14CHL1    H8  977   4.783   5.088   9.806 -0.8263  0.0563 -1.0001
   14CHL1   C14  978   4.897   5.097   9.631 -0.4361  0.5142  0.1007
   14CHL1   H14  979   5.006   5.091   9.609 -0.7713 -2.0702 -1.2977
   14CHL1   C15  980   4.856   5.244   9.586  0.5823 -0.2438 -0.0974
   14CHL1  H15A  981   4.749   5.260   9.613  0.5414 -2.1878  1.0869
   14CHL1  H15B  982   4.913   5.336   9.613 -1.1009  1.0802 -0.8555
   14CHL1   C16  983   4.860   5.225   9.431 -0.1043 -0.2197  0.9051
   14CHL1  H16A  984   4.781   5.289   9.385  1.5117  0.7565 -0.6405
   14CHL1  H16B  985   4.958   5.258   9.391 -1.3777  0.0210 -2.3414
   14CHL1   C17  986   4.847   5.075   9.407  0.0245  0.6533  0.5054
   14CHL1   H17  987   4.953   5.048   9.391 -0.2090  0.7802 -1.6019
   14CHL1   C13  988   4.815   5.009   9.536  0.6990 -0.2328 -0.2024
   14CHL1   C18  989   4.667   5.011   9.560  0.5440 -0.0163 -0.1326
   14CHL1  H18A  990   4.639   4.985   9.664  1.7133 -1.2758 -0.0945
   14CHL1  H18B  991   4.622   5.110   9.536  2.1782  0.7206 -0.3714
   14CHL1  H18C  992   4.609   4.946   9.491 -1.9644  0.0292  1.7923
   14CHL1   C12  993   4.867   4.865   9.543 -0.2529  0.1206 -0.0955
   14CHL1  H12A  994   4.813   4.789   9.481  3.3917 -3.2124  0.4059
   14CHL1  H12B  995   4.970   4.857   9.501 -1.1049 -1.1231 -2.1387
   14CHL1   C11  996   4.847   4.815   9.689  0.2886  0.0895 -0.2480
   14CHL1  H11A  997   4.740   4.805   9.717  0.3405  0.9903  0.3005
   14CHL1  H11B  998   4.883   4.711   9.704 -1.1766 -0.0300  3.8061
   14CHL1    C9  999   4.915   4.910   9.797 -0.9168 -0.4240  0.4712
   14CHL1    H9 1000   5.024   4.909   9.774 -0.7063  1.4865  1.2068
   14CHL1   C10 1001   4.895   4.875   9.948  0.5956 -0.3294  0.1932
   14CHL1   C19 1002   4.748   4.881   9.988 -0.0605  0.1683  0.5960
   14CHL1  H19A 1003   4.733   4.865  10.097 -3.1098 -0.7215  0.1461
   14CHL1  H19B 1004   4.715   4.984   9.965  2.5460  0.3317 -3.5090
   14CHL1  H19C 1005   4.682   4.818   9.924 -0.8752  0.8790  0.7179
   14CHL1    C1 1006   4.957   4.729   9.961  0.3112  0.4101  0.4549
   14CHL1   H1A 1007   4.873   4.664   9.926  0.8953 -0.6546  0.9998
   14CHL1   H1B 1008   5.042   4.730   9.890  0.1258  0.2614  0.2277
   14CHL1    C2 1009   4.987   4.678  10.099  0.6460 -0.2433 -0.6559
   14CHL1   H2A 1010   5.045   4.584  10.099  0.4172 -0.3885 -1.0463
   14CHL1   H2B 1011   4.893   4.671  10.158  1.4445  0.9772  0.8141
   14CHL1   C20 1012   4.774   5.022   9.275  0.0462  0.4875  0.1719
   14CHL1   H20 1013   4.752   4.914   9.289 -0.6928  0.7779  1.4963
   14CHL1   C21 1014   4.879   5.042   9.160  0.6412  0.3331 -0.3755
   14CHL1  H21A 1015   4.983   5.006   9.177  0.7810  0.5780 -0.7013
   14CHL1  H21B 1016   4.890   5.152   9.146  0.5439  0.5586  1.1723
   14CHL1  H21C 1017   4.838   5.001   9.065 -1.9301  2.1211 -0.1676
   14CHL1   C22 1018   4.636   5.090   9.243 -0.4883  0.4586  0.3318
   14CHL1  H22A 1019   4.570   5.069   9.329  1.0612 -1.8960  1.0261
   14CHL1  H22B 1020   4.643   5.199   9.224 -0.2697  0.3219 -0.4491
   14CHL1   C23 1021   4.565   5.024   9.122  0.0485  0.2575  0.4034
   14CHL1  H23A 1022   4.628   4.972   9.047 -2.0809  3.2276 -3.8575
   14CHL1  H23B 1023   4.499   4.952   9.175  0.0703 -1.8881 -2.2774
   14CHL1   C24 1024   4.480   5.135   9.057 -0.7430 -1.2605  0.3159
   14CHL1  H24A 1025   4.396   5.095   8.997 -1.5033 -0.6766  0.9741
   14CHL1  H24B 1026   4.433   5.188   9.142 -0.2081 -1.2466  0.6104
   14CHL1   C25 1027   4.549   5.231   8.963 -0.0439 -0.2461 -0.0637
   14CHL1   H25 1028   4.628   5.280   9.024  0.4088  0.5249 -1.2212
   14CHL1   C26 1029   4.611   5.157   8.844  0.4459  0.1669  0.0493
   14CHL1  H26A 1030   4.693   5.091   8.878  0.8776  0.0304 -1.2160
   14CHL1  H26B 1031   4.538   5.097   8.785  2.0310 -0.6169 -1.1824
   14CHL1  H26C 1032   4.659   5.233   8.779 -0.2625  0.2133 -0.4396
   14CHL1   C27 1033   4.466   5.350   8.924  0.0668 -0.5755  0.0035
   14CHL1  H27A 1034   4.420   5.392   9.016 -2.7992 -3.0598 -0.1696
   14CHL1  H27B 1035   4.530   5.429   8.879 -1.1798  0.5770  0.1779
   14CHL1  H27C 1036   4.394   5.321   8.844  0.6837  0.1362 -0.8324
   15CHL1    C3 1037   3.866   1.441  10.265 -0.4145 -0.6235 -0.0520
   15CHL1    H3 1038   3.897   1.547  10.254  0.6119 -0.4129  3.5402
   15CHL1    O3 1039   3.828   1.410  10.396 -0.2485  0.4996 -0.3200
   15CHL1   H3' 1040   3.896   1.437  10.458 -2.5523  3.1944  1.2404
   15CHL1    C4 1041   3.748   1.410  10.164  0.0085  0.2555  0.1915
   15CHL1   H4A 1042   3.713   1.308  10.191 -0.7102  0.0009 -1.5984
   15CHL1   H4B 1043   3.659   1.476  10.175 -1.3505 -0.4874 -4.2441
   15CHL1    C5 1044   3.792   1.417  10.025  0.0746 -0.1711 -0.9495
   15CHL1    C6 1045   3.737   1.499   9.935  0.4951 -0.4528  0.0673
   15CHL1    H6 1046   3.658   1.567   9.971  1.2487 -0.4104  1.7587
   15CHL1    C7 1047   3.781   1.504   9.790 -0.6499  0.4361  0.6027
   15CHL1   H7A 1048   3.697   1.524   9.720  0.8336  1.0279 -1.1084
   15CHL1   H7B 1049   3.847   1.593   9.784 -0.2686  0.0887 -0.6897
   15CHL1    C8 1050   3.848   1.378   9.744 -1.0197  0.0613  0.7491
   15CHL1    H8 1051   3.781   1.290   9.740 -0.0412 -0.8893  3.4322
   15CHL1   C14 1052   3.906   1.395   9.602 -0.3609  0.6167  0.5758
   15CHL1   H14 1053   3.976   1.481   9.607 -1.7179  1.9845 -1.9615
   15CHL1   C15 1054   3.804   1.420   9.491 -0.5984 -1.0930 -0.0763
   15CHL1  H15A 1055   3.713   1.357   9.502 -0.9890 -0.8729 -1.8447
   15CHL1  H15B 1056   3.774   1.527   9.491  1.5717 -0.4323  0.4017
   15CHL1   C16 1057   3.885   1.384   9.364 -0.3030  0.0941  0.2253
   15CHL1  H16A 1058   3.830   1.304   9.310 -0.4336 -0.5133  1.2296
   15CHL1  H16B 1059   3.908   1.468   9.295 -1.0997 -0.1778 -0.3877
   15CHL1   C17 1060   4.020   1.321   9.403 -0.9517  0.2146  0.3031
   15CHL1   H17 1061   4.088   1.407   9.416  0.1168 -0.9066  2.7219
   15CHL1   C13 1062   3.988   1.274   9.548 -0.0486 -0.7217 -0.6503
   15CHL1   C18 1063   3.909   1.140   9.537 -0.1853 -0.2776 -0.1112
   15CHL1  H18A 1064   3.833   1.150   9.457  1.7864  1.6998 -1.8922
   15CHL1  H18B 1065   3.988   1.063   9.519  0.4866  0.3637  0.0385
   15CHL1  H18C 1066   3.861   1.116   9.634  1.7206 -2.3066  0.4149
   15CHL1   C12 1067   4.108   1.257   9.646 -0.6650  0.0800 -0.0276
   15CHL1  H12A 1068   4.179   1.179   9.610 -1.7044 -0.6400 -0.5411
   15CHL1  H12B 1069   4.163   1.354   9.647 -0.9952  0.2700  0.7248
   15CHL1   C11 1070   4.054   1.230   9.787 -1.0843  0.9932 -0.1835
   15CHL1  H11A 1071   3.995   1.136   9.787  0.1158  0.2163  0.0412
   15CHL1  H11B 1072   4.134   1.204   9.859 -1.2313  0.2858 -0.2607
   15CHL1    C9 1073   3.961   1.339   9.838  0.7421  0.0128  0.6147
   15CHL1    H9 1074   4.031   1.426   9.836  1.3930 -0.4676 -2.8358
   15CHL1   C10 1075   3.906   1.324   9.984  0.3874 -0.0910 -0.4191
   15CHL1   C19 1076   3.866   1.179  10.007 -0.4364 -0.2166 -0.4458
   15CHL1  H19A 1077   3.784   1.147   9.940 -0.2416  1.2549 -1.4270
   15CHL1  H19B 1078   3.957   1.117   9.992 -1.0457 -0.4236 -4.0525
   15CHL1  H19C 1079   3.827   1.163  10.110  0.9113  0.4402  0.1947
   15CHL1    C1 1080   4.025   1.351  10.086  0.5886 -0.3213  0.1772
   15CHL1   H1A 1081   4.110   1.281  10.072  1.0067 -0.2046  1.8909
   15CHL1   H1B 1082   4.065   1.453  10.065  0.1013 -0.4118 -1.3492
   15CHL1    C2 1083   3.988   1.352  10.232  0.4073 -0.3637 -0.4461
   15CHL1   H2A 1084   4.070   1.399  10.289 -0.8795  1.4260 -0.0050
   15CHL1   H2B 1085   3.989   1.247  10.269  3.1019  0.7773  3.2490
   15CHL1   C20 1086   4.073   1.222   9.286 -0.2642  0.4641 -1.0772
   15CHL1   H20 1087   3.988   1.172   9.237 -0.8364  1.5440 -1.2240
   15CHL1   C21 1088   4.178   1.119   9.345 -0.0759  0.8667 -0.1470
   15CHL1  H21A 1089   4.268   1.166   9.390 -0.8509  1.8732  0.4094
   15CHL1  H21B 1090   4.220   1.064   9.258  1.8130 -0.5348  1.5584
   15CHL1  H21C 1091   4.132   1.041   9.409 -1.5886  2.6634  1.0981
   15CHL1   C22 1092   4.152   1.306   9.177  0.0863  0.4680  0.0758
   15CHL1  H22A 1093   4.074   1.366   9.124 -0.7406 -0.2282  0.4646
   15CHL1  H22B 1094   4.227   1.377   9.215 -1.4883  3.4512 -1.9524
   15CHL1   C23 1095   4.224   1.224   9.066  0.6497  0.7297  0.8358
   15CHL1  H23A 1096   4.298   1.145   9.091 -2.2505 -2.5464 -0.1444
   15CHL1  H23B 1097   4.147   1.180   8.999 -0.1853  1.3668  1.3505
   15CHL1   C24 1098   4.280   1.317   8.951  0.0817  0.4059  0.1894
   15CHL1  H24A 1099   4.204   1.383   8.904  1.0001  1.8790  0.6642
   15CHL1  H24B 1100   4.354   1.390   8.992 -0.7885  0.9555  0.7999
   15CHL1   C25 1101   4.364   1.251   8.833  1.0699 -0.6121 -0.4102
   15CHL1   H25 1102   4.380   1.337   8.764 -1.1886  0.6071  0.4699
   15CHL1   C26 1103   4.496   1.199   8.886 -0.3205  0.6483 -0.1037
   15CHL1  H26A 1104   4.561   1.171   8.801  1.5927  1.3797  1.0577
   15CHL1  H26B 1105   4.557   1.271   8.945  1.3854  1.3865 -2.6288
   15CHL1  H26C 1106   4.472   1.114   8.954  0.7509  1.0582  0.8116
   15CHL1   C27 1107   4.286   1.138   8.763  0.1359 -0.4654  0.2532
   15CHL1  H27A 1108   4.246   1.060   8.831  0.0351 -0.1526  0.5540
   15CHL1  H27B 1109   4.193   1.172   8.711  0.1465 -0.7841  0.0239
   15CHL1  H27C 1110   4.349   1.083   8.691  0.9301 -1.7147  1.8522
   16CHL1    C3 1111   4.574   1.419  10.204 -0.1907 -0.1803  0.7642
   16CHL1    H3 1112   4.680   1.447  10.183 -0.0122 -0.2639  1.5098
   16CHL1    O3 1113   4.570   1.390  10.344 -0.3030 -0.2527  0.4510
   16CHL1   H3' 1114   4.627   1.460  10.377 -2.7563  1.7700  0.7240
   16CHL1    C4 1115   4.469   1.518  10.151  0.0368 -0.3053 -0.2191
   16CHL1   H4A 1116   4.364   1.496  10.176 -0.0756  0.5447  0.0965
   16CHL1   H4B 1117   4.489   1.611  10.208 -0.6508 -0.4705  0.2897
   16CHL1    C5 1118   4.483   1.535   9.997 -0.9723  0.1329 -0.2655
   16CHL1    C6 1119   4.511   1.651   9.942  0.2157 -0.2833 -1.0286
   16CHL1    H6 1120   4.505   1.743  10.003  1.3982  0.3308 -1.7955
   16CHL1    C7 1121   4.542   1.672   9.799  0.1696 -0.3832  0.5149
   16CHL1   H7A 1122   4.495   1.757   9.746  2.6808 -0.1940 -1.6312
   16CHL1   H7B 1123   4.649   1.694   9.779 -0.2012 -0.8261 -2.5197
   16CHL1    C8 1124   4.514   1.548   9.707  0.6606  0.2396  0.0586
   16CHL1    H8 1125   4.404   1.540   9.692  0.8535  0.9761 -1.9791
   16CHL1   C14 1126   4.585   1.569   9.573  0.0484  0.4885 -0.7277
   16CHL1   H14 1127   4.692   1.578   9.601 -0.2082 -1.9248  1.3989
   16CHL1   C15 1128   4.543   1.704   9.495  0.5759 -0.0166 -0.1088
   16CHL1  H15A 1129   4.434   1.700   9.472 -0.2667 -1.0355  3.3637
   16CHL1  H15B 1130   4.571   1.795   9.552  2.5453 -0.6089 -0.0686
   16CHL1   C16 1131   4.625   1.684   9.364  0.4272 -0.0407 -0.3447
   16CHL1  H16A 1132   4.556   1.713   9.282  2.1057 -1.4331 -2.3525
   16CHL1  H16B 1133   4.718   1.746   9.365 -0.0233  0.6464  0.5049
   16CHL1   C17 1134   4.662   1.535   9.358 -0.0770  0.0825 -0.3527
   16CHL1   H17 1135   4.765   1.526   9.400 -0.3750  0.6819  0.5074
   16CHL1   C13 1136   4.573   1.460   9.464 -0.1130 -0.0536 -1.1334
   16CHL1   C18 1137   4.428   1.444   9.405 -0.4956 -0.3756 -0.7032
   16CHL1  H18A 1138   4.340   1.430   9.471 -0.4799 -2.2825 -1.0081
   16CHL1  H18B 1139   4.409   1.535   9.345  0.6038  0.0546 -0.4336
   16CHL1  H18C 1140   4.428   1.362   9.329 -2.2091 -0.1164 -1.0135
   16CHL1   C12 1141   4.620   1.329   9.524  0.3357  0.6297  0.2556
   16CHL1  H12A 1142   4.595   1.240   9.462 -0.2502 -1.3029  3.0538
   16CHL1  H12B 1143   4.729   1.329   9.542  0.3832 -0.4726  0.0416
   16CHL1   C11 1144   4.558   1.307   9.668  0.2696  0.7663 -0.3651
   16CHL1  H11A 1145   4.448   1.299   9.654  0.4601 -0.1159 -1.5187
   16CHL1  H11B 1146   4.600   1.215   9.715  0.7753 -0.0724 -2.3659
   16CHL1    C9 1147   4.572   1.424   9.771  0.0587 -0.7671 -0.0700
   16CHL1    H9 1148   4.682   1.432   9.783  0.0024 -1.0559  0.7175
   16CHL1   C10 1149   4.509   1.399   9.914 -0.0469 -0.6078 -0.2387
   16CHL1   C19 1150   4.367   1.342   9.906 -0.0767 -0.2059 -0.7103
   16CHL1  H19A 1151   4.337   1.320  10.011 -0.7946  2.3424 -0.3158
   16CHL1  H19B 1152   4.295   1.420   9.873  1.3099  1.4343  0.0100
   16CHL1  H19C 1153   4.355   1.246   9.852 -0.1156 -0.0693 -0.9457
   16CHL1    C1 1154   4.597   1.295   9.991 -0.9588 -0.2824 -1.2616
   16CHL1   H1A 1155   4.597   1.193   9.946 -0.8909 -0.2500 -1.3366
   16CHL1   H1B 1156   4.701   1.335   9.993 -1.5330  1.3689  2.0007
   16CHL1    C2 1157   4.563   1.285  10.141  0.3274  0.1206  0.6982
   16CHL1   H2A 1158   4.633   1.212  10.187  2.7780  2.6648  1.2822
   16CHL1   H2B 1159   4.462   1.239  10.150 -0.0286  0.8633  0.5755
   16CHL1   C20 1160   4.672   1.480   9.212  0.2928  0.2470 -0.2264
   16CHL1   H20 1161   4.577   1.485   9.155 -0.7367  0.0952  1.4128
   16CHL1   C21 1162   4.711   1.327   9.219  0.2141  0.4765  0.3177
   16CHL1  H21A 1163   4.630   1.259   9.255  0.2235  0.1530 -0.2551
   16CHL1  H21B 1164   4.811   1.314   9.266 -0.3930 -0.2653  1.4506
   16CHL1  H21C 1165   4.739   1.291   9.117  0.3135 -1.8851  1.1039
   16CHL1   C22 1166   4.766   1.568   9.129  0.0343  0.3025  0.8957
   16CHL1  H22A 1167   4.740   1.675   9.140  0.5458  0.4328  0.8717
   16CHL1  H22B 1168   4.875   1.562   9.154  0.8957 -2.6253 -2.7155
   16CHL1   C23 1169   4.755   1.545   8.978 -0.5260  0.4277 -0.6238
   16CHL1  H23A 1170   4.785   1.440   8.960 -0.0783  0.1204  1.6696
   16CHL1  H23B 1171   4.650   1.552   8.943 -0.6497  0.6262 -0.2162
   16CHL1   C24 1172   4.847   1.630   8.888 -0.3719  0.0214 -0.4046
   16CHL1  H24A 1173   4.955   1.624   8.914 -0.8205  0.3163  1.7541
   16CHL1  H24B 1174   4.835   1.586   8.787  2.0035  0.3249 -0.8654
   16CHL1   C25 1175   4.804   1.780   8.884 -0.7197  0.4132 -0.4395
   16CHL1   H25 1176   4.831   1.821   8.983  0.2587 -1.1303 -0.0293
   16CHL1   C26 1177   4.862   1.866   8.770 -1.2803 -0.0770  0.2984
   16CHL1  H26A 1178   4.969   1.847   8.747 -1.0654 -0.1232  1.2910
   16CHL1  H26B 1179   4.812   1.839   8.675  1.2054  2.0019 -1.7065
   16CHL1  H26C 1180   4.857   1.973   8.799  0.7298  0.0512  0.2709
   16CHL1   C27 1181   4.652   1.796   8.883  0.5488 -0.7438 -0.2304
   16CHL1  H27A 1182   4.598   1.754   8.970  0.1185  1.4078  0.6046
   16CHL1  H27B 1183   4.617   1.902   8.889 -0.5408 -1.1490  0.9359
   16CHL1  H27C 1184   4.630   1.746   8.786  2.9875 -0.7969 -0.8407
   17CHL1    C3 1185   3.902   4.957  10.319  0.7477  0.5631  0.3317
   17CHL1    H3 1186   4.005   4.973  10.283 -0.2583  0.8462 -2.7178
   17CHL1    O3 1187   3.896   4.974  10.460  0.3301 -0.0481 -0.3011
   17CHL1   H3' 1188   3.942   5.056  10.475 -1.0284  0.6989 -0.0421
   17CHL1    C4 1189   3.807   5.061  10.257  0.8746 -0.3833  0.1675
   17CHL1   H4A 1190   3.710   5.033  10.304  1.5440 -2.4466  0.4168
   17CHL1   H4B 1191   3.820   5.166  10.288 -1.2213 -0.3615  1.1386
   17CHL1    C5 1192   3.796   5.036  10.110  0.7429  0.7052  0.1430
   17CHL1    C6 1193   3.828   5.132  10.024  0.2842 -0.0970 -0.2689
   17CHL1    H6 1194   3.868   5.230  10.053  0.2377  0.5925 -2.3796
   17CHL1    C7 1195   3.826   5.122   9.873  0.0557  0.1982 -0.3631
   17CHL1   H7A 1196   3.773   5.206   9.823  1.9926  0.7157 -1.6672
   17CHL1   H7B 1197   3.932   5.130   9.843  0.4957  3.5446  1.4935
   17CHL1    C8 1198   3.766   4.989   9.821  0.3166  0.6991  0.1028
   17CHL1    H8 1199   3.656   4.992   9.828  0.3832  3.1482  1.5777
   17CHL1   C14 1200   3.806   4.963   9.675  0.1342 -0.8387 -0.0273
   17CHL1   H14 1201   3.916   4.954   9.689  0.4092  0.9288 -0.7161
   17CHL1   C15 1202   3.808   5.087   9.579  0.3429  0.4720 -0.1355
   17CHL1  H15A 1203   3.722   5.155   9.596 -0.0432  0.6181 -2.3343
   17CHL1  H15B 1204   3.906   5.138   9.594  0.9556  0.3546 -3.1215
   17CHL1   C16 1205   3.810   5.016   9.441  0.3055  0.5183 -0.2122
   17CHL1  H16A 1206   3.718   5.018   9.380  1.7957  0.2393 -2.6360
   17CHL1  H16B 1207   3.892   5.071   9.389  0.1852  1.1706  0.2829
   17CHL1   C17 1208   3.835   4.863   9.467 -0.0907  0.4958  0.1306
   17CHL1   H17 1209   3.945   4.861   9.483  0.1494  1.8352 -1.1352
   17CHL1   C13 1210   3.765   4.837   9.605 -0.3854 -0.7481  0.6169
   17CHL1   C18 1211   3.615   4.833   9.586 -0.1431 -0.6867 -0.1028
   17CHL1  H18A 1212   3.585   4.939   9.565 -0.3230 -1.2464 -3.1659
   17CHL1  H18B 1213   3.560   4.783   9.503  0.6463 -0.4042 -0.8081
   17CHL1  H18C 1214   3.567   4.788   9.675 -0.7661  1.5171  0.7663
   17CHL1   C12 1215   3.813   4.727   9.700  0.6265  0.1440  0.2108
   17CHL1  H12A 1216   3.774   4.627   9.672  1.0040  0.3913 -1.2610
   17CHL1  H12B 1217   3.922   4.715   9.684  0.1840 -1.8348 -1.8391
   17CHL1   C11 1218   3.767   4.743   9.846 -0.3217  0.5716 -0.1873
   17CHL1  H11A 1219   3.657   4.735   9.853 -0.2296  0.2143  1.1363
   17CHL1  H11B 1220   3.816   4.667   9.910  0.2992 -0.0761 -1.3880
   17CHL1    C9 1221   3.809   4.876   9.911 -0.3092  0.0256  0.5427
   17CHL1    H9 1222   3.919   4.883   9.920 -0.2665 -2.1259  2.4949
   17CHL1   C10 1223   3.767   4.893  10.061 -0.3861 -0.3791  0.0752
   17CHL1   C19 1224   3.614   4.864  10.080 -0.3910  0.2014  0.5388
   17CHL1  H19A 1225   3.590   4.761  10.045  0.6948 -0.0453  0.4713
   17CHL1  H19B 1226   3.577   4.885  10.183  1.3783  1.9502  0.8735
   17CHL1  H19C 1227   3.565   4.931  10.007  0.9256  0.3050 -0.2804
   17CHL1    C1 1228   3.845   4.790  10.147  0.1569 -0.6070  0.4281
   17CHL1   H1A 1229   3.808   4.687  10.127  0.3446 -0.2868 -1.8596
   17CHL1   H1B 1230   3.949   4.792  10.109 -0.1243  0.7724 -0.3531
   17CHL1    C2 1231   3.853   4.816  10.293  0.0153  0.4163 -0.5763
   17CHL1   H2A 1232   3.923   4.753  10.351  0.1851  2.2792  1.3720
   17CHL1   H2B 1233   3.750   4.803  10.333 -0.1824  0.7947 -0.9456
   17CHL1   C20 1234   3.797   4.767   9.357  0.4964 -0.3751 -0.8083
   17CHL1   H20 1235   3.687   4.756   9.366  0.6286 -0.5317  1.2380
   17CHL1   C21 1236   3.856   4.627   9.393 -0.0415 -1.0164  0.1561
   17CHL1  H21A 1237   3.814   4.553   9.320 -1.0674  0.6111 -0.9592
   17CHL1  H21B 1238   3.827   4.598   9.496  2.1731 -2.2314  0.4901
   17CHL1  H21C 1239   3.966   4.622   9.383 -0.0913 -0.7435 -0.5974
   17CHL1   C22 1240   3.816   4.811   9.211  0.1172  0.0928  0.5070
   17CHL1  H22A 1241   3.761   4.907   9.203 -0.9937 -0.5424  0.2314
   17CHL1  H22B 1242   3.924   4.815   9.187  0.0928 -1.3042  0.0824
   17CHL1   C23 1243   3.749   4.716   9.106 -0.1967 -0.9483 -0.2161
   17CHL1  H23A 1244   3.782   4.610   9.116 -0.0213 -0.9258 -0.5407
   17CHL1  H23B 1245   3.638   4.711   9.112 -0.1632 -1.9057 -0.1590
   17CHL1   C24 1246   3.776   4.750   8.967 -0.1874  0.4117  0.2005
   17CHL1  H24A 1247   3.751   4.857   8.951  0.9671  0.6577 -0.0521
   17CHL1  H24B 1248   3.887   4.743   8.964 -0.2037 -1.3589  1.4993
   17CHL1   C25 1249   3.717   4.662   8.859 -0.3351  0.0411  0.1559
   17CHL1   H25 1250   3.610   4.664   8.887 -0.9340 -3.1123 -1.5071
   17CHL1   C26 1251   3.731   4.725   8.722  0.5835  0.2181 -0.2544
   17CHL1  H26A 1252   3.676   4.673   8.640 -0.6379  0.1431  0.5908
   17CHL1  H26B 1253   3.684   4.825   8.729  0.5082  0.2544 -1.1096
   17CHL1  H26C 1254   3.838   4.732   8.694  1.1846 -2.1065  1.1948
   17CHL1   C27 1255   3.776   4.524   8.859  0.3710  0.4751 -0.2528
   17CHL1  H27A 1256   3.757   4.475   8.957 -0.1191  0.7621 -0.2055
   17CHL1  H27B 1257   3.745   4.457   8.775 -1.0391 -0.9669  1.3524
   17CHL1  H27C 1258   3.887   4.529   8.853  0.4706  0.5916  1.3628
   18CHL1    C3 1259   2.873   5.134  10.417  0.0967  0.3297 -0.4016
   18CHL1    H3 1260   2.956   5.061  10.403 -0.3166 -0.5098  1.2896
   18CHL1    O3 1261   2.858   5.169  10.549 -0.5203  0.5240  0.0102
   18CHL1   H3' 1262   2.891   5.258  10.562  0.1510  0.0521  1.7331
   18CHL1    C4 1263   2.878   5.263  10.334  0.5895  0.3012 -0.3143
   18CHL1   H4A 1264   2.786   5.320  10.357 -0.2604 -1.3285  0.4841
   18CHL1   H4B 1265   2.964   5.328  10.362  0.6997 -0.8088  2.2021
   18CHL1    C5 1266   2.898   5.213  10.188 -0.0658  0.8305 -0.9532
   18CHL1    C6 1267   2.999   5.253  10.114  0.1112 -0.3738  0.0671
   18CHL1    H6 1268   3.071   5.326  10.155  0.4205 -0.6419  0.0048
   18CHL1    C7 1269   3.005   5.226   9.968 -0.1163  0.4299  0.3500
   18CHL1   H7A 1270   3.042   5.313   9.912 -3.2367 -0.0161 -2.7249
   18CHL1   H7B 1271   3.074   5.142   9.945 -2.1489 -1.0267 -0.7481
   18CHL1    C8 1272   2.864   5.192   9.903 -0.2014 -0.1453 -0.6291
   18CHL1    H8 1273   2.796   5.280   9.900 -0.8160 -0.4997  1.2905
   18CHL1   C14 1274   2.879   5.141   9.757 -0.8132 -0.0411 -0.2477
   18CHL1   H14 1275   2.935   5.046   9.765 -0.4326  0.1604 -0.4746
   18CHL1   C15 1276   2.968   5.226   9.656  0.4233  0.5427  0.7739
   18CHL1  H15A 1277   2.949   5.335   9.665  0.1653  0.7498 -1.7603
   18CHL1  H15B 1278   3.074   5.201   9.678  0.5363  1.6700  1.6118
   18CHL1   C16 1279   2.921   5.172   9.516  0.0105 -0.1645  0.5683
   18CHL1  H16A 1280   2.879   5.260   9.462 -1.4855 -0.8802  0.5052
   18CHL1  H16B 1281   3.006   5.136   9.455  0.6504  1.0328  0.7277
   18CHL1   C17 1282   2.804   5.069   9.540 -0.2878 -0.1248  1.0351
   18CHL1   H17 1283   2.856   4.971   9.543 -1.3484 -0.6783  1.8732
   18CHL1   C13 1284   2.753   5.105   9.679  0.0914 -0.0194 -0.3893
   18CHL1   C18 1285   2.650   5.215   9.673 -0.6135 -0.6008  0.1389
   18CHL1  H18A 1286   2.698   5.300   9.621  1.0201 -0.6164  1.5245
   18CHL1  H18B 1287   2.552   5.203   9.622 -1.2755  2.4205  0.5466
   18CHL1  H18C 1288   2.633   5.255   9.776 -0.2478  2.1438 -0.8006
   18CHL1   C12 1289   2.697   4.989   9.769 -0.2835 -0.4887  0.1690
   18CHL1  H12A 1290   2.606   4.934   9.738  0.4429 -2.6930  1.6535
   18CHL1  H12B 1291   2.772   4.908   9.789  0.1791 -0.3186 -0.8378
   18CHL1   C11 1292   2.674   5.030   9.908  0.6161 -0.0045 -0.5084
   18CHL1  H11A 1293   2.590   5.102   9.915  0.4935 -0.0087 -1.7092
   18CHL1  H11B 1294   2.638   4.941   9.965  1.4613  0.0923  0.2009
   18CHL1    C9 1295   2.790   5.081   9.988 -0.1997 -0.9416 -0.6502
   18CHL1    H9 1296   2.873   5.007   9.996  2.3910  1.8157  0.1049
   18CHL1   C10 1297   2.772   5.135  10.136  0.6373  0.7280  0.4956
   18CHL1   C19 1298   2.655   5.228  10.136  0.3397 -0.2857 -0.9582
   18CHL1  H19A 1299   2.558   5.192  10.097  0.5786 -0.1308 -1.6978
   18CHL1  H19B 1300   2.623   5.251  10.240 -1.7075 -0.8272 -1.4124
   18CHL1  H19C 1301   2.666   5.326  10.085  1.5178  0.0882 -0.0488
   18CHL1    C1 1302   2.751   5.018  10.236 -0.2443  0.3049 -0.6429
   18CHL1   H1A 1303   2.647   4.984  10.216  0.7559 -2.4711 -1.4648
   18CHL1   H1B 1304   2.799   4.922  10.208 -1.8995 -0.7852  0.0889
   18CHL1    C2 1305   2.751   5.050  10.389  0.5454 -0.4223 -0.3061
   18CHL1   H2A 1306   2.746   4.959  10.451 -0.2271  1.0072  1.8510
   18CHL1   H2B 1307   2.658   5.107  10.410 -0.6684 -2.5603  0.3811
   18CHL1   C20 1308   2.710   5.052   9.426  0.4735  0.0591 -0.6620
   18CHL1   H20 1309   2.646   5.143   9.430 -0.2536 -0.4618 -0.0827
   18CHL1   C21 1310   2.636   4.922   9.441 -0.2829  0.5382 -0.0465
   18CHL1  H21A 1311   2.565   4.905   9.357  0.9432  1.1708 -1.2511
   18CHL1  H21B 1312   2.565   4.908   9.526  0.3001 -0.7434  0.2531
   18CHL1  H21C 1313   2.702   4.833   9.435 -1.5142 -0.3535 -1.1456
   18CHL1   C22 1314   2.778   5.052   9.281  0.2503 -0.2899 -0.0775
   18CHL1  H22A 1315   2.823   5.151   9.259 -2.1833  1.1140  0.9197
   18CHL1  H22B 1316   2.861   4.978   9.287 -0.9724 -1.6599  0.6455
   18CHL1   C23 1317   2.694   5.028   9.156  0.0881 -0.6912 -0.1570
   18CHL1  H23A 1318   2.652   4.925   9.154 -1.7728  0.0495 -2.1110
   18CHL1  H23B 1319   2.605   5.095   9.163 -0.9991 -2.2040  1.0952
   18CHL1   C24 1320   2.773   5.046   9.022  0.1253 -0.0556 -0.0952
   18CHL1  H24A 1321   2.802   5.152   9.005 -0.1904  0.3509  1.7342
   18CHL1  H24B 1322   2.871   4.996   9.039 -0.6982 -1.7054 -0.0313
   18CHL1   C25 1323   2.694   4.991   8.900  0.5535  0.2428 -0.8027
   18CHL1   H25 1324   2.666   4.887   8.927  0.2719  0.4287 -0.3702
   18CHL1   C26 1325   2.570   5.077   8.873  0.3024 -0.1889 -0.3810
   18CHL1  H26A 1326   2.505   5.077   8.963  1.9131 -0.4159  0.8238
   18CHL1  H26B 1327   2.592   5.179   8.837 -1.9093  0.5513  0.2150
   18CHL1  H26C 1328   2.509   5.035   8.789 -0.0403  2.8246 -1.7645
   18CHL1   C27 1329   2.781   4.990   8.782 -0.1220 -0.0151 -0.6072
   18CHL1  H27A 1330   2.873   4.928   8.795 -1.2666 -1.3445  1.8092
   18CHL1  H27B 1331   2.726   4.937   8.702  0.6569  0.0501 -1.1931
   18CHL1  H27C 1332   2.811   5.089   8.741  0.5262  0.4783  0.9749
   19CHL1    C3 1333   3.018   0.738  10.041  0.1379  0.0754  0.1382
   19CHL1    H3 1334   3.070   0.836  10.048 -3.0663  1.8663  0.9750
   19CHL1    O3 1335   2.969   0.713  10.172  0.2528  0.4108 -0.0229
   19CHL1   H3' 1336   2.913   0.636  10.164  0.8268  0.0858 -0.9202
   19CHL1    C4 1337   2.901   0.753   9.938  0.2255 -0.3686 -0.3482
   19CHL1   H4A 1338   2.847   0.656   9.940 -0.9650  0.2827  0.5234
   19CHL1   H4B 1339   2.828   0.831   9.970 -0.3628 -2.0082  2.7323
   19CHL1    C5 1340   2.956   0.779   9.803 -0.2033 -0.3089 -0.2038
   19CHL1    C6 1341   2.897   0.880   9.724 -0.6389  0.3026  0.4004
   19CHL1    H6 1342   2.813   0.948   9.746  0.6741  2.5537 -1.1107
   19CHL1    C7 1343   2.943   0.898   9.578  0.2497  0.0693 -0.3062
   19CHL1   H7A 1344   2.864   0.923   9.505  0.4671  2.1143  0.1042
   19CHL1   H7B 1345   2.991   0.998   9.572 -0.3925  0.3312 -1.1975
   19CHL1    C8 1346   3.043   0.783   9.521  0.8318 -0.1838  0.0967
   19CHL1    H8 1347   2.968   0.705   9.498  0.3191  0.0772  0.8317
   19CHL1   C14 1348   3.110   0.836   9.402  0.0385 -0.4881  0.6810
   19CHL1   H14 1349   3.177   0.917   9.441 -0.0744  0.5515 -1.1501
   19CHL1   C15 1350   3.030   0.905   9.295 -0.1597  0.3728  0.5548
   19CHL1  H15A 1351   2.936   0.846   9.287 -0.9458  1.8313 -2.2858
   19CHL1  H15B 1352   3.003   1.009   9.323  3.5497  1.4630  0.6094
   19CHL1   C16 1353   3.124   0.901   9.179  0.4944 -0.8335 -0.2275
   19CHL1  H16A 1354   3.081   0.848   9.091 -0.9184  0.0442 -0.1083
   19CHL1  H16B 1355   3.146   1.005   9.148  1.3719 -1.1729 -0.7539
   19CHL1   C17 1356   3.252   0.822   9.209 -0.0869  0.1222 -0.0864
   19CHL1   H17 1357   3.315   0.906   9.246 -0.8768  1.5421 -1.8151
   19CHL1   C13 1358   3.208   0.735   9.333 -0.2637  0.4759 -0.2288
   19CHL1   C18 1359   3.124   0.610   9.284 -0.6052 -0.1889  0.4628
   19CHL1  H18A 1360   3.094   0.546   9.369 -1.3897 -1.2839 -0.6065
   19CHL1  H18B 1361   3.037   0.642   9.222  0.2312 -1.9755 -1.7724
   19CHL1  H18C 1362   3.194   0.547   9.226  3.6984  3.5384  1.0394
   19CHL1   C12 1363   3.313   0.698   9.446  0.1645  0.0997  0.0585
   19CHL1  H12A 1364   3.383   0.624   9.402  0.8074  0.6764  0.0927
   19CHL1  H12B 1365   3.376   0.785   9.474  0.5990 -0.7675  1.9326
   19CHL1   C11 1366   3.248   0.631   9.574 -0.3461 -0.0795  0.7147
   19CHL1  H11A 1367   3.204   0.532   9.551  0.6427 -0.1502 -1.1138
   19CHL1  H11B 1368   3.324   0.616   9.654 -0.7644 -0.5139  1.0335
   19CHL1    C9 1369   3.139   0.728   9.626  0.3835 -0.9439 -0.5579
   19CHL1    H9 1370   3.181   0.824   9.663 -2.1244  0.0945 -0.1769
   19CHL1   C10 1371   3.070   0.681   9.756  0.4738  0.9203  0.2284
   19CHL1   C19 1372   2.994   0.539   9.721 -0.7025  0.5543 -0.0983
   19CHL1  H19A 1373   3.061   0.464   9.674  0.7681  0.3007  2.2332
   19CHL1  H19B 1374   2.953   0.494   9.814  0.5671 -1.7851 -0.5867
   19CHL1  H19C 1375   2.912   0.557   9.650 -0.7008  2.1881  0.2733
   19CHL1    C1 1376   3.172   0.660   9.878 -0.0511  0.1114  0.8164
   19CHL1   H1A 1377   3.239   0.572   9.865  0.1962  0.2313  1.2647
   19CHL1   H1B 1378   3.230   0.754   9.866 -1.0431  0.6343 -0.0994
   19CHL1    C2 1379   3.116   0.629  10.012 -0.0215 -0.0479  0.9076
   19CHL1   H2A 1380   3.205   0.622  10.079 -0.8573  0.7894  2.1654
   19CHL1   H2B 1381   3.065   0.531  10.024  2.9598 -1.6184  1.5116
   19CHL1   C20 1382   3.323   0.752   9.090 -0.1746  0.6043 -0.0707
   19CHL1   H20 1383   3.247   0.681   9.050 -1.4417  1.5663  0.5698
   19CHL1   C21 1384   3.461   0.698   9.140  0.2392  0.6905 -0.5284
   19CHL1  H21A 1385   3.516   0.783   9.186 -2.1164  1.0485  1.8481
   19CHL1  H21B 1386   3.515   0.657   9.051 -3.7770 -0.9770 -2.4303
   19CHL1  H21C 1387   3.449   0.618   9.216  1.9131  0.5864 -0.3248
   19CHL1   C22 1388   3.347   0.853   8.971 -0.3169  1.5493  0.5107
   19CHL1  H22A 1389   3.283   0.944   8.963 -1.7752  0.4608 -0.5072
   19CHL1  H22B 1390   3.448   0.897   8.987 -0.2100  1.1853  0.8387
   19CHL1   C23 1391   3.349   0.778   8.836 -0.2270 -0.0511 -0.1569
   19CHL1  H23A 1392   3.421   0.694   8.828  0.1871  0.2024  0.7924
   19CHL1  H23B 1393   3.245   0.741   8.825  0.6916 -2.4717 -1.4352
   19CHL1   C24 1394   3.394   0.865   8.719  0.7967 -0.6801 -0.0528
   19CHL1  H24A 1395   3.324   0.951   8.721 -1.1613 -2.1783 -0.2520
   19CHL1  H24B 1396   3.498   0.896   8.740  1.0714 -0.4621 -1.6354
   19CHL1   C25 1397   3.385   0.817   8.574  0.1575 -0.0430  0.1418
   19CHL1   H25 1398   3.291   0.765   8.545 -1.0024  2.3179 -0.6193
   19CHL1   C26 1399   3.369   0.940   8.485 -0.0446 -0.4032  0.0324
   19CHL1  H26A 1400   3.448   1.017   8.505 -0.1033 -0.7517  1.8238
   19CHL1  H26B 1401   3.377   0.912   8.378 -0.3124  3.5376 -1.1901
   19CHL1  H26C 1402   3.267   0.984   8.492  0.5474  1.2452 -0.9836
   19CHL1   C27 1403   3.502   0.730   8.536 -0.5566 -0.0964  0.5055
   19CHL1  H27A 1404   3.496   0.624   8.569  0.7758 -0.3526  0.0036
   19CHL1  H27B 1405   3.504   0.723   8.425 -2.3007 -1.3373  0.5129
   19CHL1  H27C 1406   3.591   0.775   8.585 -1.6663  1.9348  0.7613
   20CHL1    C3 1407   0.023   1.974  10.379 -0.4514  0.9020 -0.4160
   20CHL1    H3 1408  -0.018   1.875  10.408  0.5426  0.8427  0.8848
   20CHL1    O3 1409   0.068   2.045  10.496 -0.1072  0.0105 -0.4389
   20CHL1   H3' 1410   0.123   2.110  10.453 -2.2298  0.3855 -2.7979
   20CHL1    C4 1411   0.144   1.956  10.281  0.5869 -0.3841  0.1388
   20CHL1   H4A 1412   0.196   2.053  10.275  0.1742 -0.0653  1.3624
   20CHL1   H4B 1413   0.211   1.883  10.332  0.0934 -1.1568 -0.2868
   20CHL1    C5 1414   0.098   1.898  10.144  0.6198  0.1577 -0.1994
   20CHL1    C6 1415   0.150   1.781  10.087 -0.1908  0.2184 -0.4005
   20CHL1    H6 1416   0.213   1.721  10.153  0.5386  1.8634  0.4729
   20CHL1    C7 1417   0.141   1.729   9.948 -0.3575  0.2219 -0.3518
   20CHL1   H7A 1418   0.242   1.708   9.907  0.3887 -0.8734  1.9308
   20CHL1   H7B 1419   0.085   1.634   9.933  0.1792  0.0849 -1.6391
   20CHL1    C8 1420   0.067   1.839   9.863  0.4926 -0.3636  0.7196
   20CHL1    H8 1421   0.140   1.919   9.838  0.1686 -0.6711 -1.4373
   20CHL1   C14 1422   0.015   1.778   9.736  0.1975  0.2113 -0.1069
   20CHL1   H14 1423  -0.064   1.713   9.779 -0.6167  1.6273  0.6092
   20CHL1   C15 1424   0.107   1.693   9.648  0.0282  0.0593  0.1753
   20CHL1  H15A 1425   0.202   1.751   9.635 -0.2761  0.2519 -1.4346
   20CHL1  H15B 1426   0.128   1.591   9.687 -0.9953 -0.5582 -0.8271
   20CHL1   C16 1427   0.029   1.681   9.515 -0.6787 -0.1486  0.0028
   20CHL1  H16A 1428   0.091   1.731   9.437 -1.9045  0.0776 -0.8644
   20CHL1  H16B 1429   0.004   1.582   9.471 -1.7863 -0.1377  0.5900
   20CHL1   C17 1430  -0.096   1.777   9.527 -0.1884 -0.2067 -0.4014
   20CHL1   H17 1431  -0.184   1.714   9.553  0.6659 -0.1791  2.9408
   20CHL1   C13 1432  -0.067   1.876   9.643 -0.0468  0.4943  0.0925
   20CHL1   C18 1433   0.024   1.993   9.587  0.0079  0.3250  0.1908
   20CHL1  H18A 1434  -0.026   2.069   9.523 -1.2232 -0.5298  0.0946
   20CHL1  H18B 1435   0.060   2.043   9.680 -1.6336  0.1930  0.9492
   20CHL1  H18C 1436   0.112   1.955   9.533  0.8910  1.5856  0.6930
   20CHL1   C12 1437  -0.191   1.933   9.720 -0.7243  0.7039 -0.3278
   20CHL1  H12A 1438  -0.247   2.006   9.657 -1.1808  2.0454  1.5443
   20CHL1  H12B 1439  -0.256   1.845   9.735 -1.1811  1.4429  2.7501
   20CHL1   C11 1440  -0.150   2.002   9.851 -0.0678 -0.6162  0.5290
   20CHL1  H11A 1441  -0.083   2.086   9.822  0.3725 -1.4806 -1.0703
   20CHL1  H11B 1442  -0.228   2.053   9.911  0.5481  1.7373 -0.5380
   20CHL1    C9 1443  -0.056   1.908   9.941 -0.2812  0.4092 -0.2466
   20CHL1    H9 1444  -0.130   1.830   9.971 -1.9906  2.1402  0.2561
   20CHL1   C10 1445  -0.011   1.977  10.073  0.0240 -0.4631 -0.1249
   20CHL1   C19 1446   0.038   2.117  10.038 -0.5839  0.3919  0.1491
   20CHL1  H19A 1447   0.118   2.100   9.962  0.4817 -0.8851  1.4980
   20CHL1  H19B 1448  -0.033   2.183   9.984  0.4828  0.9724 -0.5910
   20CHL1  H19C 1449   0.083   2.167  10.126 -0.4953  1.8773 -0.6996
   20CHL1    C1 1450  -0.121   1.984  10.178  0.7965 -0.2632  0.3718
   20CHL1   H1A 1451  -0.206   2.040  10.133 -0.7877 -1.3171  1.8965
   20CHL1   H1B 1452  -0.160   1.880  10.187  0.1427  0.1023  2.1414
   20CHL1    C2 1453  -0.077   2.056  10.306  0.9039  0.7100 -0.1340
   20CHL1   H2A 1454  -0.164   2.065  10.373 -1.1287  0.5916 -2.5884
   20CHL1   H2B 1455  -0.040   2.160  10.289 -2.1273  1.9794  0.4854
   20CHL1   C20 1456  -0.147   1.834   9.397  1.4329  0.0774 -0.5581
   20CHL1   H20 1457  -0.081   1.916   9.362  2.0186  1.0600  2.5658
   20CHL1   C21 1458  -0.284   1.910   9.419  0.3517 -0.2061  0.1370
   20CHL1  H21A 1459  -0.351   1.875   9.500  0.3904 -1.2070 -0.2547
   20CHL1  H21B 1460  -0.344   1.911   9.326  0.5734  0.1229 -0.0058
   20CHL1  H21C 1461  -0.266   2.015   9.453  0.8349 -0.3191  0.2443
   20CHL1   C22 1462  -0.160   1.727   9.286 -0.4638 -0.2132  1.0475
   20CHL1  H22A 1463  -0.196   1.798   9.208  0.2467 -0.0890  0.8295
   20CHL1  H22B 1464  -0.062   1.693   9.247 -0.3688  0.6687  0.4803
   20CHL1   C23 1465  -0.265   1.618   9.309  0.0541 -0.3525 -0.5999
   20CHL1  H23A 1466  -0.225   1.562   9.397  1.3990  0.9898 -0.3141
   20CHL1  H23B 1467  -0.370   1.652   9.326 -0.2226 -0.2566 -2.3017
   20CHL1   C24 1468  -0.275   1.519   9.197 -0.3764  0.2832 -0.3584
   20CHL1  H24A 1469  -0.171   1.482   9.180 -0.0630 -0.4819  2.7315
   20CHL1  H24B 1470  -0.346   1.442   9.233 -0.2605 -1.3264 -3.2929
   20CHL1   C25 1471  -0.322   1.582   9.067 -0.1040 -0.1656 -0.2760
   20CHL1   H25 1472  -0.240   1.655   9.050  1.8721 -1.9233  1.2074
   20CHL1   C26 1473  -0.319   1.472   8.967  0.3868  0.5698 -0.1304
   20CHL1  H26A 1474  -0.219   1.424   8.953 -0.0977 -0.0105 -1.7345
   20CHL1  H26B 1475  -0.384   1.386   8.992  2.3959 -2.6646 -4.5618
   20CHL1  H26C 1476  -0.346   1.516   8.868 -1.1695  2.8680  1.2103
   20CHL1   C27 1477  -0.457   1.660   9.076 -0.7958  0.4682  0.4752
   20CHL1  H27A 1478  -0.459   1.743   9.150 -0.6786 -0.0249  1.0357
   20CHL1  H27B 1479  -0.465   1.706   8.975  0.3006  0.3019  0.2953
   20CHL1  H27C 1480  -0.543   1.590   9.077  0.7222 -1.6187 -2.0811
   21CHL1    C3 1481   0.975   5.098  10.393 -0.2664  0.0781  0.0399
   21CHL1    H3 1482   0.898   5.165  10.438 -1.1431 -1.7064  1.2850
   21CHL1    O3 1483   1.034   5.028  10.500 -0.0379  0.2054 -0.1446
   21CHL1   H3' 1484   1.094   4.963  10.461  1.7732  1.5769  0.1912
   21CHL1    C4 1485   0.909   5.001  10.302  0.0491  0.2549 -0.1785
   21CHL1   H4A 1486   0.979   4.918  10.278  0.4212 -0.1781  2.1307
   21CHL1   H4B 1487   0.824   4.951  10.353 -0.4992  2.3922  1.1137
   21CHL1    C5 1488   0.864   5.068  10.171 -0.6250 -1.0053 -0.4028
   21CHL1    C6 1489   0.738   5.054  10.132  0.0487  0.6886 -0.2214
   21CHL1    H6 1490   0.670   4.994  10.194  0.9282  0.8330  0.9041
   21CHL1    C7 1491   0.693   5.100  10.004 -0.5901  0.2102  0.0754
   21CHL1   H7A 1492   0.629   5.022   9.957 -1.0092  1.1370 -0.9332
   21CHL1   H7B 1493   0.625   5.186  10.020  0.3252  1.2333 -1.2253
   21CHL1    C8 1494   0.805   5.142   9.908 -0.4813  0.0656 -0.4165
   21CHL1    H8 1495   0.855   5.051   9.867  0.3431  0.6345 -0.6967
   21CHL1   C14 1496   0.742   5.222   9.795  0.4510  0.6091  0.1568
   21CHL1   H14 1497   0.693   5.306   9.849  0.2296 -0.5524  1.8792
   21CHL1   C15 1498   0.628   5.159   9.714  0.3727  0.0485 -0.0479
   21CHL1  H15A 1499   0.644   5.052   9.690 -2.1185 -0.4458  0.2335
   21CHL1  H15B 1500   0.543   5.166   9.784  0.2067 -1.6771 -0.0393
   21CHL1   C16 1501   0.603   5.254   9.601 -0.0525 -0.0422  0.3838
   21CHL1  H16A 1502   0.620   5.196   9.508 -0.1795  0.7391 -0.1432
   21CHL1  H16B 1503   0.505   5.305   9.599  0.4895  1.0113 -0.4833
   21CHL1   C17 1504   0.723   5.359   9.610 -0.0678  0.6890 -0.8299
   21CHL1   H17 1505   0.679   5.439   9.674 -2.5599 -1.9647  1.0228
   21CHL1   C13 1506   0.834   5.287   9.695  0.6098 -0.7507  0.1457
   21CHL1   C18 1507   0.920   5.185   9.615  0.1239 -0.0439 -0.1769
   21CHL1  H18A 1508   0.969   5.235   9.529 -0.9539  0.4189 -0.5431
   21CHL1  H18B 1509   0.988   5.128   9.681  0.4454 -0.7163 -1.0609
   21CHL1  H18C 1510   0.850   5.104   9.583 -0.5258 -0.0902  1.2996
   21CHL1   C12 1511   0.939   5.378   9.776  0.0950 -0.3066  0.4009
   21CHL1  H12A 1512   1.004   5.424   9.698 -0.7665  1.6149  0.7685
   21CHL1  H12B 1513   0.874   5.460   9.813  0.4201 -0.3196  1.0101
   21CHL1   C11 1514   1.012   5.297   9.883  0.0023 -0.0756  0.3782
   21CHL1  H11A 1515   1.070   5.214   9.837 -2.1861 -0.8063 -1.2436
   21CHL1  H11B 1516   1.063   5.374   9.944 -0.1287  1.1546 -1.0129
   21CHL1    C9 1517   0.912   5.226   9.983 -0.4725 -0.3320  0.2371
   21CHL1    H9 1518   0.870   5.320  10.025 -0.2145 -1.1489  2.4890
   21CHL1   C10 1519   0.967   5.152  10.103  0.4008 -0.3999 -0.1705
   21CHL1   C19 1520   1.071   5.055  10.044  0.5711 -0.6229 -0.6811
   21CHL1  H19A 1521   1.163   5.111  10.020 -0.2891  0.5737 -1.3304
   21CHL1  H19B 1522   1.105   4.974  10.112  0.1295 -2.1579 -2.2075
   21CHL1  H19C 1523   1.036   4.997   9.956 -1.6076 -0.3696 -0.0412
   21CHL1    C1 1524   1.018   5.259  10.210  0.0213 -0.3355  0.0887
   21CHL1   H1A 1525   1.084   5.330  10.156 -0.1987 -0.9106 -0.9561
   21CHL1   H1B 1526   0.948   5.336  10.249 -0.6539 -0.0024 -1.6749
   21CHL1    C2 1527   1.080   5.183  10.324 -0.5262 -0.1012 -0.5949
   21CHL1   H2A 1528   1.123   5.254  10.398 -1.3311 -0.4302  0.2177
   21CHL1   H2B 1529   1.169   5.129  10.285  0.6352  1.1781  0.2030
   21CHL1   C20 1530   0.756   5.425   9.474  0.2299 -0.6131 -0.4122
   21CHL1   H20 1531   0.841   5.492   9.499 -1.1670 -0.0141  3.4436
   21CHL1   C21 1532   0.646   5.520   9.434  0.2058 -0.0207 -0.2189
   21CHL1  H21A 1533   0.612   5.591   9.512 -0.8621  0.4466 -1.0900
   21CHL1  H21B 1534   0.557   5.464   9.399  0.3821  1.2642 -2.9967
   21CHL1  H21C 1535   0.671   5.578   9.343 -2.0639 -0.2833 -1.0722
   21CHL1   C22 1536   0.782   5.334   9.352 -0.0680  0.3979 -1.0659
   21CHL1  H22A 1537   0.845   5.246   9.379 -1.2713 -0.0376  0.4327
   21CHL1  H22B 1538   0.685   5.301   9.310 -1.1773  1.5834  0.4745
   21CHL1   C23 1539   0.862   5.402   9.241 -0.2006 -0.0782  0.1099
   21CHL1  H23A 1540   0.801   5.473   9.182  0.1597  0.7453  0.7055
   21CHL1  H23B 1541   0.952   5.455   9.280 -0.0753 -2.3634  3.2927
   21CHL1   C24 1542   0.912   5.297   9.143 -0.7601  0.0798 -0.2545
   21CHL1  H24A 1543   0.981   5.231   9.199 -1.5571 -0.0588  0.6006
   21CHL1  H24B 1544   0.842   5.220   9.103 -0.8758 -0.6411  1.2463
   21CHL1   C25 1545   0.995   5.367   9.033 -0.1896 -0.5177  0.7224
   21CHL1   H25 1546   1.058   5.445   9.081 -2.4952  1.9514  0.0350
   21CHL1   C26 1547   1.091   5.272   8.956  0.3857  0.2794  0.5411
   21CHL1  H26A 1548   1.165   5.311   8.882  0.2567 -1.4557 -0.5522
   21CHL1  H26B 1549   1.153   5.248   9.045 -0.3519  1.2056  1.3224
   21CHL1  H26C 1550   1.038   5.182   8.919 -0.9058  0.6352  1.4539
   21CHL1   C27 1551   0.917   5.442   8.931  0.1644 -0.0923  0.3613
   21CHL1  H27A 1552   0.872   5.377   8.853  1.8310  1.2207 -1.7943
   21CHL1  H27B 1553   0.846   5.507   8.986  2.2936  1.4723  1.3919
   21CHL1  H27C 1554   0.989   5.505   8.875  0.3561 -0.3015  0.3679
   22CHL1    C3 1555   2.141   5.963  10.134 -0.1197 -0.1448  0.3770
   22CHL1    H3 1556   2.226   5.892  10.130  1.8612  2.1174  0.1330
   22CHL1    O3 1557   2.133   6.024  10.267 -0.2056  0.0208 -0.2771
   22CHL1   H3' 1558   2.077   5.962  10.314 -0.2712  1.1123  1.1653
   22CHL1    C4 1559   2.176   6.078  10.034 -0.2499 -0.5166 -0.2439
   22CHL1   H4A 1560   2.109   6.165  10.020  0.7188  0.2322 -0.2693
   22CHL1   H4B 1561   2.271   6.113  10.080 -1.2709 -0.8479  2.3012
   22CHL1    C5 1562   2.192   6.023   9.894  1.2102 -0.0416  0.2770
   22CHL1    C6 1563   2.310   6.029   9.830 -0.5047  0.0450 -0.0585
   22CHL1    H6 1564   2.396   6.072   9.881  2.4663 -2.7970 -2.2474
   22CHL1    C7 1565   2.338   5.982   9.688 -0.4153  0.4602 -0.8373
   22CHL1   H7A 1566   2.407   6.054   9.638  0.5235  0.1995  0.0510
   22CHL1   H7B 1567   2.398   5.889   9.696 -1.1865  0.0808  1.1543
   22CHL1    C8 1568   2.203   5.962   9.617 -0.0369  0.2394 -0.2742
   22CHL1    H8 1569   2.164   6.064   9.602  1.2586  0.7133 -0.5787
   22CHL1   C14 1570   2.224   5.880   9.485  0.1369  0.0446  0.6138
   22CHL1   H14 1571   2.266   5.780   9.510  0.5430 -0.3762 -1.5985
   22CHL1   C15 1572   2.313   5.943   9.385  0.0123  0.2255 -0.0047
   22CHL1  H15A 1573   2.288   6.050   9.369 -0.7748 -0.0601 -0.7628
   22CHL1  H15B 1574   2.418   5.927   9.419 -0.8979 -4.5633  1.2794
   22CHL1   C16 1575   2.293   5.866   9.253  0.5685  0.8906 -0.5106
   22CHL1  H16A 1576   2.290   5.946   9.176 -0.5982  1.1662 -0.2102
   22CHL1  H16B 1577   2.366   5.783   9.243 -1.2686 -0.8749 -0.0443
   22CHL1   C17 1578   2.145   5.805   9.266 -0.2929 -0.8851 -0.2915
   22CHL1   H17 1579   2.164   5.700   9.296  0.1078 -0.5589  0.6364
   22CHL1   C13 1580   2.095   5.866   9.405  0.1676  0.7063 -0.2291
   22CHL1   C18 1581   2.030   6.000   9.369 -0.1463 -0.5354 -0.4397
   22CHL1  H18A 1582   2.010   6.051   9.466  0.7244 -3.9332  1.6763
   22CHL1  H18B 1583   2.097   6.067   9.310  0.9765 -0.1368  1.2168
   22CHL1  H18C 1584   1.930   5.989   9.322 -1.7630  0.3812  2.4828
   22CHL1   C12 1585   1.999   5.780   9.480 -0.6872 -0.5531 -0.3190
   22CHL1  H12A 1586   1.901   5.766   9.429  0.0894 -3.0896 -1.2677
   22CHL1  H12B 1587   2.046   5.680   9.481  1.1569  0.2773  0.2027
   22CHL1   C11 1588   1.983   5.827   9.620  0.0229  0.4178 -0.6525
   22CHL1  H11A 1589   1.907   5.908   9.614 -0.9872 -0.5968 -2.5007
   22CHL1  H11B 1590   1.933   5.749   9.681 -1.7865  1.9197 -0.1209
   22CHL1    C9 1591   2.108   5.873   9.709  0.1304 -0.4085 -0.0252
   22CHL1    H9 1592   2.154   5.777   9.740 -1.9019 -0.8580  1.8828
   22CHL1   C10 1593   2.072   5.952   9.835 -0.1699  0.2012  0.0095
   22CHL1   C19 1594   1.956   6.052   9.822  0.5679  0.0534  0.5203
   22CHL1  H19A 1595   1.955   6.105   9.920  2.4173  2.3396 -0.5989
   22CHL1  H19B 1596   1.977   6.131   9.746 -0.1845 -0.1275  0.1111
   22CHL1  H19C 1597   1.862   6.003   9.789  0.0965  1.0706  0.3160
   22CHL1    C1 1598   2.020   5.849   9.946  0.3354 -0.1134  0.5905
   22CHL1   H1A 1599   1.919   5.817   9.911  0.6905 -0.7572  0.1455
   22CHL1   H1B 1600   2.091   5.764   9.937  3.3447  2.3992 -1.6178
   22CHL1    C2 1601   2.013   5.896  10.088 -0.3691  0.4250 -0.4560
   22CHL1   H2A 1602   1.995   5.812  10.159  0.2699  2.2545  1.9892
   22CHL1   H2B 1603   1.930   5.968  10.104 -0.5917  0.8508 -3.0380
   22CHL1   C20 1604   2.061   5.791   9.132  0.4233 -0.2674 -0.0088
   22CHL1   H20 1605   2.026   5.894   9.108  0.6121  0.0641  1.1167
   22CHL1   C21 1606   1.933   5.703   9.146 -0.2007  0.2992 -0.3680
   22CHL1  H21A 1607   1.863   5.745   9.222  2.2282  1.8042  1.1788
   22CHL1  H21B 1608   1.962   5.600   9.177 -0.9523 -0.1457 -1.0883
   22CHL1  H21C 1609   1.875   5.692   9.052 -0.5619  1.0666 -0.2404
   22CHL1   C22 1610   2.148   5.754   9.010  0.7463 -0.0419 -0.2819
   22CHL1  H22A 1611   2.095   5.757   8.912  1.3092 -2.3845 -0.7258
   22CHL1  H22B 1612   2.229   5.829   8.994 -0.3849  0.9502 -1.6801
   22CHL1   C23 1613   2.206   5.611   9.010 -0.4386 -0.5590  0.1238
   22CHL1  H23A 1614   2.283   5.604   9.090  0.4881  0.6901 -0.6303
   22CHL1  H23B 1615   2.122   5.540   9.024 -0.9947 -0.3930 -2.1007
   22CHL1   C24 1616   2.271   5.580   8.873 -0.0031 -0.0114  0.8886
   22CHL1  H24A 1617   2.193   5.574   8.793  0.5298  1.7413  0.1945
   22CHL1  H24B 1618   2.340   5.663   8.851 -0.6787  1.2964  3.3498
   22CHL1   C25 1619   2.349   5.443   8.850  0.4690 -0.3994 -0.2419
   22CHL1   H25 1620   2.435   5.445   8.920 -0.7431 -0.8184  1.3120
   22CHL1   C26 1621   2.249   5.324   8.889 -1.0088  0.2123  0.4647
   22CHL1  H26A 1622   2.193   5.300   8.796 -0.1769 -1.2889  0.3169
   22CHL1  H26B 1623   2.306   5.232   8.913 -0.2058  0.1276 -1.5287
   22CHL1  H26C 1624   2.187   5.339   8.979 -2.9505  1.1978 -0.9672
   22CHL1   C27 1625   2.397   5.427   8.706  0.5733 -0.5832  1.3182
   22CHL1  H27A 1626   2.456   5.514   8.670  0.2694 -0.3177  1.4575
   22CHL1  H27B 1627   2.449   5.329   8.695 -1.7201 -1.7089 -0.5312
   22CHL1  H27C 1628   2.302   5.421   8.649  0.5850 -1.5110  1.3798
   23CHL1    C3 1629   3.871   0.229  10.239  0.0593  0.1833 -0.2337
   23CHL1    H3 1630   3.923   0.326  10.222  1.9987 -0.4639  1.5245
   23CHL1    O3 1631   3.873   0.192  10.372 -0.4250 -0.2540  0.5286
   23CHL1   H3' 1632   3.843   0.101  10.361 -1.2991  0.2489 -1.8975
   23CHL1    C4 1633   3.732   0.221  10.175  0.5657 -0.0766  0.6121
   23CHL1   H4A 1634   3.711   0.113  10.186 -2.4357  0.5954  2.4561
   23CHL1   H4B 1635   3.655   0.278  10.231 -0.3807  0.7006 -1.3704
   23CHL1    C5 1636   3.729   0.261  10.032  0.0881 -0.1004  0.4629
   23CHL1    C6 1637   3.641   0.358   9.985 -0.6218  0.3162  0.0525
   23CHL1    H6 1638   3.584   0.407  10.065 -1.1921  0.9142 -0.7163
   23CHL1    C7 1639   3.632   0.397   9.844 -0.4068  0.4864  0.6876
   23CHL1   H7A 1640   3.527   0.411   9.808 -0.0132 -0.4818 -0.9726
   23CHL1   H7B 1641   3.673   0.499   9.833 -0.2799  0.2983 -0.7764
   23CHL1    C8 1642   3.704   0.296   9.747  0.9829 -0.3098  0.2097
   23CHL1    H8 1643   3.646   0.203   9.733 -0.8436  1.0398 -2.1253
   23CHL1   C14 1644   3.718   0.359   9.612  0.9848 -0.2293  0.3969
   23CHL1   H14 1645   3.780   0.450   9.629  0.6475 -0.3384  2.5178
   23CHL1   C15 1646   3.591   0.421   9.545  0.3086 -0.3370  0.1894
   23CHL1  H15A 1647   3.507   0.348   9.540 -0.8758  1.0369 -1.1189
   23CHL1  H15B 1648   3.556   0.521   9.579  0.9624  0.0969 -0.3953
   23CHL1   C16 1649   3.626   0.432   9.392  0.3655 -0.5173  0.3708
   23CHL1  H16A 1650   3.544   0.381   9.338  0.4070 -0.7677  0.5423
   23CHL1  H16B 1651   3.646   0.538   9.364  0.1042 -0.6994 -0.5328
   23CHL1   C17 1652   3.755   0.347   9.379  0.0322  0.2987 -0.0467
   23CHL1   H17 1653   3.833   0.425   9.368  1.4381 -0.8181  1.4629
   23CHL1   C13 1654   3.782   0.268   9.509  0.6396  0.0496  0.4412
   23CHL1   C18 1655   3.719   0.130   9.489  0.4286  0.2882 -0.7031
   23CHL1  H18A 1656   3.770   0.069   9.412 -0.8377  0.2705 -1.5461
   23CHL1  H18B 1657   3.731   0.058   9.573 -2.1800 -0.7673 -1.1548
   23CHL1  H18C 1658   3.612   0.144   9.464 -0.4766 -1.5571  1.7393
   23CHL1   C12 1659   3.928   0.247   9.552 -0.4013 -0.0076  0.4558
   23CHL1  H12A 1660   3.966   0.164   9.489 -2.5646 -0.9026  0.2336
   23CHL1  H12B 1661   3.992   0.338   9.547  0.4167 -0.5127  1.5245
   23CHL1   C11 1662   3.932   0.187   9.691 -0.4769  0.2373  0.1816
   23CHL1  H11A 1663   3.904   0.080   9.679 -0.3658  0.4379 -2.2754
   23CHL1  H11B 1664   4.036   0.189   9.731 -0.2527  0.2139 -0.3898
   23CHL1    C9 1665   3.842   0.256   9.796  0.6720 -0.5524 -0.3533
   23CHL1    H9 1666   3.889   0.356   9.814  2.1285 -0.8786 -2.1210
   23CHL1   C10 1667   3.826   0.185   9.934 -0.3629  0.0881 -0.6493
   23CHL1   C19 1668   3.768   0.042   9.920  0.0969  0.7395 -0.2081
   23CHL1  H19A 1669   3.777  -0.019  10.012 -1.4547 -0.2007 -0.6468
   23CHL1  H19B 1670   3.659   0.047   9.898 -0.0315  0.8302  0.4398
   23CHL1  H19C 1671   3.819  -0.021   9.844  0.4262 -1.3780  1.6581
   23CHL1    C1 1672   3.959   0.176  10.008  0.7947  0.3589  0.0463
   23CHL1   H1A 1673   4.036   0.115   9.958 -0.1264 -0.5363 -0.3146
   23CHL1   H1B 1674   4.006   0.277  10.000 -0.0436  1.1291  3.3209
   23CHL1    C2 1675   3.953   0.131  10.153  0.2632  0.5294 -0.2518
   23CHL1   H2A 1676   4.058   0.138  10.188 -0.6131  0.4275  2.6453
   23CHL1   H2B 1677   3.906   0.031  10.152 -3.2705  1.9876  1.5214
   23CHL1   C20 1678   3.766   0.268   9.242 -0.5009  0.4206  0.1895
   23CHL1   H20 1679   3.698   0.180   9.242 -0.5074  0.3851 -1.4289
   23CHL1   C21 1680   3.918   0.226   9.218  1.4864 -0.0945 -0.7101
   23CHL1  H21A 1681   3.972   0.161   9.290  3.2618  1.9391 -0.0961
   23CHL1  H21B 1682   3.975   0.321   9.217  1.9214 -0.2263  2.7358
   23CHL1  H21C 1683   3.925   0.182   9.116  2.1545  2.0792 -1.6615
   23CHL1   C22 1684   3.724   0.352   9.121  0.4251  0.1134  0.6943
   23CHL1  H22A 1685   3.627   0.404   9.136 -0.8042 -2.1296  0.9776
   23CHL1  H22B 1686   3.804   0.429   9.123  2.0729 -1.3652 -1.8263
   23CHL1   C23 1687   3.714   0.278   8.986  0.6270  0.3901  0.5963
   23CHL1  H23A 1688   3.812   0.232   8.959  0.8288  0.3055  1.4246
   23CHL1  H23B 1689   3.631   0.206   8.997 -0.3094  1.3026 -0.2379
   23CHL1   C24 1690   3.680   0.367   8.860 -0.4120 -0.0008 -0.2335
   23CHL1  H24A 1691   3.651   0.303   8.774  1.5228 -2.2876  0.7128
   23CHL1  H24B 1692   3.602   0.440   8.891 -0.9844 -0.0063 -1.5722
   23CHL1   C25 1693   3.791   0.469   8.831 -0.5271 -0.4844  0.1274
   23CHL1   H25 1694   3.831   0.504   8.929  1.5920 -0.1487 -0.8143
   23CHL1   C26 1695   3.910   0.399   8.767 -0.4341  0.2175  0.2132
   23CHL1  H26A 1696   3.869   0.347   8.678  0.1035 -0.8449  0.5698
   23CHL1  H26B 1697   3.982   0.470   8.721  0.2874  0.0650  1.0832
   23CHL1  H26C 1698   3.971   0.335   8.834 -0.9696  0.0351  0.5347
   23CHL1   C27 1699   3.738   0.593   8.747 -0.7324 -0.2799 -0.1066
   23CHL1  H27A 1700   3.649   0.630   8.802  0.2962 -0.3944  1.6790
   23CHL1  H27B 1701   3.819   0.669   8.747  0.6377 -1.6879 -0.2442
   23CHL1  H27C 1702   3.714   0.565   8.642 -1.2507  0.4014 -0.1763
   24CHL1    C3 1703   4.643   2.198   9.936  0.1395 -0.1530  0.2325
   24CHL1    H3 1704   4.593   2.297   9.932 -1.0674 -0.7585 -0.3990
   24CHL1    O3 1705   4.662   2.152  10.072  0.2816 -0.0198 -0.2929
   24CHL1   H3' 1706   4.685   2.059  10.068 -0.3651 -0.1672 -0.7199
   24CHL1    C4 1707   4.553   2.097   9.859  0.1930  0.5850  0.2900
   24CHL1   H4A 1708   4.585   1.996   9.891  2.4160  1.0967 -0.0765
   24CHL1   H4B 1709   4.449   2.110   9.893 -0.0294 -2.2831  0.9203
   24CHL1    C5 1710   4.554   2.104   9.708  0.0096 -0.1406 -0.1784
   24CHL1    C6 1711   4.437   2.105   9.639  0.4708 -0.3364 -0.7171
   24CHL1    H6 1712   4.349   2.104   9.705  0.9469 -0.2162 -0.0667
   24CHL1    C7 1713   4.433   2.118   9.489 -0.1783  0.1422 -0.1216
   24CHL1   H7A 1714   4.366   2.038   9.452 -1.2974  0.6353  0.7764
   24CHL1   H7B 1715   4.386   2.217   9.468 -0.3860  0.7199  2.6398
   24CHL1    C8 1716   4.570   2.116   9.420 -0.4281  0.2282 -0.5697
   24CHL1    H8 1717   4.606   2.011   9.420  1.4868  0.8065 -2.6200
   24CHL1   C14 1718   4.557   2.179   9.287  0.1614  0.1686  0.0983
   24CHL1   H14 1719   4.526   2.284   9.305 -1.1947  0.1033 -1.6501
   24CHL1   C15 1720   4.431   2.142   9.205  0.0181  0.5035 -0.6232
   24CHL1  H15A 1721   4.406   2.034   9.198 -0.9864  0.7578 -1.1762
   24CHL1  H15B 1722   4.334   2.184   9.239 -0.1915  0.2582 -0.9135
   24CHL1   C16 1723   4.474   2.196   9.069 -0.3265 -0.7633  0.5922
   24CHL1  H16A 1724   4.471   2.121   8.987  1.1194  0.0054 -0.2262
   24CHL1  H16B 1725   4.413   2.286   9.047  0.9055  0.0868  0.5488
   24CHL1   C17 1726   4.625   2.235   9.075  0.5315  0.3198  0.1899
   24CHL1   H17 1727   4.640   2.343   9.095 -0.1337  0.0488  2.3757
   24CHL1   C13 1728   4.682   2.172   9.200 -0.7738 -1.2495 -0.1558
   24CHL1   C18 1729   4.715   2.022   9.182  0.7846  0.2605 -0.0054
   24CHL1  H18A 1730   4.634   1.954   9.147 -0.0507  0.4263  1.5302
   24CHL1  H18B 1731   4.793   1.998   9.107  0.3592 -1.7324  0.1363
   24CHL1  H18C 1732   4.760   1.985   9.277  2.0171  2.5916  0.4089
   24CHL1   C12 1733   4.796   2.253   9.274 -0.3758 -0.0215  0.1802
   24CHL1  H12A 1734   4.895   2.240   9.224 -0.6880 -2.6746  0.1061
   24CHL1  H12B 1735   4.763   2.359   9.283 -0.6530 -0.1624  0.8455
   24CHL1   C11 1736   4.816   2.193   9.411 -0.8860 -0.5333 -0.1706
   24CHL1  H11A 1737   4.859   2.091   9.401  2.9419  0.9822 -0.7862
   24CHL1  H11B 1738   4.887   2.258   9.465 -1.5615 -1.1825  1.5852
   24CHL1    C9 1739   4.680   2.191   9.499 -0.5575  0.7135 -0.0504
   24CHL1    H9 1740   4.649   2.296   9.518  0.3963  1.2721 -1.4414
   24CHL1   C10 1741   4.698   2.135   9.642 -0.1752  0.4743  0.1183
   24CHL1   C19 1742   4.783   2.007   9.636 -0.4905  0.6859 -0.3030
   24CHL1  H19A 1743   4.728   1.925   9.587  1.9182 -0.1184 -1.8585
   24CHL1  H19B 1744   4.886   2.024   9.597  0.1292  0.8610  1.3149
   24CHL1  H19C 1745   4.804   1.973   9.740 -0.6112 -0.0303 -0.5103
   24CHL1    C1 1746   4.776   2.239   9.727  0.5212 -0.0792 -0.0571
   24CHL1   H1A 1747   4.879   2.239   9.685  0.5090 -0.9058 -0.1166
   24CHL1   H1B 1748   4.746   2.343   9.705  1.3814  0.1319 -0.2752
   24CHL1    C2 1749   4.787   2.212   9.875  0.1244  0.8108  1.0233
   24CHL1   H2A 1750   4.839   2.290   9.935 -0.4841  0.2832  2.2705
   24CHL1   H2B 1751   4.837   2.117   9.902  0.4861  1.3274  2.1983
   24CHL1   C20 1752   4.697   2.213   8.935  0.0772 -0.2523 -0.2400
   24CHL1   H20 1753   4.689   2.108   8.899 -1.5301  0.4503 -2.1582
   24CHL1   C21 1754   4.852   2.251   8.943  0.0142 -0.1961  1.0171
   24CHL1  H21A 1755   4.901   2.260   8.843 -0.0842  0.4120  1.0205
   24CHL1  H21B 1756   4.925   2.187   8.997  0.4759  2.2985  3.5310
   24CHL1  H21C 1757   4.849   2.352   8.988  0.9885 -0.1541  1.0097
   24CHL1   C22 1758   4.628   2.290   8.816 -0.4898 -0.0478  0.7938
   24CHL1  H22A 1759   4.519   2.272   8.824 -1.1085  2.0643 -1.5706
   24CHL1  H22B 1760   4.640   2.401   8.826  2.2894 -0.0468 -1.2760
   24CHL1   C23 1761   4.671   2.241   8.677  0.1663  0.0695 -0.1147
   24CHL1  H23A 1762   4.771   2.280   8.645 -0.5913  1.7770 -0.5585
   24CHL1  H23B 1763   4.668   2.131   8.687 -2.2634  0.1533  0.9034
   24CHL1   C24 1764   4.576   2.265   8.555 -0.7752 -0.2497 -0.1297
   24CHL1  H24A 1765   4.484   2.204   8.541  0.4763 -2.1322 -0.4815
   24CHL1  H24B 1766   4.550   2.374   8.555  1.8460  0.4917 -2.7107
   24CHL1   C25 1767   4.655   2.245   8.426  0.3654  0.0596  0.5973
   24CHL1   H25 1768   4.757   2.289   8.419 -0.1557  1.0150 -1.9907
   24CHL1   C26 1769   4.683   2.097   8.383 -0.1367  0.3415  0.5618
   24CHL1  H26A 1770   4.592   2.043   8.350 -1.3321  2.6029 -0.0697
   24CHL1  H26B 1771   4.761   2.108   8.304  0.1547 -0.1290  0.7762
   24CHL1  H26C 1772   4.728   2.032   8.461  2.3533  0.2506 -0.8153
   24CHL1   C27 1773   4.574   2.314   8.312 -0.6272 -0.8212 -0.1628
   24CHL1  H27A 1774   4.578   2.423   8.336  0.7610 -0.5468 -1.5240
   24CHL1  H27B 1775   4.625   2.305   8.214 -1.6471 -0.8657 -0.7108
   24CHL1  H27C 1776   4.470   2.280   8.291 -2.3825  2.5155  2.1109
   25CHL1    C3 1777   4.798   2.544  10.152 -0.4057 -0.0193  0.3021
   25CHL1    H3 1778   4.784   2.435  10.133 -0.7327  0.2109 -0.8266
   25CHL1    O3 1779   4.760   2.580  10.284  0.3593  0.6839 -0.0132
   25CHL1   H3' 1780   4.810   2.661  10.300  2.8722 -0.6514 -0.5662
   25CHL1    C4 1781   4.945   2.577  10.131  0.8020 -0.1085 -0.2822
   25CHL1   H4A 1782   4.970   2.680  10.163  1.5621 -0.4133  0.1356
   25CHL1   H4B 1783   5.001   2.508  10.198  0.7276  0.1005 -0.0022
   25CHL1    C5 1784   4.984   2.570   9.991 -0.0354  0.9225  0.6207
   25CHL1    C6 1785   5.087   2.490   9.957  0.0257  0.2356 -0.2420
   25CHL1    H6 1786   5.127   2.435  10.044  1.1376 -0.6148 -1.2559
   25CHL1    C7 1787   5.139   2.476   9.818 -0.5649 -0.1831 -0.3480
   25CHL1   H7A 1788   5.247   2.503   9.826 -0.5618 -0.4347  0.6243
   25CHL1   H7B 1789   5.124   2.379   9.767 -0.0019  0.0216 -0.9171
   25CHL1    C8 1790   5.096   2.585   9.716  0.1279 -0.3190  0.8252
   25CHL1    H8 1791   5.141   2.684   9.740  2.5169 -1.0898 -0.2366
   25CHL1   C14 1792   5.123   2.535   9.567  0.3859 -0.3225  0.4452
   25CHL1   H14 1793   5.059   2.445   9.559  1.4111 -1.0585  0.3136
   25CHL1   C15 1794   5.265   2.502   9.530  0.1903  0.0977  0.1545
   25CHL1  H15A 1795   5.341   2.573   9.570  0.5110  1.7294 -2.9990
   25CHL1  H15B 1796   5.294   2.401   9.565 -1.9045  0.4455  3.3649
   25CHL1   C16 1797   5.274   2.502   9.381  1.0448  0.6103 -0.0200
   25CHL1  H16A 1798   5.353   2.571   9.345  0.7175  0.3039 -1.3665
   25CHL1  H16B 1799   5.298   2.403   9.338  0.6593  0.6290 -0.2773
   25CHL1   C17 1800   5.129   2.551   9.337 -0.0658  0.2341  0.1732
   25CHL1   H17 1801   5.060   2.466   9.319  0.0907  0.5893 -2.5488
   25CHL1   C13 1802   5.070   2.625   9.458 -0.3619 -0.1362 -0.2021
   25CHL1   C18 1803   5.114   2.763   9.469 -0.8305 -0.9890  0.1233
   25CHL1  H18A 1804   5.097   2.795   9.574  0.2142  1.9823 -0.4919
   25CHL1  H18B 1805   5.222   2.776   9.443 -0.8131  1.1722  1.0145
   25CHL1  H18C 1806   5.059   2.837   9.407 -2.5550 -1.2952  1.2434
   25CHL1   C12 1807   4.913   2.616   9.483  0.4013  0.0021 -0.2400
   25CHL1  H12A 1808   4.845   2.665   9.410 -2.3013 -2.6724  0.3164
   25CHL1  H12B 1809   4.878   2.512   9.472  0.5976 -0.0984  0.0643
   25CHL1   C11 1810   4.872   2.666   9.626  0.8352 -0.0124 -0.0779
   25CHL1  H11A 1811   4.901   2.772   9.638 -1.8242  0.9668 -1.6224
   25CHL1  H11B 1812   4.762   2.651   9.628  0.9911 -1.3965 -0.4788
   25CHL1    C9 1813   4.937   2.594   9.747 -0.3859  0.4345 -0.5374
   25CHL1    H9 1814   4.909   2.487   9.739 -0.0597  0.1655  1.4352
   25CHL1   C10 1815   4.898   2.645   9.887 -0.4768  0.7653 -0.3172
   25CHL1   C19 1816   4.916   2.796   9.893  0.5175  0.4098 -0.4419
   25CHL1  H19A 1817   4.849   2.845   9.819  1.3167 -0.7952 -2.0295
   25CHL1  H19B 1818   4.892   2.840   9.992 -0.4669 -1.6258  0.2822
   25CHL1  H19C 1819   5.018   2.829   9.862 -0.2119  0.6455 -2.7914
   25CHL1    C1 1820   4.749   2.622   9.914  0.2177  0.2927 -0.1499
   25CHL1   H1A 1821   4.690   2.691   9.850  1.4420  0.6998 -0.8868
   25CHL1   H1B 1822   4.734   2.518   9.876  1.2635 -0.1460  0.6081
   25CHL1    C2 1823   4.709   2.635  10.061  0.0610 -0.1149  0.8885
   25CHL1   H2A 1824   4.600   2.616  10.066  0.2484 -1.4784  0.2888
   25CHL1   H2B 1825   4.721   2.741  10.090 -0.3808  0.0657  0.4293
   25CHL1   C20 1826   5.127   2.626   9.202  0.1706 -0.1516 -1.0586
   25CHL1   H20 1827   5.200   2.710   9.212 -0.8979  0.7169 -0.2813
   25CHL1   C21 1828   4.986   2.690   9.182  0.7147  0.1334 -0.1836
   25CHL1  H21A 1829   4.953   2.770   9.251 -0.8429 -0.1364 -0.5803
   25CHL1  H21B 1830   4.905   2.614   9.178  0.7824  0.0744 -0.4498
   25CHL1  H21C 1831   4.978   2.734   9.080  1.6136 -1.6681 -1.0806
   25CHL1   C22 1832   5.181   2.536   9.083  0.7303  0.1700 -0.1634
   25CHL1  H22A 1833   5.284   2.505   9.112  0.2912 -0.4089  0.8235
   25CHL1  H22B 1834   5.109   2.452   9.085 -0.2526  0.9367 -1.4224
   25CHL1   C23 1835   5.188   2.607   8.947 -0.0148  0.7276 -0.2073
   25CHL1  H23A 1836   5.246   2.544   8.876 -0.3021 -0.5704  0.6613
   25CHL1  H23B 1837   5.082   2.610   8.914 -0.4946 -1.2850  0.9824
   25CHL1   C24 1838   5.235   2.753   8.940  0.1344 -0.5690  0.4124
   25CHL1  H24A 1839   5.157   2.807   8.998 -0.0619 -1.1963  0.7475
   25CHL1  H24B 1840   5.331   2.770   8.993 -0.9381  1.1318  1.9187
   25CHL1   C25 1841   5.254   2.821   8.805 -0.4501 -0.6986 -1.0534
   25CHL1   H25 1842   5.205   2.750   8.735 -0.5857  0.0009 -1.6814
   25CHL1   C26 1843   5.173   2.953   8.799 -1.0467 -0.5460 -0.4231
   25CHL1  H26A 1844   5.219   3.016   8.878 -0.9958 -2.7027  1.3738
   25CHL1  H26B 1845   5.180   3.009   8.703 -4.2393  0.6493 -0.0764
   25CHL1  H26C 1846   5.065   2.943   8.820 -1.4037  2.1855 -0.5397
   25CHL1   C27 1847   5.397   2.843   8.764 -0.2424 -0.3052  0.0607
   25CHL1  H27A 1848   5.453   2.902   8.839 -1.1083  2.4734 -1.3507
   25CHL1  H27B 1849   5.438   2.740   8.771 -1.7599 -1.1131 -1.8576
   25CHL1  H27C 1850   5.405   2.879   8.659 -1.0012 -0.1610  0.0528
   26CHL1    C3 1851   0.797   6.364  10.239 -0.0564 -0.2300  0.7806
   26CHL1    H3 1852   0.905   6.355  10.215  0.7931  1.1628  3.6757
   26CHL1    O3 1853   0.800   6.386  10.379 -0.1696 -0.0134 -0.2080
   26CHL1   H3' 1854   0.713   6.422  10.400 -0.0015  2.3210 -2.8407
   26CHL1    C4 1855   0.745   6.490  10.169  0.4993 -0.2270 -0.3835
   26CHL1   H4A 1856   0.642   6.521  10.198  0.2392 -0.6600 -0.8242
   26CHL1   H4B 1857   0.800   6.583  10.194  2.3090 -0.6636 -2.4154
   26CHL1    C5 1858   0.756   6.471  10.020 -0.2263  0.5617  0.1352
   26CHL1    C6 1859   0.836   6.554   9.944  0.4544 -0.1483 -0.2722
   26CHL1    H6 1860   0.885   6.642   9.989  0.5342 -0.5719  0.4864
   26CHL1    C7 1861   0.855   6.530   9.803 -0.5423  0.2835  0.4955
   26CHL1   H7A 1862   0.857   6.626   9.746  1.3641  0.3903  0.6734
   26CHL1   H7B 1863   0.957   6.489   9.788 -1.1751 -1.6494  1.2566
   26CHL1    C8 1864   0.738   6.454   9.732  0.0806  0.1414 -0.3041
   26CHL1    H8 1865   0.653   6.525   9.732 -0.1492 -0.1108  0.8483
   26CHL1   C14 1866   0.778   6.415   9.590 -0.7022  1.1946  0.1831
   26CHL1   H14 1867   0.871   6.356   9.600 -0.5716  1.2114 -0.8069
   26CHL1   C15 1868   0.844   6.518   9.495  0.3308  0.8679 -0.0647
   26CHL1  H15A 1869   0.783   6.611   9.502 -0.5369  0.2378  1.1812
   26CHL1  H15B 1870   0.947   6.536   9.532 -0.2263 -1.2181  2.8736
   26CHL1   C16 1871   0.836   6.465   9.356  0.4055  0.0137 -0.2336
   26CHL1  H16A 1872   0.781   6.532   9.287 -1.5752 -1.7913 -0.5183
   26CHL1  H16B 1873   0.938   6.432   9.326  0.1294 -0.8987 -0.2094
   26CHL1   C17 1874   0.756   6.330   9.376  0.1050 -0.0982  1.0028
   26CHL1   H17 1875   0.827   6.244   9.377 -0.2227 -0.4656 -1.3372
   26CHL1   C13 1876   0.678   6.341   9.508 -0.3957  0.0489  0.6251
   26CHL1   C18 1877   0.560   6.427   9.483  0.5353 -0.0505 -0.0268
   26CHL1  H18A 1878   0.521   6.464   9.580 -1.2214  0.1227 -0.7528
   26CHL1  H18B 1879   0.582   6.519   9.424 -0.4318  0.0113 -0.3095
   26CHL1  H18C 1880   0.481   6.369   9.431  1.6290 -0.3928 -1.3818
   26CHL1   C12 1881   0.661   6.213   9.586  0.2233 -0.1666  0.2857
   26CHL1  H12A 1882   0.594   6.143   9.532 -1.0928  0.7497  0.6750
   26CHL1  H12B 1883   0.756   6.156   9.585 -0.1893 -0.8986  1.1609
   26CHL1   C11 1884   0.614   6.231   9.731 -0.3997  0.2400 -0.1642
   26CHL1  H11A 1885   0.508   6.264   9.718 -0.1396  0.0369 -3.4312
   26CHL1  H11B 1886   0.604   6.137   9.789  1.2542  0.0263 -0.1984
   26CHL1    C9 1887   0.708   6.334   9.809  0.3687 -0.3820 -0.4393
   26CHL1    H9 1888   0.802   6.275   9.802  0.6933 -0.1512  1.5753
   26CHL1   C10 1889   0.671   6.355   9.960 -1.2181  0.2984  0.5024
   26CHL1   C19 1890   0.524   6.379   9.988  0.8185 -0.2286  0.5804
   26CHL1  H19A 1891   0.494   6.465   9.925 -0.3952 -2.1723 -1.6610
   26CHL1  H19B 1892   0.455   6.299   9.953 -2.4727  2.1313  1.2132
   26CHL1  H19C 1893   0.501   6.384  10.097  2.8353 -0.1940  1.0537
   26CHL1    C1 1894   0.712   6.229  10.038  0.9234  0.5471  0.6012
   26CHL1   H1A 1895   0.642   6.148  10.008 -0.0852  1.3110  0.8595
   26CHL1   H1B 1896   0.804   6.185   9.993 -1.0753 -1.0610 -2.1727
   26CHL1    C2 1897   0.718   6.242  10.196 -0.2294 -0.2351 -0.1105
   26CHL1   H2A 1898   0.763   6.149  10.239 -2.2680 -2.2077 -1.9535
   26CHL1   H2B 1899   0.615   6.253  10.235 -1.0484 -0.9026 -1.9880
   26CHL1   C20 1900   0.678   6.292   9.246 -0.0717 -0.0139  0.4631
   26CHL1   H20 1901   0.623   6.384   9.216 -0.8530 -0.8707 -0.8030
   26CHL1   C21 1902   0.583   6.173   9.261 -0.5178  0.2509  0.0944
   26CHL1  H21A 1903   0.510   6.185   9.344 -1.1605  0.0524 -0.4333
   26CHL1  H21B 1904   0.639   6.078   9.271  1.9519  1.6551  0.3168
   26CHL1  H21C 1905   0.535   6.156   9.163  0.1750  1.6303 -0.5109
   26CHL1   C22 1906   0.779   6.275   9.126  0.0079 -0.6517  0.3039
   26CHL1  H22A 1907   0.843   6.366   9.127  1.0220 -1.3429 -0.2536
   26CHL1  H22B 1908   0.842   6.185   9.139  1.4320  0.1475 -0.7455
   26CHL1   C23 1909   0.719   6.270   8.985  0.0462 -0.1397  0.1202
   26CHL1  H23A 1910   0.677   6.169   8.967  0.2948 -0.4415  1.1706
   26CHL1  H23B 1911   0.634   6.342   8.983  0.7106  0.6553 -0.1818
   26CHL1   C24 1912   0.827   6.299   8.876 -0.8368  0.4034 -0.2110
   26CHL1  H24A 1913   0.880   6.388   8.916 -0.6035  0.0828  0.2069
   26CHL1  H24B 1914   0.909   6.226   8.858 -0.8333  0.3026  0.1952
   26CHL1   C25 1915   0.769   6.329   8.745  0.5930  0.1866  0.3390
   26CHL1   H25 1916   0.694   6.410   8.753 -2.6949 -2.6358  0.1543
   26CHL1   C26 1917   0.888   6.373   8.656  0.0452 -0.2093 -0.3673
   26CHL1  H26A 1918   0.954   6.286   8.638 -1.4343 -1.7226  1.2287
   26CHL1  H26B 1919   0.837   6.399   8.561 -0.1550 -0.1739 -0.2508
   26CHL1  H26C 1920   0.947   6.464   8.684 -0.3327 -0.0922  0.0591
   26CHL1   C27 1921   0.698   6.198   8.691 -0.5670  0.4608 -0.0586
   26CHL1  H27A 1922   0.698   6.200   8.580  0.7660 -1.1490 -0.1174
   26CHL1  H27B 1923   0.754   6.105   8.712  0.2187  0.4730 -1.8964
   26CHL1  H27C 1924   0.596   6.195   8.735 -0.3906  2.5679  0.6108
   27CHL1    C3 1925   6.145   2.108  10.618  0.6893 -0.0606  0.4060
   27CHL1    H3 1926   6.184   2.004  10.627  0.7283 -0.0704  0.1254
   27CHL1    O3 1927   6.151   2.172  10.741  0.3068  0.2399 -0.1920
   27CHL1   H3' 1928   6.112   2.258  10.726  0.2612  0.1133 -0.8435
   27CHL1    C4 1929   6.233   2.181  10.515  0.1431  0.1826 -0.6515
   27CHL1   H4A 1930   6.204   2.288  10.512 -1.0662 -0.0839  0.6117
   27CHL1   H4B 1931   6.339   2.172  10.548 -0.3665  0.2183  1.1229
   27CHL1    C5 1932   6.212   2.122  10.381 -0.7758  0.1922  0.5672
   27CHL1    C6 1933   6.316   2.076  10.307  0.2204  0.3522 -0.6342
   27CHL1    H6 1934   6.415   2.081  10.354 -1.4317  2.7016  3.1198
   27CHL1    C7 1935   6.303   2.031  10.160 -0.4601 -1.5947 -0.0206
   27CHL1   H7A 1936   6.375   2.082  10.093 -1.5686  2.8327  1.8472
   27CHL1   H7B 1937   6.323   1.922  10.150  1.4290 -1.7240  3.4577
   27CHL1    C8 1938   6.173   2.061  10.100  0.2471  0.3289 -0.1367
   27CHL1    H8 1939   6.167   2.168  10.071 -2.1578  0.6004  1.0503
   27CHL1   C14 1940   6.146   1.968   9.980 -0.0421 -0.0632 -0.3190
   27CHL1   H14 1941   6.117   1.870  10.024 -1.4732  0.5364  0.1050
   27CHL1   C15 1942   6.258   1.954   9.866  0.2870 -0.0613 -0.2963
   27CHL1  H15A 1943   6.303   2.053   9.844  1.7506 -0.9113 -1.2981
   27CHL1  H15B 1944   6.342   1.887   9.894 -0.9390 -1.5688 -0.0879
   27CHL1   C16 1945   6.184   1.893   9.745  0.5059 -0.2649 -0.1961
   27CHL1  H16A 1946   6.215   1.954   9.657  1.1536 -2.3175 -1.4590
   27CHL1  H16B 1947   6.205   1.786   9.720 -1.2115 -1.5223  3.1675
   27CHL1   C17 1948   6.032   1.908   9.780 -0.2923 -0.2523 -0.3646
   27CHL1   H17 1949   5.998   1.805   9.806  0.0426 -0.4468 -0.6823
   27CHL1   C13 1950   6.017   2.002   9.898  0.5031  0.6976 -0.1688
   27CHL1   C18 1951   6.018   2.145   9.842 -0.6930 -0.6557 -0.2027
   27CHL1  H18A 1952   6.097   2.146   9.764  1.0948  0.9418  1.5204
   27CHL1  H18B 1953   5.921   2.180   9.802 -1.3689 -1.0536  1.0201
   27CHL1  H18C 1954   6.053   2.220   9.917 -1.4963 -0.4186 -0.0644
   27CHL1   C12 1955   5.898   1.976   9.998 -0.4373  0.0649 -0.4584
   27CHL1  H12A 1956   5.798   2.002   9.957 -1.5929  0.9505  2.6810
   27CHL1  H12B 1957   5.910   1.869  10.023  0.9467  0.0636 -1.0109
   27CHL1   C11 1958   5.923   2.057  10.128 -0.2690 -0.0199 -0.0138
   27CHL1  H11A 1959   5.926   2.165  10.099  2.9286 -0.0265 -0.0652
   27CHL1  H11B 1960   5.842   2.042  10.201 -1.2193 -0.1625 -1.0699
   27CHL1    C9 1961   6.055   2.037  10.201 -0.9301 -0.3064 -0.2782
   27CHL1    H9 1962   6.048   1.931  10.230 -0.8526 -0.6469 -1.4454
   27CHL1   C10 1963   6.069   2.120  10.334  0.1468 -0.4857  0.2754
   27CHL1   C19 1964   6.032   2.272  10.295 -0.3770  0.6953 -0.7989
   27CHL1  H19A 1965   5.929   2.290  10.257 -0.6648  1.6659  0.3774
   27CHL1  H19B 1966   6.041   2.348  10.376  1.9257  0.8183 -1.1159
   27CHL1  H19C 1967   6.103   2.311  10.219 -0.0738  1.0144 -0.3539
   27CHL1    C1 1968   5.970   2.073  10.433 -0.0882  0.0435 -0.1216
   27CHL1   H1A 1969   5.864   2.093  10.408 -0.5839 -1.2559  0.7801
   27CHL1   H1B 1970   5.982   1.962  10.442 -0.4096 -0.1475 -1.7912
   27CHL1    C2 1971   5.992   2.113  10.579  0.5848 -0.1077 -0.0708
   27CHL1   H2A 1972   5.935   2.056  10.655 -0.5451  0.2613 -0.6247
   27CHL1   H2B 1973   5.948   2.215  10.580  0.8262  0.0088 -0.8957
   27CHL1   C20 1974   5.944   1.930   9.648  0.6150  0.3841  0.0038
   27CHL1   H20 1975   5.954   2.036   9.615 -0.7185  0.6923  0.5345
   27CHL1   C21 1976   5.795   1.915   9.679 -0.2065  0.3627  0.2909
   27CHL1  H21A 1977   5.791   1.817   9.731  0.6215  0.9045  1.4232
   27CHL1  H21B 1978   5.719   1.913   9.597 -0.2818 -2.0185  0.3400
   27CHL1  H21C 1979   5.769   1.999   9.746 -0.8131  1.5110 -1.3334
   27CHL1   C22 1980   5.986   1.836   9.533 -0.0724 -0.0620  0.1227
   27CHL1  H22A 1981   6.095   1.854   9.522  0.5131 -1.7421  2.4022
   27CHL1  H22B 1982   5.972   1.732   9.567  1.3495 -0.1871  0.3903
   27CHL1   C23 1983   5.907   1.857   9.396  1.0735  0.1289  0.1439
   27CHL1  H23A 1984   5.800   1.852   9.424  1.2121 -1.7434  0.4690
   27CHL1  H23B 1985   5.941   1.959   9.370  1.7613  0.1558  1.0762
   27CHL1   C24 1986   5.953   1.745   9.302  0.2662  0.2034  0.6465
   27CHL1  H24A 1987   6.062   1.764   9.290  0.1370  1.0682  0.7338
   27CHL1  H24B 1988   5.932   1.643   9.340  1.5282 -0.4288 -0.2744
   27CHL1   C25 1989   5.874   1.761   9.169 -0.1762 -0.0837  0.0212
   27CHL1   H25 1990   5.768   1.761   9.202  0.1260 -1.3188  1.0797
   27CHL1   C26 1991   5.906   1.889   9.087 -0.1882 -0.0404  0.0480
   27CHL1  H26A 1992   5.836   1.894   9.001  0.8657 -1.9971 -1.0109
   27CHL1  H26B 1993   5.894   1.975   9.156  0.5581 -0.8545  1.2250
   27CHL1  H26C 1994   6.013   1.878   9.060 -0.2322  2.5929 -1.5054
   27CHL1   C27 1995   5.907   1.630   9.089 -0.2217 -0.4004  0.2117
   27CHL1  H27A 1996   5.854   1.538   9.121 -0.1281 -1.9488 -3.5633
   27CHL1  H27B 1997   5.861   1.626   8.988  0.0760 -2.3307  0.1162
   27CHL1  H27C 1998   6.015   1.607   9.076 -0.2674 -0.3914 -0.1890
   28CHL1    C3 1999   3.365   0.950  10.089  0.0800 -0.1849  0.4951
   28CHL1    H3 2000   3.322   0.860  10.041 -1.5124  1.0803 -0.5478
   28CHL1    O3 2001   3.392   0.906  10.222 -0.2596  0.3083 -0.1015
   28CHL1   H3' 2002   3.372   0.986  10.271  1.4007  0.2735  0.6847
   28CHL1    C4 2003   3.498   0.994  10.019  0.0975  0.1514  0.2881
   28CHL1   H4A 2004   3.531   1.081  10.079 -1.3337  2.1459 -1.6708
   28CHL1   H4B 2005   3.570   0.909  10.025  2.6828  2.2354  1.0171
   28CHL1    C5 2006   3.477   1.029   9.876  0.6714 -0.3040  0.6821
   28CHL1    C6 2007   3.543   0.965   9.771  0.4684 -0.5329  0.4644
   28CHL1    H6 2008   3.614   0.883   9.789  1.8762  0.4525 -0.4099
   28CHL1    C7 2009   3.534   1.012   9.624 -1.1636 -0.3803  0.3715
   28CHL1   H7A 2010   3.637   1.023   9.585 -0.1462 -2.1772  2.2966
   28CHL1   H7B 2011   3.481   0.938   9.561  0.5714  0.8233 -2.6694
   28CHL1    C8 2012   3.460   1.146   9.605 -0.2476  0.0992 -0.1784
   28CHL1    H8 2013   3.528   1.224   9.647 -1.0597 -0.3794  2.1223
   28CHL1   C14 2014   3.426   1.170   9.463 -0.1886  0.5665  0.7207
   28CHL1   H14 2015   3.365   1.078   9.446  1.9884 -0.9542  0.7858
   28CHL1   C15 2016   3.526   1.148   9.351  0.1834 -0.5779  0.3412
   28CHL1  H15A 2017   3.619   1.199   9.385  0.5790 -0.8148 -0.3696
   28CHL1  H15B 2018   3.550   1.041   9.334 -1.4167 -0.6534 -1.8768
   28CHL1   C16 2019   3.463   1.213   9.221  0.0401  0.2745 -0.8240
   28CHL1  H16A 2020   3.526   1.297   9.185  1.7676 -0.4191  0.3992
   28CHL1  H16B 2021   3.462   1.141   9.136  1.6956  1.8323 -2.2446
   28CHL1   C17 2022   3.322   1.259   9.268 -0.1416 -0.0144 -0.6126
   28CHL1   H17 2023   3.257   1.170   9.254  0.1378 -0.4440  0.6896
   28CHL1   C13 2024   3.333   1.287   9.420 -1.0661 -0.1201 -0.8768
   28CHL1   C18 2025   3.407   1.420   9.435  0.1165  0.0209 -0.3478
   28CHL1  H18A 2026   3.440   1.430   9.540  2.7707 -2.8586 -0.7724
   28CHL1  H18B 2027   3.500   1.420   9.374  0.6326 -4.8619  0.1065
   28CHL1  H18C 2028   3.351   1.506   9.393  0.2504  0.0564 -0.4566
   28CHL1   C12 2029   3.209   1.273   9.507  0.4831  0.7878  0.4721
   28CHL1  H12A 2030   3.146   1.361   9.485  0.6571  0.9489  0.6148
   28CHL1  H12B 2031   3.152   1.182   9.478  1.9439  0.5388 -1.8598
   28CHL1   C11 2032   3.247   1.274   9.656 -0.3601 -0.4662  0.5177
   28CHL1  H11A 2033   3.300   1.370   9.675  2.6347 -1.9813  0.2846
   28CHL1  H11B 2034   3.153   1.269   9.716 -0.2225 -2.5829  0.6070
   28CHL1    C9 2035   3.334   1.155   9.696 -0.3158  0.7228 -0.2765
   28CHL1    H9 2036   3.277   1.062   9.678 -0.9863  1.2364 -0.8325
   28CHL1   C10 2037   3.371   1.144   9.850 -0.1014  0.3124  1.0031
   28CHL1   C19 2038   3.428   1.271   9.902  0.6386  0.0454  0.3295
   28CHL1  H19A 2039   3.356   1.346   9.863  0.1743 -0.8614 -0.6074
   28CHL1  H19B 2040   3.438   1.274  10.013 -1.3530 -3.0616  0.7141
   28CHL1  H19C 2041   3.525   1.292   9.852 -0.8755  3.1579 -1.6289
   28CHL1    C1 2042   3.236   1.111   9.927  0.0831  0.7526  0.6300
   28CHL1   H1A 2043   3.161   1.193   9.935 -0.2400  0.5690 -0.3167
   28CHL1   H1B 2044   3.180   1.033   9.870  0.4988 -0.1028  1.3616
   28CHL1    C2 2045   3.265   1.065  10.071 -0.2118 -0.4093 -0.2316
   28CHL1   H2A 2046   3.171   1.039  10.124 -0.1933 -0.1748 -0.0828
   28CHL1   H2B 2047   3.300   1.148  10.136 -0.0168 -1.0810  0.5439
   28CHL1   C20 2048   3.263   1.368   9.172  0.0508  0.7192 -0.4705
   28CHL1   H20 2049   3.341   1.447   9.167  2.0179 -1.1368 -0.6239
   28CHL1   C21 2050   3.127   1.419   9.210  0.2607 -0.4196  0.2900
   28CHL1  H21A 2051   3.080   1.474   9.126 -0.6822  0.4036  1.3208
   28CHL1  H21B 2052   3.140   1.490   9.295 -2.0583  0.3314  0.0818
   28CHL1  H21C 2053   3.068   1.334   9.249  2.4080 -0.6501  3.3865
   28CHL1   C22 2054   3.267   1.323   9.023  0.2010  0.4842 -0.0724
   28CHL1  H22A 2055   3.368   1.279   9.009  0.3739  1.3695 -1.9309
   28CHL1  H22B 2056   3.187   1.248   9.004  0.0474 -0.0274  2.2307
   28CHL1   C23 2057   3.257   1.430   8.913 -0.4171 -0.5481 -0.2095
   28CHL1  H23A 2058   3.149   1.443   8.895 -0.2296 -1.5576 -2.4074
   28CHL1  H23B 2059   3.313   1.520   8.946  0.9570 -1.5414  0.2785
   28CHL1   C24 2060   3.312   1.396   8.778 -0.3217  0.1097 -0.7272
   28CHL1  H24A 2061   3.423   1.387   8.775 -0.2689  0.5227 -0.2172
   28CHL1  H24B 2062   3.270   1.294   8.759 -3.3693  0.7518  1.6668
   28CHL1   C25 2063   3.269   1.489   8.669 -0.1865 -0.1401 -0.1762
   28CHL1   H25 2064   3.158   1.486   8.670 -0.1670 -1.7548 -0.3116
   28CHL1   C26 2065   3.303   1.636   8.702  0.1230  0.0018  0.0826
   28CHL1  H26A 2066   3.264   1.699   8.619 -1.4447  2.0399  2.2418
   28CHL1  H26B 2067   3.251   1.668   8.794 -2.3529 -0.8760 -0.9189
   28CHL1  H26C 2068   3.413   1.648   8.701 -0.0704  2.2120 -1.9391
   28CHL1   C27 2069   3.329   1.450   8.535 -0.3545  0.6091  0.4128
   28CHL1  H27A 2070   3.439   1.469   8.532 -0.2803  0.2710  0.8506
   28CHL1  H27B 2071   3.309   1.342   8.515  0.2375  0.3946  0.9183
   28CHL1  H27C 2072   3.277   1.504   8.453 -0.6852  0.5703  0.5947
   29CHL1    C3 2073   2.800   6.675   6.611  0.1494  0.1908 -0.0350
   29CHL1    H3 2074   2.718   6.632   6.671 -0.3088 -0.1436 -0.8922
   29CHL1    O3 2075   2.761   6.671   6.475 -0.0504 -0.3238 -0.1543
   29CHL1   H3' 2076   2.805   6.594   6.438 -2.1311 -1.9059  0.4702
   29CHL1    C4 2077   2.809   6.820   6.650 -0.6766 -0.3991  0.0972
   29CHL1   H4A 2078   2.881   6.873   6.585 -0.7834  1.8460  1.7149
   29CHL1   H4B 2079   2.717   6.878   6.627 -1.0896 -0.8068  0.7017
   29CHL1    C5 2080   2.845   6.838   6.795  0.4285  0.2955  0.1288
   29CHL1    C6 2081   2.761   6.897   6.884 -0.4137  0.4570  0.1841
   29CHL1    H6 2082   2.661   6.933   6.858 -0.2988  1.5527  1.1455
   29CHL1    C7 2083   2.794   6.924   7.026  0.7253  0.1672 -0.1146
   29CHL1   H7A 2084   2.767   7.027   7.058 -1.2878 -0.4619  0.3590
   29CHL1   H7B 2085   2.735   6.861   7.096  0.0485  0.2466 -0.6151
   29CHL1    C8 2086   2.935   6.885   7.070 -0.2806  0.2526  0.2462
   29CHL1    H8 2087   2.986   6.982   7.050 -0.3166  0.3718  0.7163
   29CHL1   C14 2088   2.946   6.855   7.218 -0.8475  0.2263 -0.1928
   29CHL1   H14 2089   2.892   6.759   7.229 -1.1286  0.5676  1.6910
   29CHL1   C15 2090   2.889   6.950   7.315  0.4534  0.3013 -0.4051
   29CHL1  H15A 2091   2.913   7.056   7.294  0.5618  0.1027 -1.2982
   29CHL1  H15B 2092   2.780   6.930   7.312  0.7570 -1.7378  0.4226
   29CHL1   C16 2093   2.949   6.910   7.448 -0.2485  0.7471  0.6832
   29CHL1  H16A 2094   2.983   6.994   7.511 -0.9622  1.2741  0.3851
   29CHL1  H16B 2095   2.876   6.852   7.508 -0.9113  1.4122  0.5298
   29CHL1   C17 2096   3.058   6.798   7.421 -0.0090 -0.4058 -0.1571
   29CHL1   H17 2097   2.995   6.706   7.425 -1.0842  0.3662  2.8973
   29CHL1   C13 2098   3.086   6.819   7.276 -0.2251  0.4291  0.1973
   29CHL1   C18 2099   3.182   6.940   7.257  0.7491 -0.5487  0.3565
   29CHL1  H18A 2100   3.186   6.980   7.153 -2.1183  1.9191  1.0594
   29CHL1  H18B 2101   3.153   7.025   7.322 -1.5549 -0.8697 -0.1416
   29CHL1  H18C 2102   3.288   6.918   7.279  1.1136  1.2978  0.5541
   29CHL1   C12 2103   3.131   6.693   7.192  0.7209  0.0859 -0.1352
   29CHL1  H12A 2104   3.233   6.657   7.218  1.5391  0.7986 -2.1789
   29CHL1  H12B 2105   3.057   6.613   7.216  0.2727  0.6023  0.2219
   29CHL1   C11 2106   3.138   6.723   7.041  0.3232  0.2026  0.1034
   29CHL1  H11A 2107   3.219   6.795   7.018  2.8758 -2.8838 -1.3276
   29CHL1  H11B 2108   3.165   6.640   6.973 -2.2329  0.6860 -1.6674
   29CHL1    C9 2109   2.994   6.766   6.985  0.3736  0.6365  0.4514
   29CHL1    H9 2110   2.932   6.677   7.010  0.5436  0.4693  0.2798
   29CHL1   C10 2111   2.985   6.771   6.831 -0.4224 -0.3447 -0.3062
   29CHL1   C19 2112   3.098   6.844   6.762  0.0596 -0.3018  0.3714
   29CHL1  H19A 2113   3.196   6.794   6.780  0.5337 -0.5076 -2.3607
   29CHL1  H19B 2114   3.101   6.860   6.652  2.5241  1.4804  0.6177
   29CHL1  H19C 2115   3.098   6.945   6.808  2.1792 -0.5701  1.0928
   29CHL1    C1 2116   2.988   6.622   6.772 -0.5741 -0.3111  0.3223
   29CHL1   H1A 2117   3.094   6.589   6.780 -0.2829  0.9398  2.1936
   29CHL1   H1B 2118   2.917   6.565   6.836 -1.2330 -0.7217 -0.7462
   29CHL1    C2 2119   2.936   6.609   6.627  0.0202 -0.1873 -0.6389
   29CHL1   H2A 2120   2.927   6.500   6.608  2.0995 -0.5950  0.4240
   29CHL1   H2B 2121   3.006   6.659   6.557 -0.3076 -0.6313 -1.3032
   29CHL1   C20 2122   3.170   6.802   7.531 -0.5573  0.5498 -0.6605
   29CHL1   H20 2123   3.214   6.903   7.527  1.3936 -0.2172  0.2054
   29CHL1   C21 2124   3.273   6.693   7.511 -0.5668 -0.2054 -0.5408
   29CHL1  H21A 2125   3.210   6.605   7.490 -1.5785  0.8989 -2.3925
   29CHL1  H21B 2126   3.339   6.678   7.600 -0.2572 -1.3861 -0.9546
   29CHL1  H21C 2127   3.336   6.710   7.421 -1.4710  1.8829 -0.8376
   29CHL1   C22 2128   3.107   6.783   7.675 -0.2713  0.3845 -0.5122
   29CHL1  H22A 2129   3.004   6.824   7.681 -0.8837 -1.0208 -0.9538
   29CHL1  H22B 2130   3.106   6.674   7.696 -2.0266  0.0411 -2.0926
   29CHL1   C23 2131   3.186   6.869   7.787  1.0799  0.3988  0.5295
   29CHL1  H23A 2132   3.292   6.838   7.777  0.6425 -0.9905 -0.1705
   29CHL1  H23B 2133   3.169   6.978   7.774  0.9911  0.3133 -0.1097
   29CHL1   C24 2134   3.157   6.827   7.933 -0.0715  0.3032 -0.1603
   29CHL1  H24A 2135   3.051   6.835   7.965  0.3549  0.1187  1.3791
   29CHL1  H24B 2136   3.176   6.718   7.941 -1.0657  0.1002 -0.3553
   29CHL1   C25 2137   3.244   6.889   8.046  0.4064  0.0468 -0.1726
   29CHL1   H25 2138   3.258   6.997   8.024  1.1475 -0.3172 -1.6493
   29CHL1   C26 2139   3.185   6.872   8.191 -0.1800  0.6797 -0.3336
   29CHL1  H26A 2140   3.101   6.943   8.210 -0.7393 -0.2522  0.8011
   29CHL1  H26B 2141   3.152   6.768   8.209  1.3982 -0.2240 -2.3198
   29CHL1  H26C 2142   3.260   6.905   8.265  0.1834  1.3755 -0.9981
   29CHL1   C27 2143   3.387   6.830   8.053  0.3430 -0.8000 -0.1222
   29CHL1  H27A 2144   3.386   6.731   8.103 -0.2205 -0.1383  1.2246
   29CHL1  H27B 2145   3.419   6.809   7.949 -0.8944 -0.9309 -0.4918
   29CHL1  H27C 2146   3.446   6.891   8.125 -1.0392 -1.6476  1.8119
   30CHL1    C3 2147   0.651   5.035   7.001  0.5876 -0.9358 -0.7531
   30CHL1    H3 2148   0.716   5.117   6.962 -0.7467 -1.0776 -3.5104
   30CHL1    O3 2149   0.584   4.985   6.886  0.1730 -0.4765 -0.7509
   30CHL1   H3' 2150   0.631   4.909   6.851  0.2963 -1.2211  0.9289
   30CHL1    C4 2151   0.742   4.927   7.061 -0.1571 -0.2036 -0.8094
   30CHL1   H4A 2152   0.674   4.840   7.077 -2.0727  1.3847  0.1098
   30CHL1   H4B 2153   0.810   4.884   6.984 -0.9354  0.7435 -2.0643
   30CHL1    C5 2154   0.810   4.967   7.187 -0.0442 -0.5170 -0.3640
   30CHL1    C6 2155   0.942   4.972   7.192  0.0402  0.0612 -0.4588
   30CHL1    H6 2156   0.995   4.949   7.099 -2.0613 -2.4382 -1.1721
   30CHL1    C7 2157   1.008   5.016   7.322  1.7717  0.0033 -0.2832
   30CHL1   H7A 2158   1.094   4.948   7.341  2.3251  1.0512  1.1660
   30CHL1   H7B 2159   1.036   5.123   7.327  0.2736  0.4044  0.0776
   30CHL1    C8 2160   0.913   5.005   7.453  0.1675 -0.0456  0.1598
   30CHL1    H8 2161   0.903   4.895   7.467 -2.5648  0.2068  0.8223
   30CHL1   C14 2162   0.977   5.065   7.582  0.4192  0.3399  0.5780
   30CHL1   H14 2163   0.982   5.175   7.569 -1.0373  0.2603 -0.8920
   30CHL1   C15 2164   1.120   5.028   7.615  0.2264  0.1938  0.4761
   30CHL1  H15A 2165   1.128   4.919   7.594  2.3850  0.5394 -0.7123
   30CHL1  H15B 2166   1.204   5.074   7.559  1.7695 -3.3615 -0.3770
   30CHL1   C16 2167   1.138   5.067   7.763 -0.0612  0.0460 -0.1795
   30CHL1  H16A 2168   1.185   4.984   7.820  1.8951  0.5408 -0.9694
   30CHL1  H16B 2169   1.211   5.151   7.764  1.6588 -1.3427 -1.7542
   30CHL1   C17 2170   0.993   5.094   7.820  0.0116 -0.2063  0.5361
   30CHL1   H17 2171   0.974   5.202   7.804 -0.0453 -0.3813 -0.6804
   30CHL1   C13 2172   0.895   5.033   7.711 -0.2754  0.5727  0.8072
   30CHL1   C18 2173   0.880   4.877   7.735  0.8867  0.0698  0.3334
   30CHL1  H18A 2174   0.839   4.860   7.837 -1.3460  1.2317 -0.2968
   30CHL1  H18B 2175   0.807   4.828   7.668 -1.8605 -1.1327  3.8809
   30CHL1  H18C 2176   0.976   4.820   7.733 -0.5027 -2.3662 -0.5105
   30CHL1   C12 2177   0.760   5.101   7.704  0.1894  0.6038  0.3863
   30CHL1  H12A 2178   0.684   5.072   7.779  1.3381  1.2039  1.8211
   30CHL1  H12B 2179   0.769   5.211   7.715 -0.4942  0.7036  0.0475
   30CHL1   C11 2180   0.693   5.068   7.570 -0.7660 -0.3343  0.1429
   30CHL1  H11A 2181   0.650   4.966   7.570 -0.6222 -0.5770 -4.0145
   30CHL1  H11B 2182   0.608   5.139   7.557 -0.2764  0.6577  2.0634
   30CHL1    C9 2183   0.782   5.068   7.433  0.6755 -0.3984 -0.1901
   30CHL1    H9 2184   0.810   5.174   7.414  0.4344 -0.2985  0.0145
   30CHL1   C10 2185   0.720   5.011   7.298  0.3846 -0.1030 -0.3212
   30CHL1   C19 2186   0.624   4.892   7.335 -0.3825 -0.6033  0.0131
   30CHL1  H19A 2187   0.676   4.812   7.392 -2.3988 -1.7865  0.2898
   30CHL1  H19B 2188   0.542   4.931   7.401  2.6863 -0.5687  4.2286
   30CHL1  H19C 2189   0.568   4.857   7.246  2.3539 -1.1628 -1.6026
   30CHL1    C1 2190   0.621   5.123   7.242 -0.2999  0.0120  0.2977
   30CHL1   H1A 2191   0.548   5.132   7.325  1.5763 -2.4302  2.3778
   30CHL1   H1B 2192   0.675   5.220   7.238  0.3218 -0.3499 -0.7087
   30CHL1    C2 2193   0.550   5.084   7.108 -0.3073  0.1677  0.0161
   30CHL1   H2A 2194   0.500   5.175   7.069  0.0592  1.1921  1.8065
   30CHL1   H2B 2195   0.473   5.004   7.109  0.1286 -0.2995 -1.5580
   30CHL1   C20 2196   0.977   5.064   7.971 -0.5860 -0.0802  0.0565
   30CHL1   H20 2197   0.991   4.956   7.994  3.2359  0.7261  2.4884
   30CHL1   C21 2198   0.839   5.105   8.021 -0.8126  0.2024 -0.9100
   30CHL1  H21A 2199   0.819   5.093   8.130  1.5788  1.5734 -0.2359
   30CHL1  H21B 2200   0.769   5.051   7.954 -0.4729  1.4435 -2.3158
   30CHL1  H21C 2201   0.830   5.214   8.004  0.0149  0.3691 -0.3459
   30CHL1   C22 2202   1.091   5.138   8.051 -0.2241  0.1824 -0.2293
   30CHL1  H22A 2203   1.188   5.107   8.009 -0.1957  1.5474 -1.2185
   30CHL1  H22B 2204   1.091   5.245   8.022  1.3941  0.7328  1.5595
   30CHL1   C23 2205   1.071   5.117   8.197 -0.1814  0.5880 -0.7291
   30CHL1  H23A 2206   0.976   5.168   8.225 -0.9592 -1.0093 -0.3492
   30CHL1  H23B 2207   1.035   5.013   8.208 -0.1214  0.7444  1.5416
   30CHL1   C24 2208   1.189   5.142   8.288  0.1905  0.1795 -0.4081
   30CHL1  H24A 2209   1.265   5.062   8.282 -0.1675 -0.3475  1.4049
   30CHL1  H24B 2210   1.247   5.229   8.251 -0.4579  0.0357 -1.8438
   30CHL1   C25 2211   1.151   5.173   8.442  0.8212 -0.1824  0.3508
   30CHL1   H25 2212   1.082   5.260   8.432 -0.1297 -0.6243  2.4285
   30CHL1   C26 2213   1.070   5.061   8.510 -0.1424 -0.8402  0.6169
   30CHL1  H26A 2214   0.977   5.044   8.452 -0.5875  1.2087  0.6582
   30CHL1  H26B 2215   1.132   4.969   8.512  1.6867  0.0579 -3.3768
   30CHL1  H26C 2216   1.060   5.085   8.617 -0.7397 -1.5654  0.7376
   30CHL1   C27 2217   1.271   5.198   8.535 -0.6822 -0.7888 -0.1268
   30CHL1  H27A 2218   1.246   5.242   8.634  1.7918  1.3988 -0.3589
   30CHL1  H27B 2219   1.338   5.111   8.551 -0.0742 -0.1698  0.7897
   30CHL1  H27C 2220   1.335   5.275   8.485 -0.1987 -1.9944 -1.4238
   31CHL1    C3 2221   0.158   5.881   6.876 -0.0515 -0.0830 -0.5768
   31CHL1    H3 2222   0.237   5.954   6.848  0.2287 -0.1671 -0.0319
   31CHL1    O3 2223   0.094   5.833   6.752  0.5688  0.3120  0.9116
   31CHL1   H3' 2224   0.035   5.760   6.774 -1.3306  0.6502 -2.3632
   31CHL1    C4 2225   0.216   5.757   6.955 -0.4938  0.2936  0.1279
   31CHL1   H4A 2226   0.137   5.680   6.966 -0.5670  0.4470  0.7050
   31CHL1   H4B 2227   0.305   5.721   6.900  0.0552  0.9540  0.5587
   31CHL1    C5 2228   0.263   5.801   7.094  1.0869  0.0187  0.4257
   31CHL1    C6 2229   0.391   5.782   7.131  0.1026 -1.1062  0.1835
   31CHL1    H6 2230   0.463   5.730   7.066  1.5447  1.3113 -0.2728
   31CHL1    C7 2231   0.462   5.811   7.261  0.8552 -0.2081 -0.2728
   31CHL1   H7A 2232   0.517   5.719   7.292  0.9554 -1.4392 -3.6673
   31CHL1   H7B 2233   0.539   5.887   7.238  1.4574 -0.8510 -0.4119
   31CHL1    C8 2234   0.355   5.841   7.366  0.0177  0.1968 -0.5315
   31CHL1    H8 2235   0.310   5.742   7.389  1.1586 -0.4919 -1.1319
   31CHL1   C14 2236   0.410   5.905   7.498  0.4266  0.1329  1.0625
   31CHL1   H14 2237   0.454   5.999   7.461 -1.5107  0.9174  0.6402
   31CHL1   C15 2238   0.527   5.837   7.570 -0.2680  0.7737 -0.0557
   31CHL1  H15A 2239   0.496   5.732   7.588  2.6283 -0.5136 -1.8278
   31CHL1  H15B 2240   0.621   5.837   7.511  0.4858 -1.3293  1.0687
   31CHL1   C16 2241   0.531   5.908   7.706  0.6016  0.1067 -0.4034
   31CHL1  H16A 2242   0.521   5.830   7.785  2.4930 -0.0982 -0.3204
   31CHL1  H16B 2243   0.616   5.975   7.728  0.5194 -0.0410  0.4236
   31CHL1   C17 2244   0.404   5.996   7.716 -0.2523  1.0750  0.1495
   31CHL1   H17 2245   0.430   6.092   7.667  0.9562 -0.4005 -2.2952
   31CHL1   C13 2246   0.309   5.930   7.610  0.1600  0.7102 -0.3420
   31CHL1   C18 2247   0.238   5.797   7.652  0.2756 -0.0147 -0.1159
   31CHL1  H18A 2248   0.147   5.836   7.702  1.3754  1.5594  0.7536
   31CHL1  H18B 2249   0.210   5.741   7.560 -0.9476  0.4339 -0.0311
   31CHL1  H18C 2250   0.293   5.741   7.731  2.2667 -0.7926 -1.9562
   31CHL1   C12 2251   0.206   6.033   7.549 -0.0006  0.4029  0.8015
   31CHL1  H12A 2252   0.124   6.058   7.620 -2.0015  3.3790 -2.2391
   31CHL1  H12B 2253   0.263   6.126   7.533  1.8499 -0.7019  0.6722
   31CHL1   C11 2254   0.146   5.977   7.415  0.1142  0.8505 -0.8057
   31CHL1  H11A 2255   0.083   5.889   7.441  2.2355  0.2765  3.2329
   31CHL1  H11B 2256   0.073   6.051   7.378 -0.6603  1.0571  1.0140
   31CHL1    C9 2257   0.243   5.931   7.307 -0.2848  0.4089 -0.2978
   31CHL1    H9 2258   0.285   6.029   7.275  0.5764  0.0217 -0.3631
   31CHL1   C10 2259   0.162   5.876   7.176  0.8630  0.2751 -0.1647
   31CHL1   C19 2260   0.069   5.763   7.218  1.0309 -0.0772 -0.1650
   31CHL1  H19A 2261   0.018   5.702   7.141  0.4738 -0.9337  0.8481
   31CHL1  H19B 2262   0.119   5.691   7.286 -0.1769 -0.9030 -0.1291
   31CHL1  H19C 2263  -0.013   5.814   7.274 -1.4301 -2.6686 -1.1835
   31CHL1    C1 2264   0.100   5.997   7.099  0.3806  0.2144 -0.5516
   31CHL1   H1A 2265   0.005   6.034   7.144 -0.0992 -1.7746  0.1672
   31CHL1   H1B 2266   0.165   6.087   7.097  0.3114  0.2570 -1.5310
   31CHL1    C2 2267   0.053   5.955   6.958  0.2921 -0.8935  0.0874
   31CHL1   H2A 2268   0.029   6.049   6.904  2.2848 -1.1117 -1.3059
   31CHL1   H2B 2269  -0.037   5.891   6.962 -0.1248 -0.2491  1.3153
   31CHL1   C20 2270   0.336   6.029   7.846 -0.6907 -0.8916  0.3228
   31CHL1   H20 2271   0.233   6.067   7.833 -1.2099 -1.8307  1.5391
   31CHL1   C21 2272   0.422   6.145   7.905  0.0096  0.7877  0.2626
   31CHL1  H21A 2273   0.383   6.185   8.002 -2.1890  0.1859 -0.3123
   31CHL1  H21B 2274   0.438   6.226   7.830  1.0383 -2.1838 -2.9520
   31CHL1  H21C 2275   0.522   6.102   7.928  0.6208  1.5685 -0.8685
   31CHL1   C22 2276   0.312   5.913   7.946  0.1519 -0.6040 -0.1029
   31CHL1  H22A 2277   0.259   5.831   7.893 -2.0736 -0.1248  1.2571
   31CHL1  H22B 2278   0.408   5.864   7.975 -0.2070 -0.8771  0.6603
   31CHL1   C23 2279   0.227   5.935   8.076  0.3151  0.4312  0.0527
   31CHL1  H23A 2280   0.267   6.024   8.129 -0.7505  2.9724 -3.0476
   31CHL1  H23B 2281   0.124   5.957   8.042 -0.5127 -0.2995  1.9765
   31CHL1   C24 2282   0.234   5.813   8.166 -1.0552  0.5288  0.6855
   31CHL1  H24A 2283   0.213   5.722   8.105 -2.2288 -0.1936  2.0931
   31CHL1  H24B 2284   0.338   5.796   8.202 -0.9571 -1.6350 -0.3939
   31CHL1   C25 2285   0.142   5.823   8.289 -0.1218  0.4077 -0.2780
   31CHL1   H25 2286   0.040   5.857   8.261  0.5022  0.5651 -2.5157
   31CHL1   C26 2287   0.141   5.686   8.360  0.0017  0.8125  0.3762
   31CHL1  H26A 2288   0.229   5.671   8.427 -0.4378  1.3452  1.0860
   31CHL1  H26B 2289   0.057   5.686   8.432  0.7680  0.5358  1.3018
   31CHL1  H26C 2290   0.123   5.599   8.293  0.1948  0.8501  0.2735
   31CHL1   C27 2291   0.183   5.934   8.391 -0.1022  0.5934 -0.0932
   31CHL1  H27A 2292   0.279   5.920   8.445 -1.3530 -0.4866  1.9850
   31CHL1  H27B 2293   0.099   5.944   8.462  0.8580  0.2653  1.1253
   31CHL1  H27C 2294   0.200   6.035   8.346  0.9608  0.4607 -0.0240
   32CHL1    C3 2295   2.256   5.332   6.798 -0.3353  0.4665 -0.4306
   32CHL1    H3 2296   2.280   5.231   6.759 -0.1449  0.7279 -0.9929
   32CHL1    O3 2297   2.204   5.403   6.692 -0.0842 -0.1890  0.4261
   32CHL1   H3' 2298   2.109   5.386   6.699  0.5089 -3.2117  3.2724
   32CHL1    C4 2299   2.132   5.328   6.898  0.3341 -0.3072 -0.2463
   32CHL1   H4A 2300   2.101   5.434   6.911  1.0541 -0.0619 -0.4858
   32CHL1   H4B 2301   2.042   5.272   6.867 -0.6685  1.8782 -1.5324
   32CHL1    C5 2302   2.186   5.287   7.026  0.3565  0.2573 -0.7355
   32CHL1    C6 2303   2.123   5.190   7.091 -0.4097  0.2224  0.5980
   32CHL1    H6 2304   2.028   5.150   7.051 -1.0915  0.9864  1.4380
   32CHL1    C7 2305   2.161   5.144   7.229 -0.8470  0.6882 -0.2513
   32CHL1   H7A 2306   2.074   5.120   7.293 -0.3093  1.9745  1.0131
   32CHL1   H7B 2307   2.213   5.047   7.210 -0.9395  0.5939 -0.0367
   32CHL1    C8 2308   2.258   5.233   7.309  0.2027  0.6939 -0.7392
   32CHL1    H8 2309   2.196   5.319   7.343 -0.4205  0.0350 -0.1818
   32CHL1   C14 2310   2.318   5.168   7.432  0.2159 -0.1419 -0.1081
   32CHL1   H14 2311   2.384   5.086   7.397  1.4618  0.2102  1.3023
   32CHL1   C15 2312   2.217   5.111   7.531 -0.3242  0.2031  0.3174
   32CHL1  H15A 2313   2.131   5.180   7.541  0.1731  0.7625  0.7303
   32CHL1  H15B 2314   2.182   5.008   7.507 -0.4664  0.6641 -1.6818
   32CHL1   C16 2315   2.300   5.100   7.661 -0.4955 -0.5972  0.4241
   32CHL1  H16A 2316   2.246   5.157   7.739  1.8431  0.4458  1.3898
   32CHL1  H16B 2317   2.321   4.994   7.690 -0.9672 -1.1103 -1.0352
   32CHL1   C17 2318   2.441   5.153   7.626  0.5494 -0.3380 -0.4375
   32CHL1   H17 2319   2.499   5.066   7.587 -2.0629 -1.8597 -1.1785
   32CHL1   C13 2320   2.413   5.254   7.512  0.2716  0.3120  0.7401
   32CHL1   C18 2321   2.339   5.383   7.565 -0.4531  1.1649  0.0839
   32CHL1  H18A 2322   2.258   5.364   7.638  1.3624 -1.4589  1.5802
   32CHL1  H18B 2323   2.416   5.437   7.624 -1.8277  2.2241  0.9775
   32CHL1  H18C 2324   2.308   5.447   7.480 -0.1042  0.3529 -0.6607
   32CHL1   C12 2325   2.529   5.288   7.416 -0.9221 -0.6783 -0.4338
   32CHL1  H12A 2326   2.617   5.345   7.454 -0.4178 -0.8509 -1.3163
   32CHL1  H12B 2327   2.577   5.194   7.381  0.2755 -0.3682  0.3257
   32CHL1   C11 2328   2.472   5.358   7.297  0.2815 -0.1156 -0.1550
   32CHL1  H11A 2329   2.438   5.461   7.322  1.0497 -0.3703  2.2095
   32CHL1  H11B 2330   2.560   5.370   7.230 -0.0741 -0.2709 -0.6520
   32CHL1    C9 2331   2.367   5.281   7.214 -0.0643 -0.3036 -0.0061
   32CHL1    H9 2332   2.411   5.189   7.171 -1.1794  0.4511 -3.0287
   32CHL1   C10 2333   2.312   5.355   7.090 -0.1678  0.1770  0.1895
   32CHL1   C19 2334   2.269   5.497   7.125 -0.2497 -0.2257 -0.5562
   32CHL1  H19A 2335   2.359   5.549   7.165 -0.8072 -1.9427  3.4067
   32CHL1  H19B 2336   2.226   5.550   7.037 -3.7008  0.9156  1.6329
   32CHL1  H19C 2337   2.201   5.487   7.212 -0.1385 -0.9380 -0.5487
   32CHL1    C1 2338   2.422   5.358   6.977  0.6337 -0.1672  0.0107
   32CHL1   H1A 2339   2.511   5.417   7.008 -0.0209  0.0454  1.5870
   32CHL1   H1B 2340   2.453   5.252   6.975 -1.0786 -0.6931 -1.3627
   32CHL1    C2 2341   2.376   5.407   6.845  0.8330  0.2526  0.2888
   32CHL1   H2A 2342   2.449   5.402   6.762 -0.0290 -1.8368 -0.4289
   32CHL1   H2B 2343   2.341   5.512   6.853  0.0982  0.1587 -1.3997
   32CHL1   C20 2344   2.515   5.206   7.751  0.0153  0.5868 -0.0374
   32CHL1   H20 2345   2.461   5.290   7.799 -0.1848 -0.8347  2.4331
   32CHL1   C21 2346   2.649   5.284   7.717  0.6602  0.7751  0.4885
   32CHL1  H21A 2347   2.609   5.378   7.675  0.7068  1.3746  1.7349
   32CHL1  H21B 2348   2.708   5.227   7.642 -0.7101  1.0594 -0.8291
   32CHL1  H21C 2349   2.697   5.327   7.808 -1.8124  0.1294  2.1900
   32CHL1   C22 2350   2.536   5.097   7.867  0.0537  0.4354 -0.4760
   32CHL1  H22A 2351   2.437   5.056   7.897  0.3779 -0.7132 -0.9183
   32CHL1  H22B 2352   2.601   5.014   7.830 -0.3136  1.1140 -2.8084
   32CHL1   C23 2353   2.583   5.147   8.003  0.6034 -0.7425  0.2593
   32CHL1  H23A 2354   2.678   5.201   7.983 -0.0687  0.0089 -1.0850
   32CHL1  H23B 2355   2.517   5.227   8.042 -0.7735 -1.5640 -0.2813
   32CHL1   C24 2356   2.597   5.035   8.111 -0.4447 -1.0604 -0.0328
   32CHL1  H24A 2357   2.503   4.976   8.106  0.1333 -1.9255 -2.8789
   32CHL1  H24B 2358   2.686   4.971   8.091  0.6374  0.0570  1.0730
   32CHL1   C25 2359   2.608   5.097   8.254  1.0336  0.6313  0.0657
   32CHL1   H25 2360   2.512   5.146   8.278  0.8354  0.0810  0.3990
   32CHL1   C26 2361   2.641   4.987   8.355 -0.0032 -0.3105  0.6422
   32CHL1  H26A 2362   2.739   4.937   8.340  0.6598  0.6239  1.7093
   32CHL1  H26B 2363   2.651   5.051   8.446 -1.0196  1.3178 -0.3406
   32CHL1  H26C 2364   2.554   4.920   8.372  0.4079 -0.8618  0.5902
   32CHL1   C27 2365   2.710   5.202   8.253  0.2894 -0.5429  0.4962
   32CHL1  H27A 2366   2.667   5.294   8.207  0.4507 -0.4075  0.6147
   32CHL1  H27B 2367   2.749   5.233   8.352  2.4526 -1.4879 -0.0079
   32CHL1  H27C 2368   2.800   5.160   8.204 -0.3419  0.5387 -1.7253
   33CHL1    C3 2369   2.595   5.714   6.896  0.5462 -0.2383 -1.0471
   33CHL1    H3 2370   2.516   5.637   6.911  2.1859 -1.5188  1.6880
   33CHL1    O3 2371   2.615   5.747   6.758  0.5589 -0.0446  0.0070
   33CHL1   H3' 2372   2.649   5.667   6.719 -1.6349 -1.7942  1.4663
   33CHL1    C4 2373   2.553   5.840   6.970  0.6954  0.4310 -0.3333
   33CHL1   H4A 2374   2.616   5.926   6.940  1.5974  0.8279  2.4145
   33CHL1   H4B 2375   2.450   5.866   6.939 -0.5136  0.2072  3.0210
   33CHL1    C5 2376   2.555   5.817   7.117  0.2551 -0.1198 -0.8933
   33CHL1    C6 2377   2.446   5.843   7.197  0.9147  0.3466 -0.5738
   33CHL1    H6 2378   2.349   5.869   7.152 -0.6066 -0.9738  1.6929
   33CHL1    C7 2379   2.441   5.833   7.350 -0.1140 -0.5058 -0.2682
   33CHL1   H7A 2380   2.391   5.916   7.405  1.7193 -0.2476  1.1199
   33CHL1   H7B 2381   2.392   5.737   7.375  1.5598 -1.6022 -0.9833
   33CHL1    C8 2382   2.587   5.826   7.409 -0.2051 -0.6594  0.1263
   33CHL1    H8 2383   2.641   5.922   7.404  2.6417 -2.1882 -0.8240
   33CHL1   C14 2384   2.572   5.764   7.551  0.5857 -0.3233  0.4162
   33CHL1   H14 2385   2.538   5.658   7.542  1.8729 -0.6517 -0.9756
   33CHL1   C15 2386   2.471   5.824   7.646  0.1465  0.0169 -0.4600
   33CHL1  H15A 2387   2.460   5.932   7.624 -1.5343  0.3695  1.7007
   33CHL1  H15B 2388   2.377   5.763   7.643  0.3683 -0.2728 -2.0461
   33CHL1   C16 2389   2.534   5.809   7.783 -0.3631  0.5041 -0.3530
   33CHL1  H16A 2390   2.568   5.910   7.813 -1.3267  0.3814  1.2365
   33CHL1  H16B 2391   2.466   5.767   7.859  0.6952  1.6818  1.3045
   33CHL1   C17 2392   2.661   5.712   7.766 -0.4939 -0.2818  0.8598
   33CHL1   H17 2393   2.610   5.613   7.763 -2.3678  0.5831  1.9918
   33CHL1   C13 2394   2.706   5.753   7.623 -0.2401 -0.2139  0.5488
   33CHL1   C18 2395   2.775   5.891   7.627  0.5156 -0.6280  0.3252
   33CHL1  H18A 2396   2.711   5.979   7.650  0.4835 -0.7418  0.6780
   33CHL1  H18B 2397   2.867   5.888   7.690  1.2723 -0.7211 -0.7609
   33CHL1  H18C 2398   2.829   5.915   7.533  0.0266 -3.8690 -0.9042
   33CHL1   C12 2399   2.784   5.645   7.542 -0.7681  0.2681 -1.4371
   33CHL1  H12A 2400   2.889   5.638   7.578 -1.0123  1.4896 -0.4261
   33CHL1  H12B 2401   2.742   5.543   7.553 -3.4658  1.4709  0.3299
   33CHL1   C11 2402   2.807   5.679   7.394  0.3088 -0.3141  0.2809
   33CHL1  H11A 2403   2.877   5.765   7.399 -0.8374  0.6783 -0.3099
   33CHL1  H11B 2404   2.857   5.595   7.342 -2.1155 -1.2990 -0.5661
   33CHL1    C9 2405   2.669   5.729   7.324 -0.5597  0.1945 -0.3520
   33CHL1    H9 2406   2.606   5.638   7.326 -2.8147  1.5746 -2.6055
   33CHL1   C10 2407   2.689   5.762   7.180 -0.3885 -0.2266  0.2023
   33CHL1   C19 2408   2.800   5.871   7.162 -0.3257 -0.3538 -0.1725
   33CHL1  H19A 2409   2.898   5.842   7.205 -0.4914  0.0792  0.5103
   33CHL1  H19B 2410   2.811   5.889   7.052 -0.5560  2.5342  0.2065
   33CHL1  H19C 2411   2.763   5.969   7.198  0.0626 -0.9524  1.9569
   33CHL1    C1 2412   2.728   5.633   7.105 -0.9991  0.2962  0.3093
   33CHL1   H1A 2413   2.831   5.616   7.144 -1.2955  1.1270  1.5233
   33CHL1   H1B 2414   2.671   5.541   7.132  0.2283 -0.5036  0.2632
   33CHL1    C2 2415   2.723   5.650   6.948  0.3471  0.5312 -0.6420
   33CHL1   H2A 2416   2.744   5.550   6.906  1.8339  1.2108 -1.5682
   33CHL1   H2B 2417   2.804   5.720   6.919  2.7431 -0.5930  2.6750
   33CHL1   C20 2418   2.758   5.724   7.887  0.6279  0.7482 -0.3788
   33CHL1   H20 2419   2.801   5.826   7.884  3.0765 -0.2022 -0.0032
   33CHL1   C21 2420   2.883   5.631   7.878  0.5835 -0.0435  0.7169
   33CHL1  H21A 2421   2.849   5.526   7.870 -0.7108  0.4612 -1.0708
   33CHL1  H21B 2422   2.943   5.635   7.971  0.1540  0.3644  0.9837
   33CHL1  H21C 2423   2.940   5.662   7.787 -0.1776 -2.9653 -0.8740
   33CHL1   C22 2424   2.673   5.694   8.016  0.4870 -0.2861 -0.4078
   33CHL1  H22A 2425   2.593   5.770   8.026  0.2983 -0.2579 -1.8740
   33CHL1  H22B 2426   2.615   5.600   8.009 -0.1558  0.0476  0.3001
   33CHL1   C23 2427   2.754   5.719   8.145 -0.4206 -0.1885 -0.0176
   33CHL1  H23A 2428   2.823   5.634   8.164  1.3064  1.0119 -0.7117
   33CHL1  H23B 2429   2.825   5.802   8.129  0.4884 -0.3287  2.8302
   33CHL1   C24 2430   2.657   5.730   8.256  0.6369 -0.3078  0.4462
   33CHL1  H24A 2431   2.582   5.809   8.237  0.5987  0.2023  2.5216
   33CHL1  H24B 2432   2.601   5.634   8.259  0.5766 -0.3318 -0.6824
   33CHL1   C25 2433   2.722   5.749   8.393  0.6716 -0.0862 -0.1708
   33CHL1   H25 2434   2.779   5.657   8.419 -0.4340  0.0348  3.1797
   33CHL1   C26 2435   2.816   5.869   8.407 -0.3092 -0.0997  0.4354
   33CHL1  H26A 2436   2.872   5.869   8.502  0.0118  1.8110  0.2815
   33CHL1  H26B 2437   2.887   5.872   8.321 -0.8905  0.5681 -0.0343
   33CHL1  H26C 2438   2.759   5.963   8.397  0.4239  0.2273 -1.0816
   33CHL1   C27 2439   2.603   5.760   8.491 -0.0312 -0.3574 -0.3459
   33CHL1  H27A 2440   2.554   5.859   8.482 -1.1239 -0.6459  1.7853
   33CHL1  H27B 2441   2.534   5.674   8.491  0.0339 -0.4094 -0.8390
   33CHL1  H27C 2442   2.646   5.768   8.594 -1.9602  2.9153  0.3546
   34CHL1    C3 2443   4.209   3.441   7.106  0.5437 -0.2175  0.8092
   34CHL1    H3 2444   4.249   3.544   7.096 -3.2806  1.8842  4.4610
   34CHL1    O3 2445   4.168   3.394   6.981  0.2568 -0.1777 -0.3812
   34CHL1   H3' 2446   4.109   3.322   7.002 -0.0090  0.2878  0.5192
   34CHL1    C4 2447   4.313   3.353   7.165 -0.0275  0.2747 -0.4263
   34CHL1   H4A 2448   4.280   3.247   7.179  2.3106 -0.2913  1.4280
   34CHL1   H4B 2449   4.393   3.347   7.089 -0.0211  0.0530 -0.4050
   34CHL1    C5 2450   4.359   3.399   7.306 -0.2504 -1.0911  0.2740
   34CHL1    C6 2451   4.488   3.428   7.336  0.1281  0.3377 -0.1926
   34CHL1    H6 2452   4.574   3.415   7.269  1.5844 -0.0774  1.6777
   34CHL1    C7 2453   4.530   3.471   7.471 -0.9280 -0.0904 -0.9363
   34CHL1   H7A 2454   4.629   3.431   7.502 -0.1730  0.6830 -2.2570
   34CHL1   H7B 2455   4.536   3.580   7.451  0.3414 -0.0603 -0.4192
   34CHL1    C8 2456   4.428   3.457   7.587  0.1328 -0.6972 -0.1924
   34CHL1    H8 2457   4.421   3.350   7.616  0.8762 -1.8170 -3.6131
   34CHL1   C14 2458   4.464   3.536   7.714 -0.3067  0.2054 -0.3861
   34CHL1   H14 2459   4.474   3.643   7.687 -0.1444  0.2254 -0.2441
   34CHL1   C15 2460   4.601   3.509   7.779 -0.1647 -0.1832 -0.2724
   34CHL1  H15A 2461   4.628   3.401   7.772  0.0105 -0.0902 -1.0501
   34CHL1  H15B 2462   4.680   3.558   7.718  1.5157 -0.2462  1.7380
   34CHL1   C16 2463   4.591   3.552   7.925 -0.9083 -0.3593  0.1209
   34CHL1  H16A 2464   4.606   3.457   7.981 -2.3523 -1.1995 -0.8471
   34CHL1  H16B 2465   4.677   3.617   7.951  1.0817 -2.6997 -0.2605
   34CHL1   C17 2466   4.445   3.608   7.936 -0.0151  1.6361  0.1344
   34CHL1   H17 2467   4.444   3.713   7.900 -2.1828  1.2570 -1.1457
   34CHL1   C13 2468   4.365   3.524   7.828 -0.4742  0.7797 -0.1997
   34CHL1   C18 2469   4.342   3.374   7.869 -0.3106  1.1516  0.0543
   34CHL1  H18A 2470   4.314   3.304   7.787  1.1065 -1.1339  1.4204
   34CHL1  H18B 2471   4.433   3.332   7.915 -1.9027 -1.7196  0.8256
   34CHL1  H18C 2472   4.268   3.372   7.952 -0.5673  0.2518 -0.1824
   34CHL1   C12 2473   4.236   3.584   7.780  0.3526 -0.8530  0.1572
   34CHL1  H12A 2474   4.151   3.579   7.850 -1.4598  0.0922 -1.8639
   34CHL1  H12B 2475   4.253   3.690   7.752  0.6566 -0.8725  0.2587
   34CHL1   C11 2476   4.185   3.504   7.660 -0.3185  0.2133  0.3106
   34CHL1  H11A 2477   4.155   3.401   7.689 -2.8483  0.2357 -1.8552
   34CHL1  H11B 2478   4.093   3.556   7.626 -0.2153  1.2568  1.5539
   34CHL1    C9 2479   4.290   3.505   7.543 -0.4548  0.1548  0.3386
   34CHL1    H9 2480   4.289   3.612   7.516 -0.9070 -0.1362 -0.8893
   34CHL1   C10 2481   4.242   3.429   7.410 -0.2859 -0.0003  0.1567
   34CHL1   C19 2482   4.194   3.289   7.450  0.4909  0.7932 -0.6930
   34CHL1  H19A 2483   4.135   3.220   7.386  0.6463  0.8885 -0.9388
   34CHL1  H19B 2484   4.273   3.227   7.498 -0.7653 -1.1276 -0.9816
   34CHL1  H19C 2485   4.108   3.306   7.518  1.1024  0.2693  0.2326
   34CHL1    C1 2486   4.128   3.506   7.333  0.7472 -0.0458 -0.4165
   34CHL1   H1A 2487   4.038   3.523   7.397  2.4651 -0.5897  2.2935
   34CHL1   H1B 2488   4.170   3.606   7.311  0.6346  0.4444  1.4486
   34CHL1    C2 2489   4.083   3.461   7.194  0.0627 -0.1305  0.5031
   34CHL1   H2A 2490   4.014   3.535   7.148 -1.8503 -2.1166  0.0384
   34CHL1   H2B 2491   4.036   3.362   7.211  1.6301 -0.8899  0.5596
   34CHL1   C20 2492   4.395   3.600   8.083  0.5131 -0.2128  0.3574
   34CHL1   H20 2493   4.336   3.506   8.085  0.5648 -0.3072 -1.2647
   34CHL1   C21 2494   4.287   3.709   8.091 -0.2554 -0.5604  0.1185
   34CHL1  H21A 2495   4.200   3.707   8.023 -0.5435  0.6492  0.4103
   34CHL1  H21B 2496   4.335   3.808   8.074 -0.3643 -0.5672 -0.2323
   34CHL1  H21C 2497   4.239   3.713   8.191 -1.0815  3.5853 -0.2667
   34CHL1   C22 2498   4.494   3.612   8.202 -0.2402 -0.5099 -0.5613
   34CHL1  H22A 2499   4.558   3.522   8.198 -1.2386 -1.2010 -1.8416
   34CHL1  H22B 2500   4.549   3.707   8.181 -1.9672  0.4292 -1.0813
   34CHL1   C23 2501   4.432   3.611   8.346 -0.5673  0.3004  1.0234
   34CHL1  H23A 2502   4.366   3.701   8.355 -1.1668 -0.1931  1.6753
   34CHL1  H23B 2503   4.354   3.532   8.352 -1.8417  1.5291  1.4800
   34CHL1   C24 2504   4.539   3.619   8.462  1.0951  0.1954  1.0042
   34CHL1  H24A 2505   4.606   3.531   8.461  1.4523  0.4646  0.9564
   34CHL1  H24B 2506   4.596   3.704   8.419 -1.9519  1.6430 -0.5193
   34CHL1   C25 2507   4.482   3.669   8.594 -0.3718 -0.3228 -0.0866
   34CHL1   H25 2508   4.406   3.745   8.565 -0.5935 -0.1679  0.8655
   34CHL1   C26 2509   4.426   3.554   8.682 -0.7494  0.2464 -0.1852
   34CHL1  H26A 2510   4.359   3.491   8.620  1.0237 -0.4479 -1.4503
   34CHL1  H26B 2511   4.512   3.495   8.719 -0.7726  0.0479 -0.4465
   34CHL1  H26C 2512   4.371   3.590   8.772  1.2198  1.6063  0.5574
   34CHL1   C27 2513   4.597   3.727   8.674  0.1572  0.3691 -0.4363
   34CHL1  H27A 2514   4.629   3.818   8.619 -1.1455 -0.5994 -2.9581
   34CHL1  H27B 2515   4.571   3.755   8.779 -2.6900  0.6951 -1.1493
   34CHL1  H27C 2516   4.670   3.645   8.686 -0.7493 -0.2426  1.1546
   35CHL1    C3 2517   5.854   5.996   7.084  0.3826 -0.0365  0.8213
   35CHL1    H3 2518   5.860   6.107   7.093  0.1923  0.2068 -1.5729
   35CHL1    O3 2519   5.868   5.976   6.949  0.6219  1.0224 -0.5068
   35CHL1   H3' 2520   5.857   5.881   6.945  0.4129  0.7993  2.7075
   35CHL1    C4 2521   5.973   5.926   7.142  0.9674  0.1611 -0.1028
   35CHL1   H4A 2522   5.977   5.815   7.137 -1.8925 -0.0213  0.4135
   35CHL1   H4B 2523   6.060   5.971   7.089  0.5969  0.3394 -0.5729
   35CHL1    C5 2524   5.977   5.945   7.297 -0.0162 -0.3977 -0.6116
   35CHL1    C6 2525   6.081   6.000   7.355  0.1534 -0.3947 -0.9650
   35CHL1    H6 2526   6.172   6.036   7.304 -0.4830  2.1021 -0.4784
   35CHL1    C7 2527   6.090   6.016   7.507 -0.2645 -0.4422 -0.4677
   35CHL1   H7A 2528   6.193   6.003   7.544 -0.2322 -3.1926 -1.3228
   35CHL1   H7B 2529   6.063   6.124   7.518 -1.5518 -0.5242 -2.2416
   35CHL1    C8 2530   5.992   5.930   7.589 -0.0412 -0.3068 -0.3387
   35CHL1    H8 2531   6.026   5.825   7.598  1.0839  0.1078  0.5687
   35CHL1   C14 2532   5.973   5.987   7.730  0.2829 -0.6276 -0.7484
   35CHL1   H14 2533   5.921   6.085   7.720 -1.9101 -1.6697 -0.0131
   35CHL1   C15 2534   6.100   6.017   7.807  0.4804  0.4344  0.9225
   35CHL1  H15A 2535   6.183   5.945   7.788 -0.6116 -0.3935 -1.0599
   35CHL1  H15B 2536   6.143   6.115   7.776 -1.8684  1.5370  0.9404
   35CHL1   C16 2537   6.054   6.026   7.942 -0.4697  0.4227 -0.1800
   35CHL1  H16A 2538   6.102   5.948   8.005 -1.7550  0.2350  0.6141
   35CHL1  H16B 2539   6.073   6.126   7.986 -1.1937  0.9328 -0.9853
   35CHL1   C17 2540   5.907   5.993   7.948  0.5147  0.2102  0.1796
   35CHL1   H17 2541   5.836   6.077   7.942 -0.8351 -0.3572  4.6262
   35CHL1   C13 2542   5.883   5.906   7.816  0.6277 -0.3746 -0.5647
   35CHL1   C18 2543   5.936   5.762   7.845  0.0728 -0.0359 -0.5368
   35CHL1  H18A 2544   6.034   5.761   7.898 -1.3913 -0.4803  2.4212
   35CHL1  H18B 2545   5.868   5.718   7.922 -2.3083 -0.1922 -2.6087
   35CHL1  H18C 2546   5.925   5.687   7.765 -0.9264 -0.6161  0.1185
   35CHL1   C12 2547   5.747   5.909   7.763  0.0394 -0.3455  0.0554
   35CHL1  H12A 2548   5.678   5.845   7.823 -0.8469 -0.4105 -0.9943
   35CHL1  H12B 2549   5.698   6.008   7.774 -3.0375 -1.5568 -1.6096
   35CHL1   C11 2550   5.742   5.884   7.610 -0.2118 -0.5183  0.5488
   35CHL1  H11A 2551   5.757   5.774   7.596  2.8040 -0.0523 -0.6659
   35CHL1  H11B 2552   5.649   5.917   7.559  0.4974 -0.3342 -0.6899
   35CHL1    C9 2553   5.856   5.940   7.519  0.0535 -0.5198 -0.1628
   35CHL1    H9 2554   5.826   6.047   7.523  2.5731  0.3650 -2.2151
   35CHL1   C10 2555   5.854   5.896   7.375 -0.0298  0.3049 -0.1956
   35CHL1   C19 2556   5.837   5.743   7.364 -0.5805 -0.2120  0.1296
   35CHL1  H19A 2557   5.732   5.717   7.389 -1.5593  3.6623  0.7173
   35CHL1  H19B 2558   5.846   5.703   7.261  1.4887 -0.7122  0.4723
   35CHL1  H19C 2559   5.917   5.699   7.427 -1.0087  0.8935  1.5143
   35CHL1    C1 2560   5.733   5.968   7.302  0.2413  0.2004  0.5548
   35CHL1   H1A 2561   5.640   5.935   7.353 -0.0362  1.3856  0.8404
   35CHL1   H1B 2562   5.752   6.075   7.326 -1.5716  0.9032 -0.8805
   35CHL1    C2 2563   5.721   5.952   7.146  0.1016  0.7416 -1.0769
   35CHL1   H2A 2564   5.642   6.020   7.110  0.1523  1.6243  0.4096
   35CHL1   H2B 2565   5.693   5.848   7.117 -1.8937  0.6749  0.8339
   35CHL1   C20 2566   5.857   5.943   8.089 -0.0128  0.1695  0.1943
   35CHL1   H20 2567   5.916   5.852   8.110 -2.6052 -1.5386  0.4117
   35CHL1   C21 2568   5.704   5.896   8.092 -0.8380  0.0686 -0.1296
   35CHL1  H21A 2569   5.687   5.864   8.197 -0.4100  0.4063  0.0446
   35CHL1  H21B 2570   5.693   5.808   8.024  1.0315  0.1645 -0.6111
   35CHL1  H21C 2571   5.641   5.977   8.052  0.4161  1.3093  0.3207
   35CHL1   C22 2572   5.893   6.049   8.193  0.1806 -0.4755  0.1131
   35CHL1  H22A 2573   6.004   6.063   8.192  0.5546 -2.9250 -0.1973
   35CHL1  H22B 2574   5.836   6.140   8.165 -1.9278 -1.1342  1.9569
   35CHL1   C23 2575   5.853   6.007   8.335 -0.1328 -0.2882  0.0096
   35CHL1  H23A 2576   5.747   6.027   8.360 -0.0686  0.5112 -0.3424
   35CHL1  H23B 2577   5.864   5.896   8.341  1.1002 -0.3391 -2.1685
   35CHL1   C24 2578   5.942   6.075   8.441 -0.0767  0.8831  0.1871
   35CHL1  H24A 2579   5.941   6.022   8.539 -1.7935  0.4489 -0.0404
   35CHL1  H24B 2580   6.046   6.063   8.403  0.7660 -0.1140  2.5781
   35CHL1   C25 2581   5.924   6.225   8.463 -0.0361  0.2791 -0.3422
   35CHL1   H25 2582   5.939   6.273   8.363 -0.1078 -0.4824 -0.7287
   35CHL1   C26 2583   5.795   6.253   8.542  0.8197  0.5625  0.2467
   35CHL1  H26A 2584   5.811   6.210   8.643  2.0307 -3.8575 -1.5565
   35CHL1  H26B 2585   5.762   6.359   8.540 -2.0565 -0.2733 -0.1464
   35CHL1  H26C 2586   5.716   6.191   8.494 -0.8497  0.9799  2.3340
   35CHL1   C27 2587   6.040   6.283   8.542 -0.1649 -0.2917 -0.0143
   35CHL1  H27A 2588   6.046   6.226   8.637 -1.2559  1.0407  0.9027
   35CHL1  H27B 2589   6.027   6.389   8.573 -0.9185 -0.7471  1.3331
   35CHL1  H27C 2590   6.137   6.268   8.489  0.1698 -0.7106  0.7061
   36CHL1    C3 2591   0.893   3.654   6.961 -0.5430  0.2827  0.1642
   36CHL1    H3 2592   0.958   3.566   6.982 -0.2966  0.7232  1.3183
   36CHL1    O3 2593   0.872   3.673   6.823  0.3565  0.3550  0.7992
   36CHL1   H3' 2594   0.793   3.728   6.824 -0.5307 -0.8929  1.1501
   36CHL1    C4 2595   0.755   3.619   7.032  0.1638 -0.0720 -0.4389
   36CHL1   H4A 2596   0.689   3.705   7.008  3.2765  1.9968 -2.2808
   36CHL1   H4B 2597   0.712   3.526   6.989  0.6185 -0.9694  0.9714
   36CHL1    C5 2598   0.770   3.597   7.185 -0.0328 -0.2681  0.6154
   36CHL1    C6 2599   0.746   3.479   7.239  0.8084  0.6805 -0.1908
   36CHL1    H6 2600   0.708   3.394   7.180 -0.5290  1.0117  0.1524
   36CHL1    C7 2601   0.774   3.446   7.382 -0.2493 -0.0351  0.6752
   36CHL1   H7A 2602   0.692   3.390   7.432  0.6804  0.5009  2.9284
   36CHL1   H7B 2603   0.863   3.380   7.377 -0.0163  0.2794  0.6198
   36CHL1    C8 2604   0.796   3.572   7.469 -0.1195  0.3955  0.5853
   36CHL1    H8 2605   0.698   3.622   7.487  0.2699  1.0056  1.0799
   36CHL1   C14 2606   0.869   3.536   7.595  0.6708 -0.5402  0.0596
   36CHL1   H14 2607   0.969   3.506   7.558  0.1124 -2.2419 -0.1400
   36CHL1   C15 2608   0.813   3.421   7.676  0.0153 -0.6698 -0.1035
   36CHL1  H15A 2609   0.705   3.450   7.680  0.5610  1.3896  0.8935
   36CHL1  H15B 2610   0.839   3.320   7.637 -0.1678 -0.5146 -0.6494
   36CHL1   C16 2611   0.875   3.443   7.816 -0.2708 -0.9966 -0.0644
   36CHL1  H16A 2612   0.792   3.478   7.882 -0.7622 -0.5953 -0.8745
   36CHL1  H16B 2613   0.922   3.351   7.856  2.3917  0.2782 -0.0361
   36CHL1   C17 2614   0.963   3.574   7.815 -0.0936  0.3874 -0.4582
   36CHL1   H17 2615   1.065   3.541   7.786 -0.1695 -0.6468  0.4082
   36CHL1   C13 2616   0.896   3.656   7.695 -0.7702  0.1493 -0.9190
   36CHL1   C18 2617   0.765   3.717   7.750  0.0457  0.3505 -0.5739
   36CHL1  H18A 2618   0.691   3.726   7.667 -1.8577  3.0362  1.2316
   36CHL1  H18B 2619   0.715   3.646   7.818 -0.1425 -1.6874 -2.7117
   36CHL1  H18C 2620   0.791   3.813   7.801 -0.3047  0.6264 -0.9023
   36CHL1   C12 2621   0.980   3.758   7.626  0.3977 -0.4469 -1.1387
   36CHL1  H12A 2622   0.985   3.848   7.691 -1.8704 -2.7139  2.5680
   36CHL1  H12B 2623   1.083   3.721   7.611  0.9275  0.6502 -0.3207
   36CHL1   C11 2624   0.920   3.792   7.488 -0.5455 -0.0578  0.5299
   36CHL1  H11A 2625   0.835   3.864   7.499 -0.6126  0.6960 -3.3220
   36CHL1  H11B 2626   0.999   3.852   7.438 -0.7310  0.6246  1.0320
   36CHL1    C9 2627   0.886   3.674   7.398 -0.5736 -0.8496  0.3639
   36CHL1    H9 2628   0.984   3.624   7.379 -0.1568  0.4259 -0.9933
   36CHL1   C10 2629   0.844   3.721   7.256 -0.4742  0.3031  0.0969
   36CHL1   C19 2630   0.742   3.845   7.261  0.7562  0.0246 -0.2191
   36CHL1  H19A 2631   0.709   3.872   7.158 -0.2593  1.6050  0.4745
   36CHL1  H19B 2632   0.647   3.824   7.315 -0.4126  0.7053 -1.9163
   36CHL1  H19C 2633   0.798   3.927   7.309 -0.0964 -0.1693  1.1604
   36CHL1    C1 2634   0.966   3.770   7.179  0.3762 -0.9406 -0.1053
   36CHL1   H1A 2635   1.004   3.866   7.218 -0.5319 -0.2955 -0.7727
   36CHL1   H1B 2636   1.047   3.695   7.196  0.9666  0.0597  1.8665
   36CHL1    C2 2637   0.946   3.782   7.029  1.3068 -0.5687  0.0919
   36CHL1   H2A 2638   1.038   3.816   6.977  0.7287 -1.0348 -1.2469
   36CHL1   H2B 2639   0.870   3.861   7.008  0.7794 -1.0218  0.2633
   36CHL1   C20 2640   0.980   3.643   7.957 -0.6691 -0.3932  0.1963
   36CHL1   H20 2641   0.884   3.691   7.986  0.6023  1.3224  1.8353
   36CHL1   C21 2642   1.085   3.757   7.955 -0.4844 -0.5278 -0.2688
   36CHL1  H21A 2643   1.111   3.789   8.058  0.9220  1.9604 -1.3158
   36CHL1  H21B 2644   1.066   3.851   7.899  2.1039  0.0765 -0.2899
   36CHL1  H21C 2645   1.180   3.712   7.918  0.3039  0.3411  0.6603
   36CHL1   C22 2646   1.018   3.549   8.069 -0.1279 -0.6901 -0.0025
   36CHL1  H22A 2647   1.011   3.444   8.033  1.1472 -0.6499 -0.4393
   36CHL1  H22B 2648   1.129   3.552   8.079  0.0591 -1.1205 -1.6489
   36CHL1   C23 2649   0.943   3.564   8.203  0.0719  0.3104  0.1099
   36CHL1  H23A 2650   1.002   3.643   8.255  0.9439 -1.0087  1.1802
   36CHL1  H23B 2651   0.846   3.617   8.190  0.3636  1.0104  0.7321
   36CHL1   C24 2652   0.945   3.428   8.277 -0.0939 -0.8616  0.5043
   36CHL1  H24A 2653   0.899   3.356   8.205  0.0119  0.5655 -1.0657
   36CHL1  H24B 2654   1.047   3.389   8.296  0.2335 -0.0820  0.3851
   36CHL1   C25 2655   0.852   3.430   8.403 -0.4057 -0.5606 -0.0184
   36CHL1   H25 2656   0.747   3.455   8.376 -0.2376  0.6815  0.3758
   36CHL1   C26 2657   0.841   3.297   8.470  0.1520 -0.0631 -0.4617
   36CHL1  H26A 2658   0.939   3.260   8.507  0.8145 -0.9810 -2.8993
   36CHL1  H26B 2659   0.767   3.307   8.552  0.0708  0.7556 -0.6268
   36CHL1  H26C 2660   0.803   3.224   8.395 -2.1763  1.7548 -1.1693
   36CHL1   C27 2661   0.896   3.536   8.512  0.0789 -0.9776  0.5335
   36CHL1  H27A 2662   1.007   3.528   8.515  0.1911  0.3376  0.5299
   36CHL1  H27B 2663   0.871   3.635   8.470  2.3701 -0.2017  0.8196
   36CHL1  H27C 2664   0.848   3.508   8.608 -1.8381  0.8595  0.1675
   37CHL1    C3 2665   2.116   1.010   6.835  0.0291 -0.4381 -0.1212
   37CHL1    H3 2666   2.015   1.034   6.876  0.5171  0.0989  0.7918
   37CHL1    O3 2667   2.123   1.073   6.704  0.0934  0.3439  0.3212
   37CHL1   H3' 2668   2.037   1.049   6.667 -0.7656  0.0446  2.3632
   37CHL1    C4 2669   2.223   1.066   6.923 -0.0515 -0.0253 -0.0766
   37CHL1   H4A 2670   2.323   1.053   6.876  0.8628 -1.3555  2.1175
   37CHL1   H4B 2671   2.217   1.177   6.920  2.5431  0.1727 -0.4804
   37CHL1    C5 2672   2.219   1.013   7.066 -0.2267  0.3040 -0.0862
   37CHL1    C6 2673   2.220   1.089   7.178 -0.4014  0.2756  0.5793
   37CHL1    H6 2674   2.245   1.196   7.170  1.2419  0.0675  2.3306
   37CHL1    C7 2675   2.216   1.035   7.318  0.2948 -0.0978  0.1711
   37CHL1   H7A 2676   2.284   1.093   7.383 -1.3584  3.9178 -1.3082
   37CHL1   H7B 2677   2.113   1.048   7.357 -0.7922 -0.3033 -2.4308
   37CHL1    C8 2678   2.238   0.886   7.326  0.0289 -0.6578 -0.2701
   37CHL1    H8 2679   2.349   0.876   7.318  0.1591 -0.4788  1.0844
   37CHL1   C14 2680   2.190   0.835   7.458 -0.1434 -0.3921 -0.0121
   37CHL1   H14 2681   2.082   0.859   7.462 -0.0241  0.5839 -1.4831
   37CHL1   C15 2682   2.234   0.903   7.592 -0.3965 -0.3862 -0.3004
   37CHL1  H15A 2683   2.342   0.928   7.581 -0.5165  1.0278  1.2293
   37CHL1  H15B 2684   2.183   1.000   7.612  0.9616  0.0121  1.5096
   37CHL1   C16 2685   2.207   0.801   7.700 -0.8333  0.3074  0.5837
   37CHL1  H16A 2686   2.304   0.774   7.747 -0.4133 -0.8090 -0.8568
   37CHL1  H16B 2687   2.133   0.845   7.770 -1.0334 -1.6497  1.6562
   37CHL1   C17 2688   2.164   0.672   7.636  1.0665 -0.3620 -0.3121
   37CHL1   H17 2689   2.053   0.666   7.634  0.6479  2.3390  3.5071
   37CHL1   C13 2690   2.203   0.682   7.488 -0.4830 -0.1178  0.2659
   37CHL1   C18 2691   2.358   0.646   7.484  0.2355 -0.1066  0.2203
   37CHL1  H18A 2692   2.409   0.685   7.574  1.3773  2.2590 -1.3474
   37CHL1  H18B 2693   2.376   0.536   7.485  1.1837  0.0098 -1.3753
   37CHL1  H18C 2694   2.406   0.689   7.393  1.2506  2.4744  1.8667
   37CHL1   C12 2695   2.126   0.608   7.374 -0.4108  0.3242 -0.2038
   37CHL1  H12A 2696   2.127   0.497   7.378 -1.3706  0.3049 -0.2749
   37CHL1  H12B 2697   2.022   0.646   7.382 -0.4641  0.1555 -0.0998
   37CHL1   C11 2698   2.177   0.649   7.236 -0.2560 -0.3628  0.3992
   37CHL1  H11A 2699   2.282   0.619   7.213 -1.1714 -1.0997 -3.5890
   37CHL1  H11B 2700   2.119   0.590   7.162 -2.2795  0.9382  0.8895
   37CHL1    C9 2701   2.171   0.806   7.210  0.2270 -0.7610 -0.1190
   37CHL1    H9 2702   2.062   0.818   7.225  0.4949  3.0049 -0.1039
   37CHL1   C10 2703   2.211   0.859   7.070 -0.1709  0.2674 -0.2164
   37CHL1   C19 2704   2.356   0.823   7.037  0.5428  0.0406 -0.2285
   37CHL1  H19A 2705   2.426   0.856   7.117 -0.0147 -0.3312  0.4169
   37CHL1  H19B 2706   2.375   0.714   7.035  2.9214  0.3555  0.9979
   37CHL1  H19C 2707   2.380   0.855   6.933 -0.1310 -0.8551 -0.6708
   37CHL1    C1 2708   2.110   0.800   6.969 -0.5014 -0.8292  0.4401
   37CHL1   H1A 2709   2.107   0.689   6.962  0.1799 -0.8197 -0.1061
   37CHL1   H1B 2710   2.011   0.825   7.012 -0.7832 -0.0206 -0.6460
   37CHL1    C2 2711   2.115   0.857   6.830 -0.8710 -0.0116  0.3584
   37CHL1   H2A 2712   2.030   0.817   6.770 -0.8478  0.6215 -0.1155
   37CHL1   H2B 2713   2.214   0.833   6.787 -0.9879 -2.2493  1.2349
   37CHL1   C20 2714   2.204   0.541   7.722 -0.5885  0.1529  0.0269
   37CHL1   H20 2715   2.314   0.547   7.740 -0.5799  1.1528 -0.3083
   37CHL1   C21 2716   2.161   0.414   7.641  0.6156  0.3916  0.0672
   37CHL1  H21A 2717   2.070   0.439   7.582 -0.2784  1.2049  1.7107
   37CHL1  H21B 2718   2.147   0.322   7.701  1.4133  0.5269  0.4791
   37CHL1  H21C 2719   2.222   0.400   7.549 -0.2769 -1.8906 -0.2355
   37CHL1   C22 2720   2.130   0.533   7.859  0.2181  0.2688  0.5392
   37CHL1  H22A 2721   2.156   0.632   7.903 -0.3686  1.1058 -0.9247
   37CHL1  H22B 2722   2.020   0.535   7.843  0.2168 -1.2454  0.1561
   37CHL1   C23 2723   2.176   0.417   7.952 -0.5323 -0.3416  0.0494
   37CHL1  H23A 2724   2.110   0.336   7.914  1.8827 -1.3748 -2.2750
   37CHL1  H23B 2725   2.282   0.394   7.929 -0.3835 -2.2627  2.3749
   37CHL1   C24 2726   2.159   0.457   8.096 -0.4078 -0.6719  0.3559
   37CHL1  H24A 2727   2.220   0.543   8.131 -1.5905  0.5436 -0.4564
   37CHL1  H24B 2728   2.052   0.475   8.119 -0.5162 -2.4253  1.3475
   37CHL1   C25 2729   2.204   0.343   8.194 -0.3407  0.7167  0.5792
   37CHL1   H25 2730   2.293   0.295   8.147 -0.4732 -0.3171  1.3676
   37CHL1   C26 2731   2.244   0.400   8.330  0.3589  0.2736 -0.4334
   37CHL1  H26A 2732   2.160   0.448   8.385  0.4914  1.5802 -1.3139
   37CHL1  H26B 2733   2.279   0.322   8.400  0.1459 -0.0273 -0.6565
   37CHL1  H26C 2734   2.321   0.477   8.312 -0.8376  1.7559  0.4939
   37CHL1   C27 2735   2.098   0.230   8.217  0.4863 -0.4745 -0.4320
   37CHL1  H27A 2736   2.011   0.281   8.262  1.4144  1.5509 -0.8384
   37CHL1  H27B 2737   2.074   0.178   8.121  3.3726  0.7992 -1.9586
   37CHL1  H27C 2738   2.132   0.150   8.287 -1.9153 -1.2302 -0.0241
   38CHL1    C3 2739   0.680   0.441   6.653 -0.1453 -0.5956  1.3184
   38CHL1    H3 2740   0.607   0.522   6.675  0.1384  0.1922 -0.4326
   38CHL1    O3 2741   0.692   0.433   6.511  0.2940  0.1923  0.1685
   38CHL1   H3' 2742   0.763   0.372   6.491 -0.3376  0.1427 -2.1714
   38CHL1    C4 2743   0.815   0.475   6.724 -0.0566  0.1887  0.8253
   38CHL1   H4A 2744   0.884   0.394   6.691 -0.9851  0.0953 -1.0481
   38CHL1   H4B 2745   0.857   0.563   6.670  1.5142 -1.6530 -1.1929
   38CHL1    C5 2746   0.807   0.478   6.869 -0.5920  0.3456 -0.0964
   38CHL1    C6 2747   0.828   0.598   6.928  0.0080  0.1857 -0.1454
   38CHL1    H6 2748   0.854   0.681   6.860  0.5078 -0.3462 -0.6143
   38CHL1    C7 2749   0.821   0.618   7.074 -0.1943 -0.6898  0.1842
   38CHL1   H7A 2750   0.908   0.684   7.094 -0.9948  0.2369  0.7107
   38CHL1   H7B 2751   0.728   0.673   7.100  0.8665  1.0010  0.5053
   38CHL1    C8 2752   0.814   0.487   7.156  0.2497 -0.1190 -0.2138
   38CHL1    H8 2753   0.912   0.435   7.153  0.5765  0.3851  1.0818
   38CHL1   C14 2754   0.772   0.518   7.302  0.1059 -0.2879  0.6508
   38CHL1   H14 2755   0.668   0.556   7.289  0.2992 -0.3889 -1.5761
   38CHL1   C15 2756   0.850   0.615   7.386  0.0011 -0.1860  0.4486
   38CHL1  H15A 2757   0.956   0.581   7.377  0.6181  1.6964 -0.1337
   38CHL1  H15B 2758   0.842   0.715   7.337 -1.3263 -0.8682 -0.7757
   38CHL1   C16 2759   0.794   0.603   7.523  0.6069  0.0595  0.3538
   38CHL1  H16A 2760   0.871   0.579   7.599  0.4245  0.4268  0.6586
   38CHL1  H16B 2761   0.727   0.686   7.553 -0.4427 -1.0611  1.2153
   38CHL1   C17 2762   0.701   0.469   7.522 -0.2865 -0.5305  0.4202
   38CHL1   H17 2763   0.595   0.500   7.507  0.5393  1.2412 -2.7345
   38CHL1   C13 2764   0.746   0.393   7.391  0.0430  0.2120  0.0902
   38CHL1   C18 2765   0.885   0.316   7.421  0.4575  0.0090  0.2113
   38CHL1  H18A 2766   0.940   0.260   7.342 -0.1244 -0.4904  0.1502
   38CHL1  H18B 2767   0.950   0.389   7.474  0.4981  0.3831 -0.3419
   38CHL1  H18C 2768   0.868   0.239   7.500  0.2388  1.4933  1.6640
   38CHL1   C12 2769   0.643   0.302   7.317  0.1432 -0.2553  0.0570
   38CHL1  H12A 2770   0.624   0.204   7.366 -1.4563 -0.6779 -1.3356
   38CHL1  H12B 2771   0.545   0.353   7.307  1.0293  2.1652  2.3184
   38CHL1   C11 2772   0.692   0.265   7.178 -0.4480 -0.4008  0.4145
   38CHL1  H11A 2773   0.792   0.216   7.182  0.5459  1.2949 -1.7582
   38CHL1  H11B 2774   0.616   0.208   7.120 -0.3739  0.3294 -0.4260
   38CHL1    C9 2775   0.709   0.389   7.090 -0.0920 -0.5773  0.0055
   38CHL1    H9 2776   0.615   0.445   7.070  0.0435 -0.1194  0.6133
   38CHL1   C10 2777   0.750   0.353   6.941  0.1259 -0.0608  0.0069
   38CHL1   C19 2778   0.849   0.238   6.936  0.8035 -0.1901  0.4652
   38CHL1  H19A 2779   0.819   0.140   6.978 -2.6526  0.6251  0.1398
   38CHL1  H19B 2780   0.867   0.213   6.829  1.6631  0.3958  0.4609
   38CHL1  H19C 2781   0.946   0.280   6.972 -0.2187  2.3170  0.4819
   38CHL1    C1 2782   0.632   0.301   6.855 -0.3962  0.1901  0.3644
   38CHL1   H1A 2783   0.626   0.194   6.885  0.4374  0.0102 -0.1020
   38CHL1   H1B 2784   0.543   0.360   6.887 -2.3166  0.1447 -4.2009
   38CHL1    C2 2785   0.640   0.305   6.710  0.0448  0.7998  0.3936
   38CHL1   H2A 2786   0.538   0.285   6.669  1.2394  0.0035 -2.3809
   38CHL1   H2B 2787   0.718   0.238   6.668  2.2279  1.7444  2.6934
   38CHL1   C20 2788   0.716   0.392   7.651  0.4305  0.2113  0.4005
   38CHL1   H20 2789   0.826   0.386   7.664  0.4423  1.4600  1.0059
   38CHL1   C21 2790   0.644   0.261   7.637  0.8472 -0.4553 -0.0507
   38CHL1  H21A 2791   0.541   0.282   7.600  0.7921 -1.2870 -0.3831
   38CHL1  H21B 2792   0.622   0.208   7.732 -0.9291 -1.6131 -1.0393
   38CHL1  H21C 2793   0.698   0.181   7.582  0.1407 -1.2367  0.3490
   38CHL1   C22 2794   0.665   0.475   7.770  0.5102  0.0948 -0.8358
   38CHL1  H22A 2795   0.730   0.565   7.779 -0.4981  0.6074  2.6976
   38CHL1  H22B 2796   0.563   0.510   7.742 -0.4137 -1.9649 -0.2559
   38CHL1   C23 2797   0.654   0.413   7.914  0.3039  0.5877 -0.5928
   38CHL1  H23A 2798   0.577   0.333   7.908 -0.1562  0.9717  0.1197
   38CHL1  H23B 2799   0.747   0.368   7.953 -0.8926 -0.6424  0.9254
   38CHL1   C24 2800   0.622   0.519   8.022  0.2038 -0.5564  0.4333
   38CHL1  H24A 2801   0.703   0.596   8.026 -1.1517  0.9273  0.3659
   38CHL1  H24B 2802   0.523   0.565   8.000 -0.0736 -1.1712  0.3906
   38CHL1   C25 2803   0.595   0.473   8.164 -0.6271 -0.1763 -0.7027
   38CHL1   H25 2804   0.681   0.418   8.207  0.6270  0.2802 -2.5384
   38CHL1   C26 2805   0.559   0.594   8.262 -0.4627 -0.6166  0.2844
   38CHL1  H26A 2806   0.577   0.553   8.364  0.9564  2.1957  1.2618
   38CHL1  H26B 2807   0.625   0.682   8.244 -1.2897 -0.0600 -0.0618
   38CHL1  H26C 2808   0.457   0.634   8.245 -0.4196  0.6484  2.6380
   38CHL1   C27 2809   0.488   0.369   8.171 -0.0148 -0.5184  0.4049
   38CHL1  H27A 2810   0.392   0.416   8.141  0.7390  0.1828 -1.0482
   38CHL1  H27B 2811   0.516   0.283   8.106  1.9871  1.7547 -1.9427
   38CHL1  H27C 2812   0.474   0.331   8.274 -1.6129 -0.3891  0.2570
   39CHL1    C3 2813   0.614   6.440   6.685 -0.6149  0.3617 -0.1719
   39CHL1    H3 2814   0.669   6.344   6.690 -0.1947  0.5872 -0.3962
   39CHL1    O3 2815   0.574   6.470   6.554 -0.2851  0.1299 -0.0051
   39CHL1   H3' 2816   0.653   6.512   6.518  0.6914  1.6070  3.4850
   39CHL1    C4 2817   0.497   6.441   6.777 -0.1507  0.0795 -0.1931
   39CHL1   H4A 2818   0.427   6.523   6.750 -0.2059 -0.3784 -1.5605
   39CHL1   H4B 2819   0.444   6.346   6.754  1.6439 -0.7011 -1.2713
   39CHL1    C5 2820   0.515   6.445   6.928 -0.1639 -0.5427 -0.0234
   39CHL1    C6 2821   0.463   6.351   6.999 -0.6208 -0.1851 -0.1082
   39CHL1    H6 2822   0.395   6.279   6.952 -0.6527 -1.8848  2.3379
   39CHL1    C7 2823   0.462   6.352   7.150  0.1546  0.1087  0.4376
   39CHL1   H7A 2824   0.364   6.336   7.199 -0.4582  1.3757 -0.3145
   39CHL1   H7B 2825   0.528   6.271   7.186  0.4891 -1.5362 -3.3576
   39CHL1    C8 2826   0.532   6.478   7.205  0.4378  0.0605 -0.8613
   39CHL1    H8 2827   0.460   6.562   7.194  2.3526  1.9638  0.3808
   39CHL1   C14 2828   0.582   6.452   7.347 -0.4470  0.3639 -0.0222
   39CHL1   H14 2829   0.665   6.380   7.330  0.2432  1.5552 -2.0668
   39CHL1   C15 2830   0.496   6.382   7.454  0.7641 -0.0982 -1.2449
   39CHL1  H15A 2831   0.396   6.429   7.442 -0.4141 -2.2422 -0.3787
   39CHL1  H15B 2832   0.491   6.275   7.427 -0.1913  0.1728 -2.2210
   39CHL1   C16 2833   0.536   6.427   7.594 -0.2763  0.6730  0.6897
   39CHL1  H16A 2834   0.457   6.484   7.646  1.6584  0.3874  4.2134
   39CHL1  H16B 2835   0.564   6.342   7.660 -1.8226 -0.6602 -0.2935
   39CHL1   C17 2836   0.658   6.526   7.562  0.2357  1.0721 -0.0843
   39CHL1   H17 2837   0.746   6.459   7.562  0.8144  1.7759  1.6318
   39CHL1   C13 2838   0.632   6.573   7.421  1.0390 -0.4588 -0.2212
   39CHL1   C18 2839   0.525   6.686   7.434 -0.1876 -0.5271 -0.5106
   39CHL1  H18A 2840   0.479   6.707   7.336  1.2688  1.0983 -0.8850
   39CHL1  H18B 2841   0.449   6.653   7.508  0.5410 -0.9148  0.0783
   39CHL1  H18C 2842   0.576   6.780   7.466 -1.2649 -0.1778  0.2474
   39CHL1   C12 2843   0.748   6.621   7.345 -0.4243 -0.1545 -0.2440
   39CHL1  H12A 2844   0.780   6.721   7.381 -0.2898 -0.3384  0.1502
   39CHL1  H12B 2845   0.828   6.545   7.354 -1.8473 -1.5196  1.6490
   39CHL1   C11 2846   0.711   6.652   7.196  0.1558 -0.3438  0.1137
   39CHL1  H11A 2847   0.630   6.726   7.214 -0.2557 -0.8670  0.4426
   39CHL1  H11B 2848   0.792   6.707   7.144 -0.8411 -0.8245 -2.0497
   39CHL1    C9 2849   0.650   6.529   7.126  0.0959  0.6812  0.6080
   39CHL1    H9 2850   0.727   6.450   7.127 -1.4018 -0.8410  0.8140
   39CHL1   C10 2851   0.609   6.551   6.980  0.5573  0.4637  0.8465
   39CHL1   C19 2852   0.531   6.689   6.958 -0.6144 -0.1918 -0.0544
   39CHL1  H19A 2853   0.602   6.768   6.992 -1.9700  1.5950 -1.1896
   39CHL1  H19B 2854   0.502   6.701   6.852 -1.3173  0.1994  0.1761
   39CHL1  H19C 2855   0.437   6.686   7.017 -1.1521  1.4252 -0.7721
   39CHL1    C1 2856   0.746   6.543   6.899  0.2250 -0.4760  0.3098
   39CHL1   H1A 2857   0.815   6.625   6.927 -0.5721  0.3073  0.0121
   39CHL1   H1B 2858   0.790   6.445   6.929  0.8605 -0.0965  0.6468
   39CHL1    C2 2859   0.716   6.553   6.746  0.6046  0.9176 -0.1559
   39CHL1   H2A 2860   0.808   6.566   6.686  0.0783  2.6210 -0.6449
   39CHL1   H2B 2861   0.667   6.652   6.730 -2.4839 -0.7798 -2.2846
   39CHL1   C20 2862   0.679   6.616   7.680  0.8355 -0.1487  0.4784
   39CHL1   H20 2863   0.598   6.691   7.666 -0.0995 -1.2444 -0.1120
   39CHL1   C21 2864   0.815   6.684   7.674 -0.1643 -0.4766  0.4646
   39CHL1  H21A 2865   0.838   6.751   7.759 -0.0534 -1.2483  1.0576
   39CHL1  H21B 2866   0.808   6.746   7.583 -1.4627 -2.5364 -0.9209
   39CHL1  H21C 2867   0.896   6.609   7.658  0.1038 -0.1309  0.1783
   39CHL1   C22 2868   0.669   6.548   7.820 -0.2056  0.4081 -0.3197
   39CHL1  H22A 2869   0.568   6.500   7.825  0.0274 -0.0129  0.5295
   39CHL1  H22B 2870   0.756   6.479   7.819 -0.0002  0.6610 -1.3790
   39CHL1   C23 2871   0.680   6.638   7.942 -0.4194 -0.4772 -0.6331
   39CHL1  H23A 2872   0.782   6.678   7.954 -1.4530  2.1190  0.1825
   39CHL1  H23B 2873   0.627   6.732   7.914 -1.0359 -0.2926  1.0527
   39CHL1   C24 2874   0.621   6.592   8.075  0.1623 -0.1437 -0.6914
   39CHL1  H24A 2875   0.510   6.584   8.081  0.3337 -2.8023  0.5066
   39CHL1  H24B 2876   0.675   6.495   8.083  0.4635  0.1445  1.2955
   39CHL1   C25 2877   0.668   6.671   8.206 -0.2552  0.3458 -0.3082
   39CHL1   H25 2878   0.779   6.664   8.211 -0.3640 -0.9057  2.9468
   39CHL1   C26 2879   0.661   6.827   8.200  0.2123 -0.1948 -0.4437
   39CHL1  H26A 2880   0.555   6.860   8.196  0.0558 -0.6205  0.0695
   39CHL1  H26B 2881   0.696   6.872   8.295  0.7119 -0.8199 -0.3244
   39CHL1  H26C 2882   0.719   6.878   8.120 -1.3041  1.4961 -0.5341
   39CHL1   C27 2883   0.598   6.619   8.328  0.5486 -0.0496 -0.0551
   39CHL1  H27A 2884   0.600   6.687   8.416  0.9592  0.9533 -0.8243
   39CHL1  H27B 2885   0.490   6.600   8.310  0.7009  0.1188 -1.2004
   39CHL1  H27C 2886   0.630   6.516   8.356 -0.6956 -0.2401  0.7300
   40CHL1    C3 2887   1.752   5.485   6.909  0.2775 -0.1820 -0.1436
   40CHL1    H3 2888   1.843   5.421   6.909 -0.4599 -1.3195  1.6149
   40CHL1    O3 2889   1.692   5.468   6.783  0.0233  0.0266 -0.0644
   40CHL1   H3' 2890   1.610   5.421   6.796 -0.7940  2.0323  3.0503
   40CHL1    C4 2891   1.660   5.438   7.024 -0.7011  0.2315  0.5380
   40CHL1   H4A 2892   1.572   5.505   7.030  0.0505  1.3285 -0.4483
   40CHL1   H4B 2893   1.635   5.333   6.997  2.2636 -0.5018  0.3577
   40CHL1    C5 2894   1.739   5.453   7.154  1.0102  0.1803 -0.1045
   40CHL1    C6 2895   1.750   5.344   7.235  0.1146  0.2552  0.0754
   40CHL1    H6 2896   1.698   5.250   7.212 -1.9154  0.6731  2.4858
   40CHL1    C7 2897   1.805   5.355   7.377 -0.2370  0.4154 -0.5448
   40CHL1   H7A 2898   1.744   5.292   7.446  0.1716 -1.7986 -2.0856
   40CHL1   H7B 2899   1.904   5.305   7.382  0.2929  1.5082  0.0386
   40CHL1    C8 2900   1.820   5.494   7.435  0.8731 -0.0735 -0.3169
   40CHL1    H8 2901   1.716   5.523   7.460  0.9076 -0.0432 -0.2046
   40CHL1   C14 2902   1.906   5.491   7.562  0.1866  0.1657  0.2416
   40CHL1   H14 2903   2.006   5.451   7.536 -0.0317 -1.8927  2.2890
   40CHL1   C15 2904   1.871   5.400   7.681 -0.6582  0.3362 -0.7137
   40CHL1  H15A 2905   1.762   5.391   7.704 -0.2810  0.3131  1.2686
   40CHL1  H15B 2906   1.900   5.295   7.660 -0.3806 -0.3616  2.5905
   40CHL1   C16 2907   1.951   5.453   7.799 -0.5896  0.1789  0.0190
   40CHL1  H16A 2908   1.888   5.478   7.887  1.3143  1.5424  1.0915
   40CHL1  H16B 2909   2.034   5.383   7.824  0.3064  1.1320 -0.2301
   40CHL1   C17 2910   2.015   5.585   7.747 -0.5230  0.0686  0.1362
   40CHL1   H17 2911   2.116   5.567   7.704 -0.5594  0.5364 -0.1515
   40CHL1   C13 2912   1.940   5.627   7.620  0.4195 -0.2136  0.5735
   40CHL1   C18 2913   1.811   5.705   7.656 -0.2033  0.4211  0.9162
   40CHL1  H18A 2914   1.747   5.730   7.569  0.7438  0.4052  0.2057
   40CHL1  H18B 2915   1.747   5.649   7.728 -0.7457  2.8740  2.4636
   40CHL1  H18C 2916   1.846   5.797   7.709  0.1170  0.5323  0.5145
   40CHL1   C12 2917   2.015   5.704   7.515  0.0178  0.1193 -0.1468
   40CHL1  H12A 2918   2.063   5.799   7.547  2.7476 -0.6783 -1.5024
   40CHL1  H12B 2919   2.109   5.646   7.501 -0.0413 -0.3626  1.3548
   40CHL1   C11 2920   1.931   5.720   7.378 -0.8346 -0.0237  0.2706
   40CHL1  H11A 2921   1.850   5.794   7.397 -0.6878  0.5336 -1.1491
   40CHL1  H11B 2922   1.998   5.778   7.310 -3.5882  3.4610  0.2480
   40CHL1    C9 2923   1.886   5.585   7.322  0.1368  0.2928  0.1358
   40CHL1    H9 2924   1.981   5.536   7.292  0.4078  1.6176 -1.2790
   40CHL1   C10 2925   1.799   5.592   7.190  0.3695  0.1925 -0.1294
   40CHL1   C19 2926   1.681   5.686   7.217 -0.4177  0.1303  0.8012
   40CHL1  H19A 2927   1.596   5.674   7.147 -0.3179  2.1274  0.2891
   40CHL1  H19B 2928   1.629   5.664   7.313 -2.3386 -0.2872 -0.2889
   40CHL1  H19C 2929   1.710   5.793   7.226 -0.5144  0.1630  0.7222
   40CHL1    C1 2930   1.882   5.638   7.075  0.0181  0.0247 -0.0017
   40CHL1   H1A 2931   1.924   5.740   7.088 -0.3927  0.0809  0.9625
   40CHL1   H1B 2932   1.969   5.569   7.076  0.8954  1.0693  2.1606
   40CHL1    C2 2933   1.813   5.626   6.941  0.3323  0.4045  0.1035
   40CHL1   H2A 2934   1.896   5.639   6.869  1.5523 -1.4359  1.0770
   40CHL1   H2B 2935   1.736   5.706   6.940  0.7296  0.8089  1.1862
   40CHL1   C20 2936   2.037   5.684   7.859  0.4643 -0.2078  0.9577
   40CHL1   H20 2937   1.942   5.717   7.906 -0.6177 -0.2398 -1.1170
   40CHL1   C21 2938   2.096   5.825   7.816 -0.0086  0.7556  0.6512
   40CHL1  H21A 2939   2.099   5.898   7.900  2.1981  0.8414  0.5666
   40CHL1  H21B 2940   2.042   5.872   7.731  0.3688 -0.4488 -0.2781
   40CHL1  H21C 2941   2.204   5.815   7.790 -0.3182 -0.8799 -0.1144
   40CHL1   C22 2942   2.114   5.620   7.978  0.5399 -0.1487  0.8879
   40CHL1  H22A 2943   2.115   5.690   8.064  2.0223  0.6925  0.2191
   40CHL1  H22B 2944   2.053   5.534   8.014  1.8833 -0.9634  1.2550
   40CHL1   C23 2945   2.249   5.569   7.939  0.8843 -0.0181  0.9751
   40CHL1  H23A 2946   2.236   5.473   7.885  0.1646  1.5238 -1.7921
   40CHL1  H23B 2947   2.286   5.642   7.863 -0.6305 -0.6865 -0.4497
   40CHL1   C24 2948   2.328   5.539   8.063  1.0323  0.1198  0.1159
   40CHL1  H24A 2949   2.412   5.471   8.037  0.9657  0.0346  0.1246
   40CHL1  H24B 2950   2.364   5.638   8.100  2.3013 -0.4240  0.3912
   40CHL1   C25 2951   2.257   5.467   8.176 -0.3783  0.0374 -0.1796
   40CHL1   H25 2952   2.161   5.517   8.203 -0.2936 -0.1320  0.4491
   40CHL1   C26 2953   2.219   5.323   8.142 -0.4704 -0.2206 -1.0042
   40CHL1  H26A 2954   2.302   5.255   8.112 -0.4425 -0.2368 -0.8901
   40CHL1  H26B 2955   2.163   5.263   8.216 -0.3925 -1.3824 -1.8545
   40CHL1  H26C 2956   2.149   5.330   8.056 -1.0184  2.9317 -0.4031
   40CHL1   C27 2957   2.346   5.478   8.304 -0.4052 -0.4702 -0.3889
   40CHL1  H27A 2958   2.450   5.445   8.279 -0.4403 -1.2065  0.4292
   40CHL1  H27B 2959   2.343   5.579   8.349  1.4989 -0.7394  0.4584
   40CHL1  H27C 2960   2.299   5.416   8.383  1.0186 -0.2310  0.6736
   41CHL1    C3 2961   2.445   4.732   6.920 -0.0330 -0.6006  1.0566
   41CHL1    H3 2962   2.393   4.634   6.912  1.5649 -1.4958  1.3491
   41CHL1    O3 2963   2.467   4.790   6.795 -0.1361 -0.0310 -0.1630
   41CHL1   H3' 2964   2.500   4.717   6.741 -0.3319  0.0486 -0.3924
   41CHL1    C4 2965   2.361   4.824   7.015 -0.5306 -0.1438  0.3180
   41CHL1   H4A 2966   2.400   4.927   7.012  0.9372 -0.6774  0.1010
   41CHL1   H4B 2967   2.262   4.822   6.964  0.3528 -0.5866 -1.4659
   41CHL1    C5 2968   2.349   4.784   7.151 -0.7699 -0.5598 -0.5037
   41CHL1    C6 2969   2.232   4.779   7.213 -0.9466  0.7382  0.5307
   41CHL1    H6 2970   2.140   4.803   7.158 -0.8994  0.4707  0.3320
   41CHL1    C7 2971   2.212   4.745   7.360  0.7956 -0.5759 -0.7129
   41CHL1   H7A 2972   2.148   4.828   7.399  0.6096  0.2350 -2.6555
   41CHL1   H7B 2973   2.162   4.648   7.384 -0.1738  0.2252  0.6869
   41CHL1    C8 2974   2.352   4.733   7.441  0.5377  0.2164 -0.7562
   41CHL1    H8 2975   2.386   4.835   7.467  1.1793 -0.0716 -0.4359
   41CHL1   C14 2976   2.334   4.655   7.569 -0.5532 -0.2757  0.2086
   41CHL1   H14 2977   2.289   4.562   7.529 -2.2132 -0.2406  1.8840
   41CHL1   C15 2978   2.235   4.703   7.666  0.0977 -0.3510 -0.1514
   41CHL1  H15A 2979   2.248   4.811   7.684 -0.7806 -0.5733  2.0110
   41CHL1  H15B 2980   2.129   4.694   7.635 -0.5959 -2.3106  2.4790
   41CHL1   C16 2981   2.276   4.630   7.799  0.1134 -0.7393  0.3066
   41CHL1  H16A 2982   2.273   4.708   7.878  0.9442  1.2716 -1.5479
   41CHL1  H16B 2983   2.198   4.554   7.823  2.4310 -3.2865  0.1973
   41CHL1   C17 2984   2.412   4.561   7.774 -0.2630  0.1481 -0.4828
   41CHL1   H17 2985   2.394   4.455   7.746 -0.7180 -0.5290  2.1366
   41CHL1   C13 2986   2.462   4.623   7.647 -0.0091  0.0131  0.5714
   41CHL1   C18 2987   2.531   4.754   7.700 -0.6083  0.2812  0.3424
   41CHL1  H18A 2988   2.553   4.810   7.606  0.3144 -1.4928 -0.5501
   41CHL1  H18B 2989   2.466   4.812   7.768 -1.0974  2.4099 -1.7743
   41CHL1  H18C 2990   2.628   4.741   7.752  0.5191 -0.2500 -1.7659
   41CHL1   C12 2991   2.555   4.544   7.555 -0.5059  0.0658 -0.6130
   41CHL1  H12A 2992   2.657   4.547   7.597 -0.6968  0.4451 -0.1647
   41CHL1  H12B 2993   2.520   4.439   7.561  3.2133 -1.4055 -2.1780
   41CHL1   C11 2994   2.579   4.609   7.414  0.3715 -0.2033  0.3492
   41CHL1  H11A 2995   2.638   4.697   7.445 -0.9077  0.6993  0.3172
   41CHL1  H11B 2996   2.646   4.548   7.351 -1.4040  0.2813 -2.1630
   41CHL1    C9 2997   2.456   4.659   7.350  0.4821 -0.1024  0.0015
   41CHL1    H9 2998   2.408   4.564   7.320  1.1137 -1.0850  1.9518
   41CHL1   C10 2999   2.488   4.741   7.214  1.0231  0.2602  0.1387
   41CHL1   C19 3000   2.573   4.869   7.251  0.3746 -0.8953  0.3669
   41CHL1  H19A 3001   2.671   4.851   7.300  1.0945  1.1249 -0.2347
   41CHL1  H19B 3002   2.592   4.936   7.164  2.4522 -0.6724  0.9282
   41CHL1  H19C 3003   2.514   4.933   7.320  0.2770  0.8696 -1.2740
   41CHL1    C1 3004   2.562   4.640   7.118  0.1078 -0.6117 -0.7197
   41CHL1   H1A 3005   2.664   4.626   7.161 -0.7853 -1.9717  1.0755
   41CHL1   H1B 3006   2.509   4.543   7.128 -0.9067  0.0024  0.1294
   41CHL1    C2 3007   2.578   4.698   6.977  0.4238  0.0815 -0.6187
   41CHL1   H2A 3008   2.641   4.638   6.907  1.6015  0.5723 -0.0012
   41CHL1   H2B 3009   2.641   4.789   6.982 -0.9102  0.9882  0.2455
   41CHL1   C20 3010   2.492   4.539   7.904 -0.6902  0.5774  0.3497
   41CHL1   H20 3011   2.516   4.641   7.940  1.2248  0.9935 -1.8561
   41CHL1   C21 3012   2.610   4.454   7.874  0.3291 -0.4379 -0.8608
   41CHL1  H21A 3013   2.676   4.515   7.808 -0.2331 -1.4763 -2.4192
   41CHL1  H21B 3014   2.581   4.362   7.819 -0.1831  0.1929 -1.6881
   41CHL1  H21C 3015   2.662   4.431   7.969  1.0820  2.6275 -0.4024
   41CHL1   C22 3016   2.417   4.470   8.016 -0.2932 -0.2967  0.3611
   41CHL1  H22A 3017   2.307   4.480   7.999 -0.6405  1.6377  3.1120
   41CHL1  H22B 3018   2.434   4.361   8.015  0.0164 -0.2558 -0.6736
   41CHL1   C23 3019   2.466   4.525   8.159 -0.0607  0.2519  0.2390
   41CHL1  H23A 3020   2.577   4.531   8.161 -0.0484  1.8586 -1.7688
   41CHL1  H23B 3021   2.437   4.632   8.168  0.2341  0.3288  0.2915
   41CHL1   C24 3022   2.407   4.439   8.268  0.7500 -0.5408 -0.0903
   41CHL1  H24A 3023   2.297   4.445   8.279  0.6302 -0.6750 -1.1463
   41CHL1  H24B 3024   2.424   4.334   8.238 -2.8716 -1.6117  1.1432
   41CHL1   C25 3025   2.446   4.459   8.414  0.0688  0.5100 -0.0374
   41CHL1   H25 3026   2.549   4.418   8.419 -0.1347 -0.4592 -2.3469
   41CHL1   C26 3027   2.438   4.610   8.454 -0.1559 -0.1121  0.3325
   41CHL1  H26A 3028   2.499   4.677   8.389 -0.9860  1.4566  1.1016
   41CHL1  H26B 3029   2.341   4.664   8.445 -0.1734  0.2609  2.2014
   41CHL1  H26C 3030   2.480   4.616   8.557 -0.5189 -0.6228  0.5100
   41CHL1   C27 3031   2.357   4.367   8.497 -0.3408  0.1078 -0.7259
   41CHL1  H27A 3032   2.250   4.397   8.494 -0.4413 -0.2979 -1.2815
   41CHL1  H27B 3033   2.357   4.262   8.462 -0.4784  0.5119 -1.9760
   41CHL1  H27C 3034   2.391   4.372   8.603  0.8008  1.2371 -1.1247
   42CHL1    C3 3035   3.542   0.199   6.854  0.3046 -0.4153  0.1884
   42CHL1    H3 3036   3.478   0.284   6.885  0.1034 -0.2653 -0.6177
   42CHL1    O3 3037   3.518   0.181   6.712  0.3255  0.2288 -0.4500
   42CHL1   H3' 3038   3.573   0.108   6.683 -0.9979 -0.6796 -0.7500
   42CHL1    C4 3039   3.688   0.228   6.889 -0.6256  0.2971  0.1754
   42CHL1   H4A 3040   3.751   0.143   6.854  0.0534  0.0122  1.9853
   42CHL1   H4B 3041   3.717   0.315   6.826 -3.9627  1.1471 -0.3874
   42CHL1    C5 3042   3.701   0.257   7.032 -0.1297  0.1161 -0.3983
   42CHL1    C6 3043   3.726   0.376   7.080 -0.1174  0.4186  0.0160
   42CHL1    H6 3044   3.745   0.450   7.001 -0.8897 -0.1683 -0.7475
   42CHL1    C7 3045   3.742   0.412   7.223  0.7746  0.0399  0.4447
   42CHL1   H7A 3046   3.834   0.468   7.252  0.5142  0.6193  0.1614
   42CHL1   H7B 3047   3.655   0.478   7.241 -0.2692 -0.9420 -0.7752
   42CHL1    C8 3048   3.729   0.284   7.316 -0.9316 -0.3389 -0.2233
   42CHL1    H8 3049   3.830   0.238   7.321 -0.5813  0.4675  0.5690
   42CHL1   C14 3050   3.680   0.322   7.457  0.0762 -0.3735 -0.9540
   42CHL1   H14 3051   3.580   0.367   7.436  0.3021  0.0957 -1.0276
   42CHL1   C15 3052   3.757   0.433   7.530  0.0803 -0.3095 -0.2140
   42CHL1  H15A 3053   3.867   0.417   7.526  0.1428 -0.2313  0.7420
   42CHL1  H15B 3054   3.742   0.532   7.482  0.0393  1.6001  3.3696
   42CHL1   C16 3055   3.708   0.434   7.667  0.3106 -0.3554 -0.4765
   42CHL1  H16A 3056   3.784   0.434   7.748 -1.0109  2.5727  0.9061
   42CHL1  H16B 3057   3.650   0.527   7.680  1.5300  0.9027 -3.2501
   42CHL1   C17 3058   3.618   0.307   7.681  0.4348  0.8973 -0.1436
   42CHL1   H17 3059   3.515   0.341   7.657  0.3402 -0.4277 -1.8274
   42CHL1   C13 3060   3.657   0.215   7.562  0.1449  0.5387  0.4397
   42CHL1   C18 3061   3.792   0.137   7.588 -0.6352  0.6848 -0.0677
   42CHL1  H18A 3062   3.782   0.039   7.640  1.6623  0.6687  0.4307
   42CHL1  H18B 3063   3.840   0.111   7.491 -1.2759  2.0578 -0.7698
   42CHL1  H18C 3064   3.859   0.204   7.646 -0.4149  0.7436 -0.3900
   42CHL1   C12 3065   3.557   0.112   7.510 -0.1225 -0.1817  0.8936
   42CHL1  H12A 3066   3.532   0.030   7.580  0.8229 -1.7651 -0.5327
   42CHL1  H12B 3067   3.463   0.166   7.488 -1.2799 -2.9169 -1.4703
   42CHL1   C11 3068   3.597   0.059   7.370  0.1340 -0.4573 -0.2388
   42CHL1  H11A 3069   3.685  -0.008   7.381 -1.0963 -1.9655  0.8251
   42CHL1  H11B 3070   3.520  -0.005   7.322 -1.3596  0.7472  0.4762
   42CHL1    C9 3071   3.630   0.174   7.268  0.0449 -0.2470 -0.0234
   42CHL1    H9 3072   3.535   0.233   7.267  0.6222  0.7581  1.6863
   42CHL1   C10 3073   3.650   0.138   7.120  0.5898  0.4692 -0.0609
   42CHL1   C19 3074   3.765   0.029   7.114  0.5491 -0.3370  0.0942
   42CHL1  H19A 3075   3.862   0.065   7.155  1.7361 -2.3355 -0.7736
   42CHL1  H19B 3076   3.745  -0.066   7.169 -0.4799 -1.1948 -1.7015
   42CHL1  H19C 3077   3.763   0.004   7.006 -1.7055 -0.9267  0.2074
   42CHL1    C1 3078   3.512   0.084   7.075  0.0953  0.3586  0.6581
   42CHL1   H1A 3079   3.496  -0.017   7.117 -0.7670 -0.1903 -0.8829
   42CHL1   H1B 3080   3.434   0.156   7.108  0.5904  2.4840 -2.3259
   42CHL1    C2 3081   3.502   0.072   6.919  0.2484 -0.7053  0.4469
   42CHL1   H2A 3082   3.404   0.028   6.891  0.1676 -0.3676  0.1875
   42CHL1   H2B 3083   3.574  -0.005   6.885  1.1751 -0.3284  1.5108
   42CHL1   C20 3084   3.605   0.249   7.828  0.5653  0.8146  0.2248
   42CHL1   H20 3085   3.536   0.161   7.824  0.2488  1.0586  0.2608
   42CHL1   C21 3086   3.527   0.353   7.919 -0.0216 -0.3724  0.0220
   42CHL1  H21A 3087   3.435   0.392   7.870  0.0770 -0.8048 -0.5179
   42CHL1  H21B 3088   3.590   0.442   7.941  1.7095 -1.4726 -0.2917
   42CHL1  H21C 3089   3.498   0.307   8.016 -0.3950  0.0337  0.1056
   42CHL1   C22 3090   3.730   0.198   7.896 -0.2118 -0.0795 -0.5147
   42CHL1  H22A 3091   3.765   0.109   7.840 -0.7302 -1.0843  0.7167
   42CHL1  H22B 3092   3.808   0.275   7.917  1.6104 -1.4334 -1.9207
   42CHL1   C23 3093   3.706   0.129   8.036  0.1650  0.3577  0.0954
   42CHL1  H23A 3094   3.646   0.194   8.103 -2.1191 -1.6296  0.1056
   42CHL1  H23B 3095   3.655   0.031   8.026  0.3025  0.3856 -1.0244
   42CHL1   C24 3096   3.833   0.106   8.111 -0.0677  0.5385  0.6920
   42CHL1  H24A 3097   3.915   0.068   8.046 -0.8026 -1.8000  1.0113
   42CHL1  H24B 3098   3.874   0.202   8.147  0.4604  0.3666  0.5597
   42CHL1   C25 3099   3.820  -0.002   8.223  0.0450 -0.1481 -0.3698
   42CHL1   H25 3100   3.787  -0.095   8.173  1.7016  0.1239 -2.1068
   42CHL1   C26 3101   3.963  -0.021   8.281 -0.3378 -0.0746  0.3711
   42CHL1  H26A 3102   4.000   0.078   8.314  2.0726  0.2766 -2.8723
   42CHL1  H26B 3103   3.971  -0.088   8.370  0.8500 -0.1706  0.2196
   42CHL1  H26C 3104   4.029  -0.043   8.194 -0.2663  0.3532  0.3188
   42CHL1   C27 3105   3.717   0.037   8.331 -0.2220 -0.0106 -0.0233
   42CHL1  H27A 3106   3.724  -0.045   8.406  0.7838  1.3300  1.4376
   42CHL1  H27B 3107   3.613   0.038   8.294 -0.0939  0.6936 -0.3792
   42CHL1  H27C 3108   3.744   0.136   8.374  2.0177 -0.2108 -0.8465
   43CHL1    C3 3109   3.948   6.313   6.869 -0.4973  0.2673  0.8973
   43CHL1    H3 3110   3.844   6.332   6.903 -0.4250  0.0111  1.2708
   43CHL1    O3 3111   3.946   6.305   6.725  0.1441 -0.2258 -0.2270
   43CHL1   H3' 3112   4.033   6.274   6.696 -0.2994 -2.9735  1.0233
   43CHL1    C4 3113   4.044   6.421   6.910 -0.7097  0.1141  0.4919
   43CHL1   H4A 3114   4.136   6.382   6.861 -1.9564 -0.2929 -1.6536
   43CHL1   H4B 3115   4.017   6.517   6.861 -1.9676 -0.2670  0.3977
   43CHL1    C5 3116   4.045   6.434   7.058  0.3299 -0.4750 -0.2399
   43CHL1    C6 3117   4.038   6.558   7.120 -0.6332  0.5500 -0.1910
   43CHL1    H6 3118   4.006   6.652   7.072 -0.6658  1.6781  1.9119
   43CHL1    C7 3119   4.049   6.569   7.272 -0.1372 -0.4162 -0.1540
   43CHL1   H7A 3120   4.110   6.659   7.295 -1.0910  1.1198 -3.0868
   43CHL1   H7B 3121   3.946   6.587   7.309  0.2975 -1.2279  1.5410
   43CHL1    C8 3122   4.101   6.444   7.346 -0.3873  0.0686 -0.0699
   43CHL1    H8 3123   4.212   6.438   7.339 -0.3941 -0.2284  0.0439
   43CHL1   C14 3124   4.069   6.452   7.492  0.7033  0.1830  0.3189
   43CHL1   H14 3125   3.958   6.456   7.498  0.7534  0.3197  1.3679
   43CHL1   C15 3126   4.115   6.580   7.557 -0.1466 -0.9649 -0.4440
   43CHL1  H15A 3127   4.221   6.596   7.528 -0.3214  0.7267 -0.2942
   43CHL1  H15B 3128   4.078   6.682   7.531 -1.3803 -1.4507 -0.6499
   43CHL1   C16 3129   4.103   6.545   7.710  0.4523 -0.5986  0.1381
   43CHL1  H16A 3130   4.199   6.573   7.759  0.9143  1.1655 -1.6533
   43CHL1  H16B 3131   4.024   6.605   7.761  1.2678 -0.5637  1.4008
   43CHL1   C17 3132   4.073   6.392   7.722  0.3115  0.7879 -0.1649
   43CHL1   H17 3133   3.962   6.396   7.722  0.2878  4.0157 -2.0694
   43CHL1   C13 3134   4.114   6.334   7.579 -0.1989 -0.6895 -0.2998
   43CHL1   C18 3135   4.264   6.330   7.569 -0.1823  0.5871 -0.6630
   43CHL1  H18A 3136   4.302   6.241   7.624  1.0984 -0.0136 -2.4168
   43CHL1  H18B 3137   4.295   6.308   7.465  0.6617  0.7046 -0.4450
   43CHL1  H18C 3138   4.317   6.423   7.600  0.5884  0.0814 -0.4322
   43CHL1   C12 3139   4.041   6.213   7.523  0.6831  0.0473 -0.3803
   43CHL1  H12A 3140   4.063   6.113   7.567 -0.9742  0.2657  1.0384
   43CHL1  H12B 3141   3.935   6.229   7.553  0.9015 -3.4373  3.0646
   43CHL1   C11 3142   4.058   6.198   7.371 -0.0416 -0.7878  0.3343
   43CHL1  H11A 3143   4.162   6.161   7.354  0.4977  1.1348 -0.7889
   43CHL1  H11B 3144   3.988   6.117   7.339 -1.8565  1.2182 -1.0574
   43CHL1    C9 3145   4.029   6.324   7.285  0.0203 -0.4180  0.1292
   43CHL1    H9 3146   3.919   6.338   7.296  0.1549  0.2542  0.6112
   43CHL1   C10 3147   4.064   6.301   7.142  0.1969 -0.1689  0.9419
   43CHL1   C19 3148   4.210   6.257   7.119  0.3118 -0.3334  0.9372
   43CHL1  H19A 3149   4.276   6.307   7.192 -0.3988  0.1347  1.2729
   43CHL1  H19B 3150   4.211   6.147   7.135  0.0917 -0.8839 -2.2136
   43CHL1  H19C 3151   4.247   6.282   7.018 -1.2153 -0.0413  0.4193
   43CHL1    C1 3152   3.977   6.186   7.083 -0.1734 -0.8305 -0.2038
   43CHL1   H1A 3153   4.001   6.084   7.119  0.5856 -0.3426  0.7072
   43CHL1   H1B 3154   3.866   6.192   7.090 -0.0160  1.8455  3.1940
   43CHL1    C2 3155   3.998   6.181   6.929  0.8338 -0.4633 -0.4665
   43CHL1   H2A 3156   3.941   6.089   6.903 -0.2262 -0.3883  1.4099
   43CHL1   H2B 3157   4.102   6.167   6.894  0.8183 -1.4742 -0.1434
   43CHL1   C20 3158   4.123   6.322   7.850 -0.3230 -0.1853  0.1127
   43CHL1   H20 3159   4.232   6.342   7.861 -0.4339  0.7336 -0.3565
   43CHL1   C21 3160   4.100   6.169   7.829 -0.5808  0.5427 -0.0692
   43CHL1  H21A 3161   4.116   6.109   7.921 -0.1135  3.0528  1.5865
   43CHL1  H21B 3162   4.174   6.129   7.756 -1.6683 -1.4866 -0.1591
   43CHL1  H21C 3163   3.993   6.153   7.803 -0.9588 -0.4666  1.9066
   43CHL1   C22 3164   4.053   6.366   7.973  0.2675  0.5807 -0.3152
   43CHL1  H22A 3165   3.943   6.354   7.961  0.5245 -3.1443 -0.0921
   43CHL1  H22B 3166   4.071   6.301   8.061  3.0363  2.1480  0.4031
   43CHL1   C23 3167   4.089   6.511   8.025  0.8170 -0.0631  0.6175
   43CHL1  H23A 3168   4.075   6.590   7.948  1.4912 -2.8247 -2.5783
   43CHL1  H23B 3169   4.005   6.526   8.097 -1.8576 -3.0366 -1.5702
   43CHL1   C24 3170   4.239   6.527   8.061  0.0993 -0.9814 -0.6386
   43CHL1  H24A 3171   4.299   6.521   7.968  0.3922  2.1899 -0.7660
   43CHL1  H24B 3172   4.261   6.629   8.100  0.9600 -1.1211 -0.7181
   43CHL1   C25 3173   4.284   6.428   8.169  0.0477  0.8871 -0.2694
   43CHL1   H25 3174   4.277   6.331   8.117  0.1889 -0.6189  2.3359
   43CHL1   C26 3175   4.433   6.438   8.195  0.0022  0.4445  0.1880
   43CHL1  H26A 3176   4.459   6.528   8.255  0.9244  0.2250  0.1265
   43CHL1  H26B 3177   4.470   6.351   8.253  1.2064  1.9964  1.8797
   43CHL1  H26C 3178   4.483   6.450   8.097  0.9817 -1.4062  0.4215
   43CHL1   C27 3179   4.208   6.413   8.299 -0.6665  0.6504 -0.1962
   43CHL1  H27A 3180   4.099   6.406   8.282 -0.5561  0.2212 -0.7672
   43CHL1  H27B 3181   4.243   6.323   8.354 -0.2075  1.5033  0.9336
   43CHL1  H27C 3182   4.234   6.487   8.378 -0.2383 -0.5111  0.7879
   44CHL1    C3 3183   5.352   4.216   6.744 -0.0459 -0.7545 -0.1996
   44CHL1    H3 3184   5.245   4.187   6.753 -0.1870  0.2142  1.9407
   44CHL1    O3 3185   5.374   4.234   6.607 -0.3221 -0.1148  0.0687
   44CHL1   H3' 3186   5.467   4.240   6.585 -0.1205  1.5135  1.1360
   44CHL1    C4 3187   5.372   4.340   6.826 -1.2878 -0.2723 -0.4654
   44CHL1   H4A 3188   5.477   4.375   6.822  0.2881 -3.8882  2.7228
   44CHL1   H4B 3189   5.309   4.427   6.797  1.2158  1.3039 -1.5192
   44CHL1    C5 3190   5.353   4.323   6.977  0.1937  0.0404  0.2793
   44CHL1    C6 3191   5.268   4.395   7.054 -0.4962  0.0752  0.5062
   44CHL1    H6 3192   5.227   4.477   6.993  1.3044  0.1335 -0.7022
   44CHL1    C7 3193   5.240   4.376   7.201  0.7513  0.1624  0.1071
   44CHL1   H7A 3194   5.230   4.471   7.258  0.5313 -1.2583  2.5790
   44CHL1   H7B 3195   5.140   4.330   7.217  2.3317 -2.8967  2.2302
   44CHL1    C8 3196   5.342   4.283   7.272  0.0359 -0.3662  0.4554
   44CHL1    H8 3197   5.432   4.349   7.278 -0.0095 -0.3278  0.7118
   44CHL1   C14 3198   5.294   4.233   7.411 -0.1893  1.1794  0.4562
   44CHL1   H14 3199   5.205   4.170   7.389  1.5769 -1.4522  0.3146
   44CHL1   C15 3200   5.267   4.338   7.521  0.3785 -0.6556 -0.4074
   44CHL1  H15A 3201   5.337   4.424   7.518 -1.1693  0.6631 -0.5821
   44CHL1  H15B 3202   5.168   4.385   7.502  0.3362 -0.7592 -0.4440
   44CHL1   C16 3203   5.271   4.262   7.651  0.5327 -1.3155 -0.1002
   44CHL1  H16A 3204   5.337   4.316   7.722  0.6069 -1.6878  0.1134
   44CHL1  H16B 3205   5.173   4.274   7.702  1.2081  0.7723  0.8187
   44CHL1   C17 3206   5.322   4.126   7.620  0.5085  0.0693 -0.0621
   44CHL1   H17 3207   5.234   4.062   7.598  0.3460  0.8488 -1.8821
   44CHL1   C13 3208   5.390   4.136   7.480 -0.1910  0.5321  0.8830
   44CHL1   C18 3209   5.528   4.202   7.498 -0.3298  0.3250 -0.4569
   44CHL1  H18A 3210   5.606   4.127   7.524  1.0451  1.6122 -0.7124
   44CHL1  H18B 3211   5.557   4.267   7.413  1.9977  0.7186  0.5545
   44CHL1  H18C 3212   5.524   4.276   7.581  0.0315 -0.0315 -0.1104
   44CHL1   C12 3213   5.406   4.009   7.396 -0.6613  0.1023 -0.5490
   44CHL1  H12A 3214   5.490   3.946   7.433  1.7246  2.0672 -2.2815
   44CHL1  H12B 3215   5.317   3.944   7.384 -0.1802 -1.0771  1.7182
   44CHL1   C11 3216   5.452   4.050   7.249 -0.1926 -0.3686 -0.1559
   44CHL1  H11A 3217   5.561   4.070   7.240 -0.1708 -0.3633  0.1316
   44CHL1  H11B 3218   5.432   3.960   7.186  2.3885 -0.7530 -0.5356
   44CHL1    C9 3219   5.368   4.163   7.181 -0.5287  0.0611  0.1069
   44CHL1    H9 3220   5.266   4.122   7.165 -0.6929  0.3443  0.4302
   44CHL1   C10 3221   5.425   4.197   7.038 -0.0402  0.1688 -0.2480
   44CHL1   C19 3222   5.570   4.249   7.050 -0.7150 -0.1439 -0.4204
   44CHL1  H19A 3223   5.606   4.256   6.945 -1.9606 -0.3043 -0.8824
   44CHL1  H19B 3224   5.575   4.340   7.113  1.0705 -1.6401  1.7164
   44CHL1  H19C 3225   5.644   4.179   7.094  1.5661  0.0918 -3.5637
   44CHL1    C1 3226   5.426   4.073   6.950 -0.5894  0.1171  0.7416
   44CHL1   H1A 3227   5.501   3.999   6.986  0.0681  1.1260  1.5109
   44CHL1   H1B 3228   5.336   4.011   6.968  0.2045 -1.2511  0.1614
   44CHL1    C2 3229   5.438   4.097   6.797 -0.2230 -0.2076 -0.2328
   44CHL1   H2A 3230   5.399   4.012   6.738  0.4820 -1.6946  1.3659
   44CHL1   H2B 3231   5.543   4.118   6.765  0.6870 -2.0084  1.3580
   44CHL1   C20 3232   5.400   4.065   7.737 -0.1850  0.3069 -0.9674
   44CHL1   H20 3233   5.502   4.110   7.739 -0.0033  0.1981  3.7090
   44CHL1   C21 3234   5.413   3.909   7.719  0.0549 -0.4293 -0.3989
   44CHL1  H21A 3235   5.450   3.866   7.814  2.3113 -0.1441 -1.0919
   44CHL1  H21B 3236   5.487   3.870   7.646 -0.5178 -1.6704 -0.3340
   44CHL1  H21C 3237   5.316   3.863   7.690  0.9990 -1.0544 -2.8622
   44CHL1   C22 3238   5.344   4.102   7.878 -0.2796  0.4005 -0.6350
   44CHL1  H22A 3239   5.362   4.211   7.892 -1.8555  0.4552  1.6117
   44CHL1  H22B 3240   5.233   4.092   7.876 -0.1488 -1.4198 -0.7707
   44CHL1   C23 3241   5.386   4.032   8.008  0.5881  0.7459  0.9077
   44CHL1  H23A 3242   5.341   3.931   7.995 -2.0992  1.9768 -0.0192
   44CHL1  H23B 3243   5.497   4.032   8.010  0.5792  1.3071  1.5271
   44CHL1   C24 3244   5.320   4.092   8.134 -0.1110 -0.3832 -0.3870
   44CHL1  H24A 3245   5.336   4.202   8.146 -0.6173 -0.3693  0.2696
   44CHL1  H24B 3246   5.211   4.081   8.117  0.0860 -0.2380 -1.8233
   44CHL1   C25 3247   5.351   4.018   8.269  0.4948  0.1127  0.2173
   44CHL1   H25 3248   5.297   4.075   8.348  0.4683 -0.5177  0.6563
   44CHL1   C26 3249   5.298   3.876   8.263  0.4159  0.0077 -0.6579
   44CHL1  H26A 3250   5.191   3.870   8.235 -0.7795 -0.3118  3.3454
   44CHL1  H26B 3251   5.357   3.815   8.191  1.7324  2.0770 -1.4305
   44CHL1  H26C 3252   5.315   3.833   8.364 -2.6463 -0.1115 -0.1023
   44CHL1   C27 3253   5.498   4.014   8.308  0.0612 -0.7666 -0.0320
   44CHL1  H27A 3254   5.535   4.118   8.319 -1.5641 -0.2045  0.2938
   44CHL1  H27B 3255   5.519   3.979   8.412 -0.5496  1.9397  1.0852
   44CHL1  H27C 3256   5.567   3.976   8.229  0.7821 -0.3102  0.3640
   45CHL1    C3 3257   0.406   2.337   6.863  0.4873  0.1474  0.0744
   45CHL1    H3 3258   0.342   2.252   6.896 -2.0169  1.3587 -1.3324
   45CHL1    O3 3259   0.415   2.330   6.723 -0.3894 -0.5531 -0.0107
   45CHL1   H3' 3260   0.504   2.359   6.699  0.4072 -0.2401  2.8959
   45CHL1    C4 3261   0.323   2.468   6.897 -0.1093 -0.1666  0.4510
   45CHL1   H4A 3262   0.381   2.543   6.838  1.4481 -0.7862  1.1489
   45CHL1   H4B 3263   0.223   2.464   6.849 -0.6651  1.2766  1.4150
   45CHL1    C5 3264   0.321   2.489   7.046 -0.2772 -0.6375 -0.5802
   45CHL1    C6 3265   0.202   2.500   7.109  0.0259 -0.9088 -0.5939
   45CHL1    H6 3266   0.112   2.491   7.045 -0.4942  2.1612 -0.4288
   45CHL1    C7 3267   0.177   2.513   7.259 -0.1339 -0.6998 -0.1741
   45CHL1   H7A 3268   0.100   2.592   7.272  2.2068  1.9372 -1.4560
   45CHL1   H7B 3269   0.131   2.418   7.297 -1.4237 -0.7813 -1.8056
   45CHL1    C8 3270   0.306   2.564   7.332 -0.3295  0.1543 -0.7173
   45CHL1    H8 3271   0.307   2.674   7.312 -0.4179  0.1152 -0.9405
   45CHL1   C14 3272   0.292   2.545   7.484 -0.4531  0.2167  0.3186
   45CHL1   H14 3273   0.281   2.435   7.490  0.7282 -0.0166 -1.2249
   45CHL1   C15 3274   0.170   2.609   7.556  0.4868  0.0128  0.0203
   45CHL1  H15A 3275   0.135   2.711   7.532 -2.7359 -1.4054 -2.0383
   45CHL1  H15B 3276   0.081   2.548   7.529 -0.9177  1.4679  1.1677
   45CHL1   C16 3277   0.204   2.589   7.704 -0.4251  0.3221  0.7356
   45CHL1  H16A 3278   0.184   2.686   7.755  1.7629  1.9933 -1.3301
   45CHL1  H16B 3279   0.144   2.509   7.752  0.0962 -1.3819 -1.2804
   45CHL1   C17 3280   0.353   2.552   7.713  0.3383  0.1616  0.2990
   45CHL1   H17 3281   0.371   2.444   7.730  2.4499 -0.0363 -2.4367
   45CHL1   C13 3282   0.408   2.578   7.572 -0.1864  0.0035  0.4785
   45CHL1   C18 3283   0.439   2.726   7.551  0.0625 -0.4930  0.0921
   45CHL1  H18A 3284   0.437   2.743   7.441 -1.0889 -3.8924 -0.5380
   45CHL1  H18B 3285   0.364   2.788   7.606 -0.0402 -2.2118  2.0303
   45CHL1  H18C 3286   0.532   2.762   7.600 -0.6628 -0.2824  1.3680
   45CHL1   C12 3287   0.526   2.500   7.519  0.6127  0.1397 -1.3091
   45CHL1  H12A 3288   0.619   2.525   7.574  0.1279 -0.0687 -0.3820
   45CHL1  H12B 3289   0.509   2.392   7.541  0.7813  0.3307 -0.1699
   45CHL1   C11 3290   0.554   2.520   7.367 -0.6849 -0.1923 -0.2423
   45CHL1  H11A 3291   0.599   2.621   7.360 -1.9738  0.7382  3.1980
   45CHL1  H11B 3292   0.632   2.454   7.324 -0.1304  0.0357  0.4052
   45CHL1    C9 3293   0.428   2.493   7.277 -0.4171  1.5698 -0.2793
   45CHL1    H9 3294   0.393   2.389   7.297 -1.0895  1.8126 -0.1772
   45CHL1   C10 3295   0.454   2.497   7.123  0.0185  0.0858 -0.1057
   45CHL1   C19 3296   0.514   2.635   7.101 -0.8037  0.3356  0.7578
   45CHL1  H19A 3297   0.463   2.721   7.150 -0.0137  0.6490  1.0407
   45CHL1  H19B 3298   0.621   2.625   7.128  0.1349 -0.6808 -2.8275
   45CHL1  H19C 3299   0.525   2.651   6.992  0.4166 -2.0271  0.4675
   45CHL1    C1 3300   0.548   2.377   7.082 -0.2806  0.2712 -0.2017
   45CHL1   H1A 3301   0.649   2.381   7.128 -1.4772 -1.1040  2.8239
   45CHL1   H1B 3302   0.511   2.282   7.124  0.9917 -1.3794 -2.5886
   45CHL1    C2 3303   0.550   2.334   6.934  0.4818 -1.5637 -0.3533
   45CHL1   H2A 3304   0.609   2.244   6.908  0.4014 -1.1155 -2.2251
   45CHL1   H2B 3305   0.614   2.410   6.884  1.6855 -1.0145  1.8946
   45CHL1   C20 3306   0.412   2.618   7.841  0.1172 -0.4375 -0.5609
   45CHL1   H20 3307   0.405   2.729   7.842  2.1286 -0.2459  1.4125
   45CHL1   C21 3308   0.567   2.598   7.841  0.0593  0.7260 -0.2353
   45CHL1  H21A 3309   0.618   2.673   7.776  1.9955 -0.5452 -0.2633
   45CHL1  H21B 3310   0.583   2.493   7.808  0.9493 -0.0833  2.5518
   45CHL1  H21C 3311   0.605   2.612   7.944 -1.5659 -0.0914  0.5079
   45CHL1   C22 3312   0.343   2.572   7.968 -0.1116  0.2239 -0.6718
   45CHL1  H22A 3313   0.232   2.575   7.959 -0.6565 -0.5586  3.5765
   45CHL1  H22B 3314   0.371   2.467   7.988 -2.1088 -0.4742 -1.2780
   45CHL1   C23 3315   0.364   2.657   8.096 -0.2533  0.0948 -0.1762
   45CHL1  H23A 3316   0.323   2.610   8.188 -1.1457  2.9967  1.0159
   45CHL1  H23B 3317   0.474   2.667   8.106  0.0762 -2.2134 -0.9185
   45CHL1   C24 3318   0.307   2.796   8.107 -0.1304  0.8314  0.6234
   45CHL1  H24A 3319   0.351   2.832   8.202  2.1976 -0.1567 -0.0174
   45CHL1  H24B 3320   0.355   2.851   8.024  1.5088 -1.3858 -0.0043
   45CHL1   C25 3321   0.159   2.799   8.106  0.2215  0.3851 -0.4682
   45CHL1   H25 3322   0.125   2.727   8.028  0.9847  0.5845 -0.9998
   45CHL1   C26 3323   0.103   2.748   8.250  0.3069  0.0048  0.1321
   45CHL1  H26A 3324   0.140   2.809   8.335 -0.2971 -3.2854  2.9311
   45CHL1  H26B 3325  -0.007   2.750   8.264  0.3454 -2.7338  1.3357
   45CHL1  H26C 3326   0.138   2.645   8.270  0.6259 -0.4746 -2.5052
   45CHL1   C27 3327   0.088   2.939   8.073 -0.8759  0.5532  0.1109
   45CHL1  H27A 3328   0.111   3.001   8.162  0.7154 -1.5187  1.2219
   45CHL1  H27B 3329   0.129   2.983   7.980 -0.5000  0.3991  0.2035
   45CHL1  H27C 3330  -0.023   2.936   8.085 -0.7473 -0.4091  1.2699
   46CHL1    C3 3331   4.974   4.857   7.100 -0.8517 -0.4737 -0.8834
   46CHL1    H3 3332   4.995   4.965   7.113  0.6654 -0.8296 -0.1435
   46CHL1    O3 3333   4.951   4.825   6.965  0.4991 -0.6255  0.1384
   46CHL1   H3' 3334   4.899   4.898   6.929  0.1327 -0.6210  0.6558
   46CHL1    C4 3335   5.102   4.775   7.147  0.1709 -0.5029  0.2336
   46CHL1   H4A 3336   5.083   4.666   7.134 -2.0275 -0.0993 -0.2594
   46CHL1   H4B 3337   5.183   4.811   7.080  0.0738  0.6082  0.6910
   46CHL1    C5 3338   5.126   4.812   7.291  0.1874 -0.1697 -0.5099
   46CHL1    C6 3339   5.244   4.859   7.327 -0.2002  0.5394 -0.0211
   46CHL1    H6 3340   5.317   4.872   7.246  0.6288  1.3592  0.8311
   46CHL1    C7 3341   5.287   4.859   7.476 -0.0776 -0.0209 -0.0303
   46CHL1   H7A 3342   5.379   4.797   7.478 -0.8952 -1.2423  2.4703
   46CHL1   H7B 3343   5.297   4.965   7.509 -1.6272  1.0213 -2.5844
   46CHL1    C8 3344   5.192   4.797   7.573  0.4531 -0.5600 -0.2148
   46CHL1    H8 3345   5.195   4.686   7.566 -1.2070 -0.7324  0.9986
   46CHL1   C14 3346   5.217   4.844   7.711  0.5048  0.7866  0.6730
   46CHL1   H14 3347   5.190   4.952   7.716  2.0951  1.2126  0.8029
   46CHL1   C15 3348   5.361   4.830   7.764 -0.7829  0.0741 -0.3337
   46CHL1  H15A 3349   5.393   4.727   7.740  1.8585  0.3207  1.6319
   46CHL1  H15B 3350   5.433   4.905   7.724 -1.6108  2.5456  2.4156
   46CHL1   C16 3351   5.344   4.842   7.918 -0.0986 -0.6135 -0.0543
   46CHL1  H16A 3352   5.395   4.754   7.964 -0.6521 -0.4734  0.8584
   46CHL1  H16B 3353   5.392   4.931   7.964  1.0029 -1.2856  0.1474
   46CHL1   C17 3354   5.192   4.847   7.949 -0.2448  0.0646 -1.1396
   46CHL1   H17 3355   5.165   4.954   7.956  0.2906  0.4340 -3.7370
   46CHL1   C13 3356   5.129   4.787   7.823  0.0316  0.1923  0.1787
   46CHL1   C18 3357   5.151   4.631   7.819 -0.1928 -0.0806 -0.5200
   46CHL1  H18A 3358   5.252   4.598   7.850 -0.7433 -0.2389  1.2235
   46CHL1  H18B 3359   5.087   4.589   7.900 -1.9420 -0.7788 -2.1897
   46CHL1  H18C 3360   5.118   4.584   7.724 -0.2100  0.9320 -1.0206
   46CHL1   C12 3361   4.981   4.827   7.795 -0.0517 -0.1381 -0.0816
   46CHL1  H12A 3362   4.916   4.768   7.863 -1.6128  0.2983 -1.1187
   46CHL1  H12B 3363   4.962   4.935   7.810 -2.0238 -0.1489 -1.9377
   46CHL1   C11 3364   4.943   4.795   7.648  0.6315  0.2969  0.0574
   46CHL1  H11A 3365   4.920   4.687   7.653 -2.3497  0.8875  2.3939
   46CHL1  H11B 3366   4.847   4.849   7.631 -0.3010 -1.2210  0.2760
   46CHL1    C9 3367   5.043   4.830   7.535 -0.5913  0.3809  0.0748
   46CHL1    H9 3368   5.041   4.941   7.536  1.0967  0.4418  0.2274
   46CHL1   C10 3369   5.012   4.781   7.394  0.3182 -0.1395  0.3061
   46CHL1   C19 3370   4.999   4.621   7.395 -0.1212 -0.3129  0.2204
   46CHL1  H19A 3371   4.920   4.585   7.464  1.0174 -1.1258  1.1472
   46CHL1  H19B 3372   4.975   4.575   7.296  2.3485 -1.7843  0.2042
   46CHL1  H19C 3373   5.099   4.581   7.423  0.6631  1.2282 -0.2769
   46CHL1    C1 3374   4.875   4.836   7.349  0.2520 -0.3775 -0.5878
   46CHL1   H1A 3375   4.794   4.786   7.405  0.1307 -1.1732 -1.4668
   46CHL1   H1B 3376   4.866   4.943   7.377  1.3098 -0.5446  0.4807
   46CHL1    C2 3377   4.857   4.812   7.194 -0.5347  0.4241  0.4616
   46CHL1   H2A 3378   4.768   4.869   7.158 -2.8593 -2.4786  1.2293
   46CHL1   H2B 3379   4.842   4.703   7.179  1.4203  0.4107 -2.0545
   46CHL1   C20 3380   5.140   4.793   8.088  0.5503  0.4135  0.1153
   46CHL1   H20 3381   5.096   4.692   8.075 -2.3690  1.5883  0.2878
   46CHL1   C21 3382   5.015   4.882   8.133 -0.4605 -0.0348 -0.4159
   46CHL1  H21A 3383   5.058   4.972   8.182  0.9951 -1.4960  1.1217
   46CHL1  H21B 3384   4.947   4.831   8.205 -1.2288 -0.4207 -1.3770
   46CHL1  H21C 3385   4.949   4.910   8.048 -1.2267 -1.4538 -0.3126
   46CHL1   C22 3386   5.249   4.794   8.192 -0.2676 -0.0365  0.2758
   46CHL1  H22A 3387   5.346   4.752   8.156 -0.2683 -1.2196  1.5635
   46CHL1  H22B 3388   5.267   4.902   8.207 -1.3298  0.4643 -1.7258
   46CHL1   C23 3389   5.214   4.731   8.325 -0.3251 -0.1371 -0.1789
   46CHL1  H23A 3390   5.288   4.757   8.404  1.4119 -1.6881 -1.2218
   46CHL1  H23B 3391   5.114   4.766   8.357 -0.4380 -0.9105  0.3382
   46CHL1   C24 3392   5.211   4.577   8.318  0.0222 -0.3212 -0.3404
   46CHL1  H24A 3393   5.127   4.547   8.251 -0.1037 -2.1624  0.5573
   46CHL1  H24B 3394   5.296   4.539   8.256 -0.6507 -1.0087 -0.8644
   46CHL1   C25 3395   5.183   4.504   8.452  0.7603 -0.0862  0.0306
   46CHL1   H25 3396   5.097   4.564   8.490  0.2928 -0.8640  0.2311
   46CHL1   C26 3397   5.140   4.358   8.436  0.2991  0.2682  0.1568
   46CHL1  H26A 3398   5.080   4.347   8.344  0.1737 -0.3714  0.3101
   46CHL1  H26B 3399   5.226   4.291   8.413 -0.6852 -0.1165 -2.7536
   46CHL1  H26C 3400   5.091   4.312   8.524  2.0132 -1.6563  0.1827
   46CHL1   C27 3401   5.305   4.515   8.547 -0.1439  0.3506 -0.4589
   46CHL1  H27A 3402   5.319   4.621   8.574  0.5684  0.3809 -0.9229
   46CHL1  H27B 3403   5.301   4.462   8.644 -3.4113  1.2452  0.0204
   46CHL1  H27C 3404   5.396   4.491   8.488  1.8695 -0.2033  2.6378
   47CHL1    C3 3405   3.639   4.324   7.008  0.3149 -0.3731 -0.5411
   47CHL1    H3 3406   3.570   4.237   7.012  0.9815 -0.8860  0.4839
   47CHL1    O3 3407   3.665   4.339   6.873  0.2292 -0.0203  0.0649
   47CHL1   H3' 3408   3.739   4.280   6.856 -0.9147 -1.3698 -0.4456
   47CHL1    C4 3409   3.576   4.449   7.068  0.6932 -0.3513  0.1742
   47CHL1   H4A 3410   3.640   4.539   7.057  3.2033 -1.9717  0.6102
   47CHL1   H4B 3411   3.481   4.470   7.015 -0.0583 -0.4653  1.4463
   47CHL1    C5 3412   3.546   4.430   7.215 -0.9016 -0.2401 -0.8569
   47CHL1    C6 3413   3.423   4.438   7.268  0.2276 -0.6258 -0.0492
   47CHL1    H6 3414   3.332   4.448   7.207  0.1391 -0.4422  0.1112
   47CHL1    C7 3415   3.399   4.424   7.415 -0.2234  0.8762  0.1545
   47CHL1   H7A 3416   3.318   4.493   7.447 -1.3409 -0.6185  0.6992
   47CHL1   H7B 3417   3.365   4.325   7.452  4.0360 -0.5460  0.9012
   47CHL1    C8 3418   3.526   4.441   7.505 -0.0034 -0.3245 -0.4788
   47CHL1    H8 3419   3.551   4.550   7.504  0.0017 -0.2901  0.8659
   47CHL1   C14 3420   3.489   4.391   7.651 -0.0077  0.3629  0.4485
   47CHL1   H14 3421   3.462   4.286   7.631  0.6438  0.5322 -1.5211
   47CHL1   C15 3422   3.374   4.460   7.718 -0.4590  0.6097  1.2443
   47CHL1  H15A 3423   3.386   4.571   7.717 -1.1279  0.7922 -2.5588
   47CHL1  H15B 3424   3.271   4.438   7.683  0.2906 -0.4744 -0.3930
   47CHL1   C16 3425   3.390   4.407   7.864 -0.0124 -0.1576 -0.1371
   47CHL1  H16A 3426   3.362   4.476   7.947  1.2010 -0.0205  0.1733
   47CHL1  H16B 3427   3.321   4.321   7.876  0.1080 -0.0556  1.5567
   47CHL1   C17 3428   3.538   4.356   7.880  0.6363  0.7301 -0.4537
   47CHL1   H17 3429   3.532   4.247   7.860  1.0221  0.2950  1.5923
   47CHL1   C13 3430   3.602   4.398   7.754 -0.6405  0.6030  0.0965
   47CHL1   C18 3431   3.646   4.542   7.765  0.4260 -0.6495 -0.3125
   47CHL1  H18A 3432   3.573   4.607   7.817  1.4745 -0.7020  1.2750
   47CHL1  H18B 3433   3.739   4.547   7.825  0.4997  0.1704 -0.4818
   47CHL1  H18C 3434   3.676   4.577   7.664  1.2582 -0.7675 -0.1143
   47CHL1   C12 3435   3.716   4.319   7.700  0.1154  0.1549  0.6725
   47CHL1  H12A 3436   3.803   4.343   7.766 -0.0944  1.0963  0.6236
   47CHL1  H12B 3437   3.686   4.212   7.699  2.1943 -0.4708 -0.1773
   47CHL1   C11 3438   3.761   4.349   7.553 -0.1013  0.1130  0.0117
   47CHL1  H11A 3439   3.823   4.441   7.552  1.1229 -0.6621 -2.0879
   47CHL1  H11B 3440   3.831   4.272   7.514 -0.0219  0.5880 -0.8014
   47CHL1    C9 3441   3.638   4.357   7.448  0.2102 -0.1781  0.5355
   47CHL1    H9 3442   3.601   4.252   7.451 -1.3673  0.3067 -0.6875
   47CHL1   C10 3443   3.669   4.390   7.308  0.4189  0.8794  0.4886
   47CHL1   C19 3444   3.753   4.517   7.308 -0.8467 -0.1686  0.0854
   47CHL1  H19A 3445   3.690   4.592   7.360 -3.6158 -2.2175 -0.0711
   47CHL1  H19B 3446   3.847   4.514   7.367 -0.7411  0.6343 -0.0282
   47CHL1  H19C 3447   3.773   4.555   7.205 -0.7628  0.4111  0.3121
   47CHL1    C1 3448   3.738   4.266   7.238 -0.0958 -0.2839  0.4370
   47CHL1   H1A 3449   3.824   4.218   7.290  0.8874 -0.0055 -0.8795
   47CHL1   H1B 3450   3.666   4.181   7.244 -0.9783  0.4668  0.6227
   47CHL1    C2 3451   3.771   4.288   7.084 -0.6752  0.0156 -0.4925
   47CHL1   H2A 3452   3.808   4.192   7.043  0.8545  1.3733 -2.4946
   47CHL1   H2B 3453   3.847   4.364   7.058 -0.2232  0.1333  1.1110
   47CHL1   C20 3454   3.600   4.384   8.014 -0.0032 -0.3624 -0.1797
   47CHL1   H20 3455   3.631   4.491   8.022 -0.9049  0.1138 -2.3828
   47CHL1   C21 3456   3.720   4.290   8.036  0.2666 -0.6779  0.5029
   47CHL1  H21A 3457   3.706   4.182   8.014  2.5839 -0.8106 -0.5757
   47CHL1  H21B 3458   3.758   4.293   8.140 -1.4406 -1.5167  1.1891
   47CHL1  H21C 3459   3.804   4.327   7.974 -0.3503 -1.3519 -0.7650
   47CHL1   C22 3460   3.498   4.360   8.140  0.5038 -0.1219 -0.1734
   47CHL1  H22A 3461   3.558   4.376   8.232  1.2561  1.8770 -0.9342
   47CHL1  H22B 3462   3.413   4.431   8.144 -0.4912 -1.3398  1.1410
   47CHL1   C23 3463   3.446   4.217   8.137 -0.2306 -0.8237 -0.3607
   47CHL1  H23A 3464   3.400   4.193   8.038  1.4305 -0.2945 -1.3094
   47CHL1  H23B 3465   3.527   4.146   8.162 -1.3912 -2.2640 -0.5658
   47CHL1   C24 3466   3.321   4.189   8.231 -0.3475 -0.8023  0.4336
   47CHL1  H24A 3467   3.349   4.225   8.332 -0.4140 -1.9816  0.8836
   47CHL1  H24B 3468   3.229   4.244   8.201  0.0538 -0.7590 -0.7794
   47CHL1   C25 3469   3.279   4.043   8.251 -0.5032  0.0155  0.1051
   47CHL1   H25 3470   3.370   3.980   8.259 -0.7647 -0.3028  0.6345
   47CHL1   C26 3471   3.205   4.019   8.377 -0.4220  0.0614 -0.2913
   47CHL1  H26A 3472   3.266   4.043   8.466  1.1103 -4.2582  0.0433
   47CHL1  H26B 3473   3.108   4.074   8.369 -0.6242 -0.4292 -1.4106
   47CHL1  H26C 3474   3.177   3.911   8.385  1.4659 -0.5369 -1.1594
   47CHL1   C27 3475   3.203   3.986   8.127 -0.1494 -0.5611  0.2892
   47CHL1  H27A 3476   3.264   4.001   8.035 -1.9302 -0.1442 -0.8759
   47CHL1  H27B 3477   3.180   3.878   8.133  0.3323 -0.6538  0.4894
   47CHL1  H27C 3478   3.106   4.040   8.124 -1.2452 -2.2403  2.7392
   48CHL1    C3 3479   1.883   0.303   6.319  0.1856  0.0052  0.4390
   48CHL1    H3 3480   1.850   0.198   6.303 -0.8106 -0.1356  2.9888
   48CHL1    O3 3481   1.913   0.356   6.190 -0.1187 -0.5693  0.2922
   48CHL1   H3' 3482   1.904   0.452   6.192 -1.4555 -0.5546 -2.5239
   48CHL1    C4 3483   1.763   0.380   6.380 -0.3623 -0.0885 -0.0088
   48CHL1   H4A 3484   1.780   0.489   6.371 -0.8723  0.5671  4.4217
   48CHL1   H4B 3485   1.678   0.352   6.315  0.4710  1.2938 -1.7882
   48CHL1    C5 3486   1.739   0.366   6.533 -0.4842  0.4829 -0.6851
   48CHL1    C6 3487   1.619   0.338   6.601 -0.2769  0.2160 -0.5381
   48CHL1    H6 3488   1.526   0.325   6.544 -2.8841  1.4617  3.0897
   48CHL1    C7 3489   1.607   0.328   6.750 -0.7375 -0.3507  0.2907
   48CHL1   H7A 3490   1.533   0.405   6.780  0.6026  1.6573 -1.3246
   48CHL1   H7B 3491   1.565   0.227   6.771 -0.9623 -0.6234 -1.3386
   48CHL1    C8 3492   1.732   0.362   6.842  0.2519 -0.2348  0.5012
   48CHL1    H8 3493   1.744   0.473   6.841 -0.7935 -0.0337 -3.0560
   48CHL1   C14 3494   1.729   0.305   6.981  0.4121  0.4563  0.8859
   48CHL1   H14 3495   1.735   0.196   6.957  0.8088  0.5461  0.5717
   48CHL1   C15 3496   1.595   0.310   7.058  0.1780 -0.4955  0.7417
   48CHL1  H15A 3497   1.565   0.417   7.048  1.8994 -0.0429 -0.0624
   48CHL1  H15B 3498   1.519   0.246   7.009  1.4352 -0.9437 -0.7139
   48CHL1   C16 3499   1.638   0.287   7.201 -0.3437  0.5811 -0.7849
   48CHL1  H16A 3500   1.623   0.381   7.258 -0.9055 -0.6697  1.2557
   48CHL1  H16B 3501   1.576   0.212   7.255  1.0570  0.4959  0.7871
   48CHL1   C17 3502   1.788   0.254   7.202  0.5366 -0.4426  0.4349
   48CHL1   H17 3503   1.801   0.145   7.186  0.4201 -0.4043  0.0708
   48CHL1   C13 3504   1.843   0.335   7.071  0.0424  0.4611 -0.8715
   48CHL1   C18 3505   1.840   0.486   7.111 -0.8980 -0.2471  0.6992
   48CHL1  H18A 3506   1.864   0.541   7.017 -1.2814  0.0213  0.7549
   48CHL1  H18B 3507   1.740   0.515   7.151 -2.4506 -1.8057 -1.7348
   48CHL1  H18C 3508   1.925   0.503   7.180 -1.0027  1.8529  0.3829
   48CHL1   C12 3509   1.979   0.285   7.011 -0.0566  0.5163  0.2765
   48CHL1  H12A 3510   2.074   0.331   7.048  0.0397  0.3144  0.2822
   48CHL1  H12B 3511   1.994   0.182   7.049 -0.9979  0.2859  0.0481
   48CHL1   C11 3512   1.987   0.324   6.858 -0.1267  0.1328 -0.6464
   48CHL1  H11A 3513   2.012   0.432   6.868  2.3562 -0.3698 -0.9905
   48CHL1  H11B 3514   2.080   0.276   6.821 -0.2747 -0.4871 -0.2172
   48CHL1    C9 3515   1.858   0.310   6.775 -0.1871 -0.3736  0.3758
   48CHL1    H9 3516   1.847   0.201   6.756  0.0418  0.0604 -2.6186
   48CHL1   C10 3517   1.873   0.365   6.619  0.0757 -0.3691  0.2112
   48CHL1   C19 3518   1.928   0.508   6.625 -0.6207 -0.7098  0.1242
   48CHL1  H19A 3519   1.945   0.555   6.526 -0.8476  1.8882  1.2279
   48CHL1  H19B 3520   1.867   0.580   6.684  2.1925  0.8365  1.3764
   48CHL1  H19C 3521   2.023   0.524   6.680  0.0245 -0.2165 -1.0940
   48CHL1    C1 3522   1.967   0.273   6.547 -0.0459 -0.5239  0.1213
   48CHL1   H1A 3523   2.065   0.267   6.599  0.1063  0.7353  0.0105
   48CHL1   H1B 3524   1.920   0.173   6.556  0.3165 -0.5815  1.6659
   48CHL1    C2 3525   2.012   0.307   6.402  0.1189  0.4129  0.1249
   48CHL1   H2A 3526   2.082   0.227   6.370 -0.4239  0.1294 -0.3815
   48CHL1   H2B 3527   2.055   0.409   6.388  0.0251  0.5673  0.9168
   48CHL1   C20 3528   1.844   0.282   7.336 -0.2681 -0.4724  0.1310
   48CHL1   H20 3529   1.844   0.389   7.363  2.8335  0.4054 -2.6055
   48CHL1   C21 3530   1.993   0.248   7.334  0.1784  0.2717  0.4458
   48CHL1  H21A 3531   2.020   0.143   7.309 -1.1888 -0.2160  0.9234
   48CHL1  H21B 3532   2.028   0.263   7.439 -1.5012 -3.8325  1.8123
   48CHL1  H21C 3533   2.048   0.319   7.269 -0.8443 -0.2016 -0.9840
   48CHL1   C22 3534   1.765   0.212   7.452  0.0103  0.3166 -0.1526
   48CHL1  H22A 3535   1.656   0.229   7.439  0.0472  1.4420  0.7855
   48CHL1  H22B 3536   1.782   0.104   7.434 -1.3532  0.2247 -1.0016
   48CHL1   C23 3537   1.810   0.242   7.593  0.0692  0.3487  0.2669
   48CHL1  H23A 3538   1.909   0.193   7.607 -0.8511 -1.1724  1.8684
   48CHL1  H23B 3539   1.809   0.351   7.617 -0.4327  0.3609  0.1899
   48CHL1   C24 3540   1.714   0.174   7.694  0.7468 -0.2393  0.5528
   48CHL1  H24A 3541   1.615   0.218   7.669 -0.0125 -1.6811  0.9104
   48CHL1  H24B 3542   1.711   0.067   7.667 -0.8588 -0.1241  0.1906
   48CHL1   C25 3543   1.739   0.203   7.842 -0.0582  0.0892 -0.4527
   48CHL1   H25 3544   1.841   0.168   7.871 -0.3538  0.4471  1.1415
   48CHL1   C26 3545   1.748   0.361   7.865  0.1034  0.3733 -0.6975
   48CHL1  H26A 3546   1.652   0.413   7.847  0.6213  0.9953 -1.7108
   48CHL1  H26B 3547   1.780   0.388   7.968 -0.5069  0.1956 -0.4613
   48CHL1  H26C 3548   1.831   0.404   7.805  1.4765  1.5561  1.8938
   48CHL1   C27 3549   1.632   0.143   7.931 -0.0092 -0.2023 -0.4098
   48CHL1  H27A 3550   1.650   0.127   8.040 -1.2823 -1.5900 -0.3612
   48CHL1  H27B 3551   1.535   0.195   7.919  0.3882  0.5013 -0.6128
   48CHL1  H27C 3552   1.626   0.037   7.897  0.9813  0.6486 -3.4773
   49CHL1    C3 3553   4.905   1.461   6.662 -0.5836 -0.5182  0.4946
   49CHL1    H3 3554   4.882   1.569   6.660 -0.3305 -0.3905 -3.2573
   49CHL1    O3 3555   4.910   1.423   6.522 -0.1116 -0.2984 -0.3330
   49CHL1   H3' 3556   4.908   1.327   6.524  0.8658 -0.3281  1.5893
   49CHL1    C4 3557   5.039   1.427   6.724  0.5232  0.2671 -0.0386
   49CHL1   H4A 3558   5.090   1.333   6.695  0.1213 -0.2581  0.9229
   49CHL1   H4B 3559   5.115   1.500   6.689  2.7734 -1.4704  0.9390
   49CHL1    C5 3560   5.036   1.441   6.875  0.6599 -0.4093  0.1076
   49CHL1    C6 3561   5.120   1.525   6.934 -0.6382 -0.3101 -0.1903
   49CHL1    H6 3562   5.200   1.566   6.871  0.9808 -1.4383  1.0729
   49CHL1    C7 3563   5.128   1.558   7.075 -0.4771  0.0270  0.7754
   49CHL1   H7A 3564   5.237   1.560   7.100 -0.8766 -2.1878  3.0831
   49CHL1   H7B 3565   5.083   1.657   7.096  0.1304  0.5319 -0.2418
   49CHL1    C8 3566   5.048   1.447   7.152 -0.5876 -0.1482  0.2825
   49CHL1    H8 3567   5.114   1.357   7.150 -1.3862 -0.7651 -1.5510
   49CHL1   C14 3568   5.027   1.486   7.300  0.1042  0.4432  0.7987
   49CHL1   H14 3569   4.955   1.568   7.280  0.8303  0.6321 -1.3655
   49CHL1   C15 3570   5.147   1.542   7.364  0.5958 -0.0858  0.0001
   49CHL1  H15A 3571   5.243   1.485   7.358  1.1796  0.6543  1.8875
   49CHL1  H15B 3572   5.170   1.645   7.330 -0.8396  1.6173  3.7554
   49CHL1   C16 3573   5.117   1.536   7.514 -0.5167 -0.4111 -0.1713
   49CHL1  H16A 3574   5.207   1.497   7.566 -1.2539  0.2855  1.7323
   49CHL1  H16B 3575   5.093   1.639   7.547 -1.6380 -0.9908  0.9222
   49CHL1   C17 3576   4.979   1.456   7.530 -0.2033 -0.0749 -0.5417
   49CHL1   H17 3577   4.902   1.536   7.534  2.2576  2.4239  1.7791
   49CHL1   C13 3578   4.969   1.384   7.394  0.2558 -0.0641  0.6302
   49CHL1   C18 3579   5.068   1.260   7.390 -0.3650  0.5934 -0.0740
   49CHL1  H18A 3580   5.172   1.290   7.416 -0.9986 -0.1433  4.0226
   49CHL1  H18B 3581   5.027   1.184   7.459  2.4705 -0.2804  0.7867
   49CHL1  H18C 3582   5.068   1.211   7.291  0.0756  0.6938 -0.1289
   49CHL1   C12 3583   4.826   1.358   7.340  0.4116 -0.4870  0.5003
   49CHL1  H12A 3584   4.774   1.271   7.384 -2.1539  2.1404  3.0989
   49CHL1  H12B 3585   4.759   1.446   7.352  1.2837 -0.1144  3.4771
   49CHL1   C11 3586   4.825   1.330   7.188 -0.1578  0.1756 -0.0524
   49CHL1  H11A 3587   4.859   1.224   7.186  0.4627  0.3818 -1.0072
   49CHL1  H11B 3588   4.721   1.337   7.148 -0.1296  0.3636 -0.0954
   49CHL1    C9 3589   4.915   1.414   7.093  0.8617  0.1533  0.0611
   49CHL1    H9 3590   4.857   1.508   7.078  1.0211  0.2601  0.1252
   49CHL1   C10 3591   4.921   1.370   6.942 -1.0226  0.6221 -0.3289
   49CHL1   C19 3592   4.961   1.228   6.925 -0.1078 -0.2539 -0.1592
   49CHL1  H19A 3593   4.893   1.159   6.980  0.7059 -1.4569 -0.6194
   49CHL1  H19B 3594   4.967   1.198   6.818 -1.5540  1.0775 -0.6600
   49CHL1  H19C 3595   5.064   1.215   6.965  0.4026  2.7503 -0.2321
   49CHL1    C1 3596   4.783   1.390   6.872  0.2196  0.2089  0.6466
   49CHL1   H1A 3597   4.713   1.311   6.906  0.4957 -0.7236 -0.8680
   49CHL1   H1B 3598   4.743   1.493   6.883 -0.5229  0.1086 -0.8859
   49CHL1    C2 3599   4.796   1.374   6.718 -0.2410  0.4759  0.3103
   49CHL1   H2A 3600   4.702   1.411   6.672  1.4176  1.6976 -2.3448
   49CHL1   H2B 3601   4.801   1.266   6.693  0.5134  0.3293  1.0366
   49CHL1   C20 3602   4.959   1.376   7.663 -0.4786 -0.5201  0.4149
   49CHL1   H20 3603   5.036   1.296   7.668 -0.9542 -0.9672  0.6369
   49CHL1   C21 3604   4.824   1.312   7.667  0.9220 -0.2711 -0.1941
   49CHL1  H21A 3605   4.821   1.245   7.578  1.8095 -1.0776  0.3678
   49CHL1  H21B 3606   4.743   1.387   7.668 -0.0997 -1.3460  0.9122
   49CHL1  H21C 3607   4.801   1.242   7.751  1.6853  0.2126  0.4319
   49CHL1   C22 3608   4.973   1.468   7.794 -0.1714 -0.2662 -0.1994
   49CHL1  H22A 3609   5.064   1.530   7.780 -0.7650  1.0367  1.3083
   49CHL1  H22B 3610   4.888   1.540   7.797 -1.5472 -1.8472  2.1173
   49CHL1   C23 3611   4.983   1.387   7.924 -0.4933  0.4784 -0.2186
   49CHL1  H23A 3612   4.917   1.422   8.006  0.3925  2.0755 -0.1440
   49CHL1  H23B 3613   4.936   1.288   7.903 -0.4605  0.6922 -1.3793
   49CHL1   C24 3614   5.135   1.361   7.964  0.1562 -0.2110  1.1058
   49CHL1  H24A 3615   5.171   1.302   7.877  0.2947  0.3568  0.7725
   49CHL1  H24B 3616   5.177   1.463   7.963  0.3437 -0.2927  0.2120
   49CHL1   C25 3617   5.157   1.288   8.094  0.0344 -0.7651 -0.6320
   49CHL1   H25 3618   5.262   1.305   8.125  0.3373 -3.9677  0.4161
   49CHL1   C26 3619   5.066   1.348   8.207  0.2041  0.0397 -0.1296
   49CHL1  H26A 3620   5.108   1.329   8.308  0.8237  1.9989  0.0135
   49CHL1  H26B 3621   5.075   1.458   8.199 -2.2079  0.2403 -0.7252
   49CHL1  H26C 3622   4.964   1.308   8.189  1.0186 -2.6412  0.8012
   49CHL1   C27 3623   5.126   1.139   8.084  0.0792 -0.2073  0.1909
   49CHL1  H27A 3624   5.200   1.081   8.026 -0.6444 -1.4337  0.4664
   49CHL1  H27B 3625   5.124   1.088   8.183 -0.5638  0.9062  0.7740
   49CHL1  H27C 3626   5.029   1.127   8.032  0.2268 -1.1902  0.1362
   50CHL1    C3 3627   1.188   3.233   6.768  0.4722  0.2669  0.9728
   50CHL1    H3 3628   1.291   3.216   6.730  0.4076  0.0166  0.9115
   50CHL1    O3 3629   1.112   3.224   6.648  0.0766  0.0385 -0.0951
   50CHL1   H3' 3630   1.047   3.295   6.651 -0.2362 -0.1716 -1.2826
   50CHL1    C4 3631   1.139   3.112   6.855 -0.5629 -0.1732 -0.6207
   50CHL1   H4A 3632   1.029   3.130   6.852 -0.2914  1.7272 -0.3744
   50CHL1   H4B 3633   1.154   3.017   6.799 -3.1705 -0.1147 -1.5478
   50CHL1    C5 3634   1.199   3.108   6.996 -0.3154 -0.4219  0.1358
   50CHL1    C6 3635   1.276   3.013   7.050 -0.1113 -0.0596 -0.3283
   50CHL1    H6 3636   1.301   2.921   6.995 -0.4791 -0.0210 -0.5662
   50CHL1    C7 3637   1.335   3.032   7.189  0.4795  0.1563 -0.3756
   50CHL1   H7A 3638   1.335   2.930   7.234 -0.1448 -0.1892 -1.1397
   50CHL1   H7B 3639   1.442   3.063   7.187  1.3464 -2.5021  0.6094
   50CHL1    C8 3640   1.268   3.133   7.284 -0.0103  0.0671  0.0082
   50CHL1    H8 3641   1.170   3.083   7.300  0.1165  0.1675  1.1859
   50CHL1   C14 3642   1.342   3.152   7.412 -0.4475 -0.1299 -0.1229
   50CHL1   H14 3643   1.442   3.192   7.384 -0.8174 -0.5844 -2.3220
   50CHL1   C15 3644   1.368   3.020   7.486  0.5361 -0.3490  0.2276
   50CHL1  H15A 3645   1.278   2.958   7.506  1.5368 -2.2942 -0.9682
   50CHL1  H15B 3646   1.447   2.961   7.435  0.6128 -0.0812  0.0348
   50CHL1   C16 3647   1.425   3.082   7.620  0.4495 -0.4341 -0.0542
   50CHL1  H16A 3648   1.377   3.027   7.705 -1.1866  2.6282  1.1471
   50CHL1  H16B 3649   1.535   3.074   7.629  0.3910 -1.6300 -0.2161
   50CHL1   C17 3650   1.389   3.234   7.628  0.4557  0.0565 -0.0643
   50CHL1   H17 3651   1.475   3.291   7.587  0.0616  0.8766  0.2417
   50CHL1   C13 3652   1.286   3.251   7.514  0.1725 -0.2330 -0.1904
   50CHL1   C18 3653   1.147   3.201   7.570 -0.2459 -0.8066 -0.4035
   50CHL1  H18A 3654   1.087   3.275   7.626 -1.2025 -1.9144  0.0886
   50CHL1  H18B 3655   1.085   3.171   7.483 -0.9042  1.3889 -0.7473
   50CHL1  H18C 3656   1.160   3.114   7.639 -1.5258  0.7137  1.8686
   50CHL1   C12 3657   1.270   3.383   7.434 -0.3562 -0.6282  0.6364
   50CHL1  H12A 3658   1.215   3.453   7.500  1.7748  2.3715 -0.5507
   50CHL1  H12B 3659   1.364   3.437   7.411  0.4668 -1.9763  0.6746
   50CHL1   C11 3660   1.186   3.370   7.306  0.2680  0.1880  0.2907
   50CHL1  H11A 3661   1.078   3.351   7.324  0.2027  0.0772 -0.2022
   50CHL1  H11B 3662   1.192   3.469   7.256  1.9831 -0.8770 -1.8049
   50CHL1    C9 3663   1.247   3.261   7.215 -0.3003 -0.2367 -0.0493
   50CHL1    H9 3664   1.343   3.308   7.185 -0.3258 -0.3099 -0.2456
   50CHL1   C10 3665   1.177   3.238   7.073 -0.6151  0.0963 -0.7270
   50CHL1   C19 3666   1.023   3.238   7.097  0.2515  0.2714  0.1737
   50CHL1  H19A 3667   0.983   3.154   7.158 -0.0477  1.2321  1.3231
   50CHL1  H19B 3668   0.984   3.330   7.145 -1.5320  1.0930 -2.6125
   50CHL1  H19C 3669   0.972   3.246   6.998 -0.4494  1.4262  0.6053
   50CHL1    C1 3670   1.225   3.356   6.983 -0.4269  0.2007  0.1510
   50CHL1   H1A 3671   1.198   3.455   7.027 -0.2361  0.2390  0.1838
   50CHL1   H1B 3672   1.336   3.354   6.976 -0.1684 -3.0939  2.6794
   50CHL1    C2 3673   1.166   3.363   6.839  0.5130  0.7405 -0.1480
   50CHL1   H2A 3674   1.209   3.447   6.780  2.9633  0.6220  1.3232
   50CHL1   H2B 3675   1.056   3.368   6.848  0.6123  0.7953  1.4310
   50CHL1   C20 3676   1.357   3.291   7.767 -0.6164  0.0936 -0.5486
   50CHL1   H20 3677   1.252   3.268   7.794 -0.1428 -0.6638  0.7159
   50CHL1   C21 3678   1.384   3.441   7.763 -0.2713  0.2773  0.3469
   50CHL1  H21A 3679   1.327   3.489   7.846 -0.6987  0.8283 -0.2533
   50CHL1  H21B 3680   1.337   3.477   7.669 -2.5150 -2.0672  0.4212
   50CHL1  H21C 3681   1.492   3.463   7.774 -0.7310  2.7386  0.3304
   50CHL1   C22 3682   1.441   3.233   7.886 -0.0636  0.0217  0.7908
   50CHL1  H22A 3683   1.436   3.122   7.881  0.5063  0.0335 -2.8349
   50CHL1  H22B 3684   1.548   3.263   7.887 -0.5188  1.8803 -0.4561
   50CHL1   C23 3685   1.368   3.258   8.022  0.3482  0.6724  1.1013
   50CHL1  H23A 3686   1.362   3.368   8.037 -0.4400  1.0221 -1.3309
   50CHL1  H23B 3687   1.265   3.217   8.031 -0.5594  2.9100  1.4492
   50CHL1   C24 3688   1.458   3.205   8.132  0.2934  0.3681  0.0617
   50CHL1  H24A 3689   1.471   3.095   8.140 -1.9844 -0.0688 -1.5682
   50CHL1  H24B 3690   1.555   3.255   8.110 -0.6396  2.8136  1.1175
   50CHL1   C25 3691   1.401   3.252   8.270  0.0727  0.0150 -0.7324
   50CHL1   H25 3692   1.382   3.361   8.259 -2.4223 -0.2470  0.2798
   50CHL1   C26 3693   1.264   3.199   8.301 -0.2539  0.4519 -0.4265
   50CHL1  H26A 3694   1.193   3.239   8.226  1.0029 -0.2463 -2.0777
   50CHL1  H26B 3695   1.265   3.088   8.306 -1.4203  0.4879  1.3745
   50CHL1  H26C 3696   1.237   3.232   8.403 -0.3814 -0.1033 -0.2786
   50CHL1   C27 3697   1.509   3.215   8.380  0.5763 -0.8516  0.6722
   50CHL1  H27A 3698   1.509   3.104   8.382  2.5734 -1.0668 -2.7865
   50CHL1  H27B 3699   1.611   3.236   8.341  0.0301 -1.0141 -0.9211
   50CHL1  H27C 3700   1.482   3.264   8.476 -0.0440  0.1467  0.0060
   51CHL1    C3 3701   3.110   2.249   6.849  0.8965  0.0967 -0.1727
   51CHL1    H3 3702   3.108   2.360   6.852  0.4818  0.1392 -1.5937
   51CHL1    O3 3703   3.139   2.211   6.718  0.3371 -0.1589  0.6368
   51CHL1   H3' 3704   3.103   2.123   6.702 -1.6184  0.9504 -1.7596
   51CHL1    C4 3705   3.225   2.198   6.939  0.3619 -0.1803 -0.6031
   51CHL1   H4A 3706   3.236   2.093   6.904  0.6191 -0.7897  1.2360
   51CHL1   H4B 3707   3.321   2.247   6.911  1.5583 -0.9040  1.9656
   51CHL1    C5 3708   3.192   2.201   7.090 -0.0713 -0.2314  0.6230
   51CHL1    C6 3709   3.262   2.281   7.168 -0.5132  0.3284  0.3501
   51CHL1    H6 3710   3.336   2.351   7.127 -0.7911  1.0848  1.1097
   51CHL1    C7 3711   3.246   2.285   7.313  0.0218 -0.6108  0.4315
   51CHL1   H7A 3712   3.345   2.277   7.364 -0.6182 -1.3191  1.5935
   51CHL1   H7B 3713   3.208   2.387   7.334  0.3245  0.7073 -4.2346
   51CHL1    C8 3714   3.139   2.185   7.371 -0.1401  0.7531 -0.7150
   51CHL1    H8 3715   3.190   2.086   7.371 -0.8035  0.3330 -3.4682
   51CHL1   C14 3716   3.104   2.231   7.514  0.2712  0.3165 -0.3666
   51CHL1   H14 3717   3.029   2.312   7.505 -2.7959 -2.3959 -1.3122
   51CHL1   C15 3718   3.217   2.280   7.608  0.0463 -0.4170 -0.7039
   51CHL1  H15A 3719   3.305   2.215   7.589  0.8156  0.2231  0.5193
   51CHL1  H15B 3720   3.236   2.388   7.586 -0.1128 -0.4089 -0.7999
   51CHL1   C16 3721   3.159   2.271   7.747 -0.1291 -0.1528  0.0756
   51CHL1  H16A 3722   3.221   2.198   7.802 -1.2435 -0.9746  0.2736
   51CHL1  H16B 3723   3.162   2.370   7.796 -0.0437  0.7431 -1.6524
   51CHL1   C17 3724   3.008   2.216   7.723 -0.3095 -0.0463  0.5025
   51CHL1   H17 3725   2.942   2.305   7.712  1.5336  1.4176  0.7021
   51CHL1   C13 3726   3.015   2.135   7.589  0.1379 -0.5315  0.2446
   51CHL1   C18 3727   3.088   1.998   7.616  0.3267  0.0806 -0.1677
   51CHL1  H18A 3728   3.103   1.948   7.518  2.6522  0.2946  0.0123
   51CHL1  H18B 3729   3.187   2.017   7.664  1.0856  0.8118 -1.9220
   51CHL1  H18C 3730   3.020   1.932   7.674  0.9453  0.0348  0.5293
   51CHL1   C12 3731   2.885   2.118   7.502 -0.0889  0.0212 -0.2752
   51CHL1  H12A 3732   2.819   2.051   7.561 -0.7594 -0.5213 -1.5958
   51CHL1  H12B 3733   2.832   2.215   7.505 -0.9325 -0.3488 -2.0052
   51CHL1   C11 3734   2.908   2.079   7.349 -0.6407  0.1466 -0.3573
   51CHL1  H11A 3735   2.937   1.971   7.347 -0.3976  0.1169  1.8306
   51CHL1  H11B 3736   2.812   2.094   7.294 -1.5407 -2.8679  0.1929
   51CHL1    C9 3737   3.017   2.169   7.284  0.2563 -0.1665 -1.1630
   51CHL1    H9 3738   2.968   2.268   7.277 -0.8100 -0.7389 -2.1718
   51CHL1   C10 3739   3.062   2.133   7.137  0.5113  0.0407  0.8312
   51CHL1   C19 3740   3.077   1.978   7.121  0.0824 -0.2571 -0.2046
   51CHL1  H19A 3741   3.125   1.934   7.211  0.7021  3.2324  1.3410
   51CHL1  H19B 3742   2.977   1.930   7.119  0.2504 -0.6383  0.3924
   51CHL1  H19C 3743   3.127   1.946   7.027 -0.7172  0.2143 -0.8094
   51CHL1    C1 3744   2.956   2.193   7.048  0.3755 -0.4644  0.4277
   51CHL1   H1A 3745   2.866   2.136   7.081 -0.0651 -0.1561 -0.2062
   51CHL1   H1B 3746   2.937   2.297   7.080 -0.8391 -0.2474 -0.8712
   51CHL1    C2 3747   2.974   2.193   6.896 -0.2535  0.0325  0.1952
   51CHL1   H2A 3748   2.894   2.250   6.842  0.4031  0.5762 -0.2205
   51CHL1   H2B 3749   2.971   2.094   6.846  0.0613  0.3916 -0.5538
   51CHL1   C20 3750   2.965   2.142   7.846  0.0715 -0.2671  0.1016
   51CHL1   H20 3751   3.034   2.056   7.849  1.5963  0.6603 -3.3798
   51CHL1   C21 3752   2.820   2.081   7.852 -0.3294  0.2092  0.1030
   51CHL1  H21A 3753   2.809   1.993   7.785  2.3700  0.5902 -0.9870
   51CHL1  H21B 3754   2.745   2.160   7.833 -1.4773 -1.1184 -1.0687
   51CHL1  H21C 3755   2.816   2.046   7.958 -0.2663  2.8382  1.0373
   51CHL1   C22 3756   2.983   2.227   7.976  0.4679 -0.6949 -0.1526
   51CHL1  H22A 3757   2.931   2.171   8.057  2.3233 -0.2774  1.4303
   51CHL1  H22B 3758   3.089   2.234   8.011  0.0555 -0.0078  1.0425
   51CHL1   C23 3759   2.924   2.367   7.977 -0.1564 -0.2646 -0.3668
   51CHL1  H23A 3760   2.990   2.427   7.911 -0.2789  0.9126  0.5437
   51CHL1  H23B 3761   2.819   2.364   7.939 -0.2151 -0.1683 -0.2124
   51CHL1   C24 3762   2.930   2.423   8.120  0.1144  0.1860  0.7441
   51CHL1  H24A 3763   2.857   2.368   8.183 -1.3362 -0.0449 -1.0282
   51CHL1  H24B 3764   3.031   2.418   8.166  0.1213  1.7268  0.9553
   51CHL1   C25 3765   2.883   2.576   8.118  0.4110 -0.2217  1.0378
   51CHL1   H25 3766   2.809   2.588   8.037  1.2607 -1.2856  0.0533
   51CHL1   C26 3767   2.828   2.610   8.255 -0.2296  0.0553  0.1398
   51CHL1  H26A 3768   2.742   2.547   8.285  0.7908 -1.7077 -0.4559
   51CHL1  H26B 3769   2.904   2.618   8.336 -1.8697  1.0446  1.6416
   51CHL1  H26C 3770   2.788   2.713   8.268 -1.7949 -0.3437 -1.2078
   51CHL1   C27 3771   3.003   2.663   8.066 -0.0357  0.0095 -0.1166
   51CHL1  H27A 3772   2.985   2.771   8.087 -0.4020 -0.2135  0.7451
   51CHL1  H27B 3773   3.085   2.640   8.137 -0.0384  0.6417  0.0994
   51CHL1  H27C 3774   3.025   2.639   7.959 -0.7105 -0.3454 -0.1794
   52CHL1    C3 3775   3.578   3.739   6.865  0.3213 -0.1500 -0.4365
   52CHL1    H3 3776   3.685   3.769   6.865  1.1966 -2.8751  1.9965
   52CHL1    O3 3777   3.543   3.721   6.732 -0.1173 -0.1073  0.1386
   52CHL1   H3' 3778   3.450   3.743   6.721  0.1126  0.9479  0.1834
   52CHL1    C4 3779   3.572   3.606   6.938  0.0462  0.0656  0.1799
   52CHL1   H4A 3780   3.475   3.554   6.925 -0.4864  0.4029  2.3279
   52CHL1   H4B 3781   3.649   3.535   6.899 -1.5704 -2.5381  1.4306
   52CHL1    C5 3782   3.590   3.617   7.082  0.1783 -0.0885 -0.0763
   52CHL1    C6 3783   3.669   3.531   7.150 -0.1228  0.2632 -0.7110
   52CHL1    H6 3784   3.714   3.453   7.086  0.7969  1.0672 -1.0596
   52CHL1    C7 3785   3.713   3.546   7.295 -0.0644 -0.2793  0.3472
   52CHL1   H7A 3786   3.699   3.447   7.345 -2.0816 -1.0466 -1.5608
   52CHL1   H7B 3787   3.813   3.594   7.299 -1.4294  2.8285 -0.3096
   52CHL1    C8 3788   3.618   3.642   7.371 -0.0595  0.2957 -0.7495
   52CHL1    H8 3789   3.530   3.584   7.407 -0.4211  2.2371  1.8479
   52CHL1   C14 3790   3.682   3.683   7.505  0.0865  0.0066  0.5013
   52CHL1   H14 3791   3.773   3.741   7.478  1.6171 -2.0537  0.9617
   52CHL1   C15 3792   3.739   3.571   7.597  0.4770  0.0168 -0.3606
   52CHL1  H15A 3793   3.664   3.489   7.590 -0.0324  0.1444  2.3486
   52CHL1  H15B 3794   3.838   3.533   7.564  0.5176  0.7809 -1.1356
   52CHL1   C16 3795   3.753   3.639   7.728 -0.4257 -0.2232 -0.6199
   52CHL1  H16A 3796   3.709   3.562   7.796  3.5485 -1.6716  0.6144
   52CHL1  H16B 3797   3.860   3.656   7.751 -0.1419 -1.5858 -0.8119
   52CHL1   C17 3798   3.676   3.770   7.725  0.0320 -0.3473 -0.2924
   52CHL1   H17 3799   3.751   3.850   7.705 -1.5781  0.8940 -1.6877
   52CHL1   C13 3800   3.588   3.761   7.593  0.0998 -0.5718 -0.5079
   52CHL1   C18 3801   3.453   3.682   7.622 -0.4184  0.3523  0.1273
   52CHL1  H18A 3802   3.395   3.648   7.533 -1.0253  0.5423  0.4423
   52CHL1  H18B 3803   3.485   3.593   7.680  3.2721 -0.2027 -2.4475
   52CHL1  H18C 3804   3.378   3.730   7.688 -0.3865  1.8171 -0.8597
   52CHL1   C12 3805   3.547   3.892   7.516  0.3000  0.2558 -0.1429
   52CHL1  H12A 3806   3.469   3.954   7.566 -0.3276  0.1776 -1.0145
   52CHL1  H12B 3807   3.636   3.958   7.510  0.8241 -0.3536  0.6538
   52CHL1   C11 3808   3.497   3.866   7.373  0.4135 -0.5830 -0.2148
   52CHL1  H11A 3809   3.396   3.822   7.383  0.3439 -0.6029 -0.9536
   52CHL1  H11B 3810   3.501   3.968   7.330  2.7552  0.2936  1.8323
   52CHL1    C9 3811   3.576   3.761   7.294 -0.6716  0.1874 -0.3776
   52CHL1    H9 3812   3.675   3.806   7.272  0.6626 -2.2331  0.2201
   52CHL1   C10 3813   3.521   3.734   7.150  0.6268  0.5593  0.0006
   52CHL1   C19 3814   3.372   3.700   7.171 -0.7856 -0.5270 -0.1755
   52CHL1  H19A 3815   3.317   3.795   7.151 -2.1648 -1.0171  1.0845
   52CHL1  H19B 3816   3.330   3.618   7.110  0.7813 -2.2575  0.9833
   52CHL1  H19C 3817   3.344   3.669   7.274 -1.0409  0.9480  0.2228
   52CHL1    C1 3818   3.536   3.862   7.065  0.3558 -0.3774 -0.7151
   52CHL1   H1A 3819   3.465   3.935   7.108  0.9489 -1.6352  2.6542
   52CHL1   H1B 3820   3.643   3.891   7.073  0.5892 -0.5570 -2.6022
   52CHL1    C2 3821   3.488   3.843   6.923  0.6476  0.1986 -0.0767
   52CHL1   H2A 3822   3.499   3.933   6.858 -1.2463 -1.6338 -3.1940
   52CHL1   H2B 3823   3.381   3.816   6.913  0.5323  0.3627  0.6544
   52CHL1   C20 3824   3.611   3.810   7.859 -0.4370  0.0601  0.4346
   52CHL1   H20 3825   3.536   3.732   7.884 -2.0206  1.7635  1.3106
   52CHL1   C21 3826   3.546   3.947   7.855  0.4603  0.7185  0.6028
   52CHL1  H21A 3827   3.609   4.031   7.819 -1.0708  1.6253 -0.0694
   52CHL1  H21B 3828   3.507   3.984   7.953 -0.3978  0.7518  0.2523
   52CHL1  H21C 3829   3.461   3.941   7.784  1.0710  2.7047 -0.3582
   52CHL1   C22 3830   3.720   3.795   7.970  0.7816 -0.5701 -0.3485
   52CHL1  H22A 3831   3.764   3.693   7.971  3.8040  0.6069 -0.2584
   52CHL1  H22B 3832   3.806   3.860   7.942 -0.8313  0.8247 -2.3302
   52CHL1   C23 3833   3.677   3.839   8.110  0.7132  0.2574 -0.8959
   52CHL1  H23A 3834   3.680   3.950   8.116  0.3290  0.2073  0.5902
   52CHL1  H23B 3835   3.585   3.780   8.127  0.2525  0.2495 -3.1839
   52CHL1   C24 3836   3.795   3.810   8.206  0.4844  0.0376 -0.4761
   52CHL1  H24A 3837   3.813   3.701   8.215  0.2714  0.0087 -0.3823
   52CHL1  H24B 3838   3.880   3.874   8.174  0.9388  0.9921  2.2776
   52CHL1   C25 3839   3.768   3.852   8.356  0.0313  0.5270  0.0004
   52CHL1   H25 3840   3.669   3.808   8.377  0.6928 -1.6082 -1.0538
   52CHL1   C26 3841   3.875   3.799   8.458  0.2304 -0.4343 -0.5266
   52CHL1  H26A 3842   3.882   3.852   8.556  1.5173 -2.1181  0.3354
   52CHL1  H26B 3843   3.862   3.691   8.482  2.6065 -0.6175  0.1469
   52CHL1  H26C 3844   3.969   3.810   8.401  1.2202 -1.3826  0.8444
   52CHL1   C27 3845   3.755   4.005   8.381 -0.5105  0.2925 -0.2317
   52CHL1  H27A 3846   3.844   4.058   8.340 -0.7709 -0.2268 -1.4878
   52CHL1  H27B 3847   3.656   4.033   8.339  0.1573  0.1393 -1.9593
   52CHL1  H27C 3848   3.755   4.017   8.492 -1.1914 -0.1114 -0.1867
   53CHL1    C3 3849   6.383   5.612   7.142 -0.7029  0.5813 -0.1162
   53CHL1    H3 3850   6.442   5.698   7.105  1.0410 -0.7712 -0.6674
   53CHL1    O3 3851   6.344   5.551   7.016 -0.0140 -0.0521 -0.3711
   53CHL1   H3' 3852   6.296   5.619   6.969 -1.0100 -1.2030 -1.0678
   53CHL1    C4 3853   6.479   5.516   7.217  0.0137 -0.4354  0.3170
   53CHL1   H4A 3854   6.426   5.418   7.213 -1.1208  0.1870 -0.7431
   53CHL1   H4B 3855   6.575   5.514   7.161 -0.3464 -0.2552 -0.3176
   53CHL1    C5 3856   6.504   5.559   7.363  0.0841 -0.2781  0.5333
   53CHL1    C6 3857   6.631   5.573   7.405  0.0523  0.2621  0.8075
   53CHL1    H6 3858   6.717   5.548   7.341 -2.0870 -1.8395 -1.4095
   53CHL1    C7 3859   6.668   5.617   7.541 -0.3385  0.8169  0.0149
   53CHL1   H7A 3860   6.737   5.542   7.585 -0.5583  0.2412 -0.6011
   53CHL1   H7B 3861   6.706   5.721   7.542 -0.6043  0.9123  0.7875
   53CHL1    C8 3862   6.550   5.609   7.649 -0.3780 -0.5232  0.6354
   53CHL1    H8 3863   6.520   5.502   7.656 -3.2480  0.2180  1.0473
   53CHL1   C14 3864   6.585   5.660   7.791 -0.4776 -0.3996  0.1563
   53CHL1   H14 3865   6.610   5.766   7.773  1.3997 -0.5632  1.4871
   53CHL1   C15 3866   6.714   5.614   7.862 -0.1446  0.6678 -0.1454
   53CHL1  H15A 3867   6.744   5.507   7.857  0.0537  0.5221  2.7077
   53CHL1  H15B 3868   6.803   5.668   7.823 -0.0938  1.1080  0.5582
   53CHL1   C16 3869   6.689   5.650   8.010 -0.0392  0.6610  0.6284
   53CHL1  H16A 3870   6.700   5.560   8.074 -0.2337  0.0789 -0.1351
   53CHL1  H16B 3871   6.771   5.711   8.051  1.4473 -2.3752  2.5420
   53CHL1   C17 3872   6.546   5.709   8.021 -0.8457 -0.0323  0.0983
   53CHL1   H17 3873   6.560   5.816   7.996 -0.5692 -0.5549 -2.1405
   53CHL1   C13 3874   6.472   5.662   7.890 -0.6317 -0.1170  0.1765
   53CHL1   C18 3875   6.425   5.519   7.923 -0.3449  0.2409 -0.2598
   53CHL1  H18A 3876   6.508   5.461   7.968 -0.1449  1.9658  1.7446
   53CHL1  H18B 3877   6.329   5.507   7.978 -0.4521 -2.0175 -0.8352
   53CHL1  H18C 3878   6.409   5.456   7.833 -2.1307 -2.2451  1.6489
   53CHL1   C12 3879   6.353   5.749   7.833  0.0439  0.8230 -0.0988
   53CHL1  H12A 3880   6.263   5.743   7.899  0.1382 -3.2382 -0.1029
   53CHL1  H12B 3881   6.393   5.852   7.826  2.0861  0.2217  1.6289
   53CHL1   C11 3882   6.318   5.687   7.695 -0.2512  0.0422 -0.0670
   53CHL1  H11A 3883   6.274   5.587   7.714 -0.4384 -0.0822 -1.0780
   53CHL1  H11B 3884   6.236   5.745   7.647  0.0142  1.1588  0.7792
   53CHL1    C9 3885   6.433   5.682   7.586 -0.7541  0.0891  0.1381
   53CHL1    H9 3886   6.461   5.788   7.572  0.1332  0.1878  2.2585
   53CHL1   C10 3887   6.383   5.611   7.451  0.8664  0.5481  0.9185
   53CHL1   C19 3888   6.301   5.483   7.489 -0.4226 -0.0472 -0.3008
   53CHL1  H19A 3889   6.270   5.413   7.408 -0.1763  0.4873 -0.8705
   53CHL1  H19B 3890   6.342   5.416   7.568 -1.6467 -0.4467  0.0181
   53CHL1  H19C 3891   6.203   5.520   7.526 -0.2617 -1.0132  1.1886
   53CHL1    C1 3892   6.303   5.707   7.366 -0.3550 -0.3653  0.2344
   53CHL1   H1A 3893   6.214   5.750   7.416  0.0728 -1.0234  1.5920
   53CHL1   H1B 3894   6.374   5.791   7.346  0.4734 -1.1665 -0.2559
   53CHL1    C2 3895   6.268   5.657   7.227  0.3227 -0.0045 -0.9470
   53CHL1   H2A 3896   6.203   5.737   7.185  1.5255  1.4836 -0.0565
   53CHL1   H2B 3897   6.200   5.570   7.242  0.3959 -0.0364 -0.7987
   53CHL1   C20 3898   6.474   5.696   8.155  1.1271  0.0067 -0.4408
   53CHL1   H20 3899   6.419   5.600   8.165  0.3498  0.1229 -2.8095
   53CHL1   C21 3900   6.364   5.808   8.173  0.3347  0.1708  0.0038
   53CHL1  H21A 3901   6.406   5.901   8.218 -1.0803  1.0974 -0.4982
   53CHL1  H21B 3902   6.290   5.782   8.251  1.5521  0.3872  1.2701
   53CHL1  H21C 3903   6.317   5.839   8.077  1.2530  1.2316 -0.1227
   53CHL1   C22 3904   6.564   5.696   8.277 -0.3094  0.1914 -0.2818
   53CHL1  H22A 3905   6.639   5.616   8.258 -2.4871 -2.0388 -0.0329
   53CHL1  H22B 3906   6.613   5.795   8.283 -1.5452  0.7433  3.0782
   53CHL1   C23 3907   6.507   5.663   8.415 -0.3614 -0.3949 -0.5796
   53CHL1  H23A 3908   6.576   5.699   8.493 -0.1430  0.7406 -1.2726
   53CHL1  H23B 3909   6.414   5.722   8.429  1.1536  1.5076  2.1850
   53CHL1   C24 3910   6.469   5.517   8.433  0.2473  0.0401 -0.1623
   53CHL1  H24A 3911   6.400   5.499   8.348  0.6985  1.3554 -0.8383
   53CHL1  H24B 3912   6.558   5.451   8.422  0.3865  0.3238 -0.7705
   53CHL1   C25 3913   6.389   5.495   8.564  0.5362 -0.2339 -0.5470
   53CHL1   H25 3914   6.316   5.578   8.572 -0.2276 -0.8929 -0.4886
   53CHL1   C26 3915   6.314   5.363   8.559  0.1280 -0.4233 -0.4571
   53CHL1  H26A 3916   6.283   5.353   8.665 -1.5956 -0.3551 -0.9070
   53CHL1  H26B 3917   6.238   5.367   8.478 -1.8895 -0.9604  1.2960
   53CHL1  H26C 3918   6.388   5.287   8.525  0.2983 -0.0969 -0.8234
   53CHL1   C27 3919   6.486   5.507   8.684  1.1630  0.4796  0.7022
   53CHL1  H27A 3920   6.590   5.487   8.648 -0.0044  0.0743 -2.8779
   53CHL1  H27B 3921   6.501   5.614   8.706 -0.4168  1.1811 -1.2711
   53CHL1  H27C 3922   6.456   5.445   8.771  0.4793 -3.4041 -2.0255
   54CHL1    C3 3923   0.416   0.797   6.749  0.0595 -0.0896  0.1046
   54CHL1    H3 3924   0.393   0.690   6.729 -1.9688  0.1344  0.9977
   54CHL1    O3 3925   0.466   0.845   6.628 -0.2141  0.0093 -0.7174
   54CHL1   H3' 3926   0.474   0.940   6.639 -1.5512  0.5001 -3.2665
   54CHL1    C4 3927   0.282   0.859   6.783 -0.4172  0.3157 -0.4516
   54CHL1   H4A 3928   0.281   0.968   6.804 -0.0161 -0.0202  1.5738
   54CHL1   H4B 3929   0.204   0.842   6.706 -1.6859 -0.4815  0.9558
   54CHL1    C5 3930   0.225   0.796   6.919  0.1311 -0.9240 -0.3429
   54CHL1    C6 3931   0.106   0.741   6.927 -0.2488 -0.3927  0.6357
   54CHL1    H6 3932   0.038   0.738   6.840  0.0959  0.5268  0.3199
   54CHL1    C7 3933   0.045   0.688   7.054  1.2283  0.4502 -0.4497
   54CHL1   H7A 3934  -0.061   0.716   7.069  1.4334  0.6822  0.6058
   54CHL1   H7B 3935   0.047   0.578   7.043 -0.4709  0.2659  0.7575
   54CHL1    C8 3936   0.129   0.733   7.183 -0.2427  0.3647 -0.4131
   54CHL1    H8 3937   0.108   0.842   7.187 -1.4456  0.1528 -0.7758
   54CHL1   C14 3938   0.089   0.656   7.308  1.0922 -0.9669 -0.1025
   54CHL1   H14 3939   0.114   0.550   7.287  2.0217 -0.4126 -1.9619
   54CHL1   C15 3940  -0.064   0.649   7.351  0.1085  0.6124  0.2683
   54CHL1  H15A 3941  -0.097   0.755   7.346  2.1273  1.2342 -1.0184
   54CHL1  H15B 3942  -0.118   0.577   7.286  0.1641 -0.6413  1.5623
   54CHL1   C16 3943  -0.059   0.600   7.492 -0.4559 -0.5748  0.2609
   54CHL1  H16A 3944  -0.127   0.674   7.540  0.3853  0.9968 -0.8586
   54CHL1  H16B 3945  -0.094   0.495   7.500 -2.7691  0.1081 -0.2847
   54CHL1   C17 3946   0.088   0.607   7.537 -0.1110  0.3288 -0.2540
   54CHL1   H17 3947   0.129   0.503   7.533  1.4098  0.9279 -1.3827
   54CHL1   C13 3948   0.175   0.681   7.430  0.0055  0.1873  0.2938
   54CHL1   C18 3949   0.189   0.828   7.465 -0.1535 -0.8300  0.1112
   54CHL1  H18A 3950   0.256   0.843   7.552 -0.2677 -0.0238  0.0679
   54CHL1  H18B 3951   0.236   0.883   7.380  3.2731 -0.7606  1.8497
   54CHL1  H18C 3952   0.089   0.870   7.489 -1.0358 -3.2512  0.9415
   54CHL1   C12 3953   0.313   0.626   7.401 -0.4724  0.0300 -0.6815
   54CHL1  H12A 3954   0.382   0.642   7.487 -2.1230  2.6050  0.2441
   54CHL1  H12B 3955   0.304   0.517   7.378  1.0253 -0.3161  0.1770
   54CHL1   C11 3956   0.369   0.693   7.273 -0.1171  0.5355  0.0692
   54CHL1  H11A 3957   0.414   0.792   7.298  1.9208  0.1334 -1.7843
   54CHL1  H11B 3958   0.450   0.626   7.241  1.5580  2.8931 -0.9154
   54CHL1    C9 3959   0.280   0.705   7.149  0.0868  0.4584 -0.4863
   54CHL1    H9 3960   0.269   0.601   7.110 -1.4898  0.5517 -0.3797
   54CHL1   C10 3961   0.325   0.791   7.038  0.2261  0.7137 -0.3079
   54CHL1   C19 3962   0.351   0.931   7.090  0.1737 -0.7977 -0.1332
   54CHL1  H19A 3963   0.373   1.007   7.012 -0.8641 -1.5277 -1.1661
   54CHL1  H19B 3964   0.258   0.970   7.137  2.4697  2.6744  2.0642
   54CHL1  H19C 3965   0.427   0.944   7.170  0.6170 -1.5983 -0.4223
   54CHL1    C1 3966   0.456   0.728   6.990  0.0866 -0.5161  0.9177
   54CHL1   H1A 3967   0.528   0.745   7.073  2.1699 -1.0620 -0.6723
   54CHL1   H1B 3968   0.441   0.620   6.969 -2.4654 -0.0491  0.0681
   54CHL1    C2 3969   0.512   0.811   6.870  0.4998 -0.1688 -0.1442
   54CHL1   H2A 3970   0.609   0.760   6.848 -0.2242 -1.8257  0.3578
   54CHL1   H2B 3971   0.523   0.918   6.895 -3.1409  0.6679 -1.5658
   54CHL1   C20 3972   0.097   0.647   7.692  0.0285  0.0702 -0.4328
   54CHL1   H20 3973   0.067   0.754   7.702 -0.5747 -0.2187  1.1925
   54CHL1   C21 3974   0.245   0.631   7.737  1.0485  0.2113  0.2642
   54CHL1  H21A 3975   0.242   0.621   7.848 -1.1546  1.2873  0.3751
   54CHL1  H21B 3976   0.295   0.727   7.714 -0.3275  0.5583 -1.4638
   54CHL1  H21C 3977   0.292   0.550   7.678 -0.1564 -0.5609  0.3127
   54CHL1   C22 3978   0.009   0.566   7.786  0.1819  0.3057  0.8598
   54CHL1  H22A 3979  -0.092   0.539   7.748  0.8837  1.6238 -2.2997
   54CHL1  H22B 3980   0.067   0.473   7.806  0.9422  0.2522 -1.2668
   54CHL1   C23 3981  -0.012   0.644   7.923 -0.6969 -0.4811  0.4102
   54CHL1  H23A 3982   0.082   0.696   7.952 -0.5256 -1.5772  1.9646
   54CHL1  H23B 3983  -0.079   0.731   7.907  0.3966  0.6908  1.8552
   54CHL1   C24 3984  -0.078   0.557   8.030 -0.0646  0.4244  0.0889
   54CHL1  H24A 3985  -0.184   0.538   8.004 -0.2919 -1.7112  2.2077
   54CHL1  H24B 3986  -0.023   0.461   8.030  0.8080  0.9096  0.1297
   54CHL1   C25 3987  -0.063   0.615   8.173  0.0193 -0.2246 -0.4331
   54CHL1   H25 3988   0.046   0.617   8.191 -0.0208  0.0470 -0.2164
   54CHL1   C26 3989  -0.129   0.753   8.180  0.5613  0.3561  0.4343
   54CHL1  H26A 3990  -0.089   0.828   8.109 -1.6909  1.1998 -0.0076
   54CHL1  H26B 3991  -0.231   0.731   8.144  0.7954 -0.2603  0.1216
   54CHL1  H26C 3992  -0.132   0.789   8.285  1.9341  2.2624 -0.1313
   54CHL1   C27 3993  -0.122   0.527   8.278  0.0263 -0.3838 -0.0788
   54CHL1  H27A 3994  -0.100   0.559   8.382 -2.3139  0.5256  0.1993
   54CHL1  H27B 3995  -0.233   0.535   8.280  0.1299  2.4093 -0.7061
   54CHL1  H27C 3996  -0.092   0.421   8.261  2.6303  0.2014  0.4205
   55CHL1    C3 3997   6.100   1.491   6.967  0.4881  0.1791  0.0082
   55CHL1    H3 3998   6.104   1.602   6.969 -1.2040  0.2757 -0.6423
   55CHL1    O3 3999   6.085   1.456   6.832  0.1557  0.3068  0.1680
   55CHL1   H3' 4000   5.991   1.442   6.821  0.5254 -0.9091 -2.1756
   55CHL1    C4 4001   6.237   1.439   7.010 -0.0353  0.0448  0.8670
   55CHL1   H4A 4002   6.249   1.330   6.991 -1.9292 -0.0642  0.0172
   55CHL1   H4B 4003   6.318   1.486   6.951 -1.5727  0.3411 -1.1181
   55CHL1    C5 4004   6.268   1.459   7.157  0.0331 -0.2705  0.3128
   55CHL1    C6 4005   6.368   1.534   7.200  0.0391 -0.2463  0.7149
   55CHL1    H6 4006   6.433   1.588   7.129  0.9683  0.5706  2.1276
   55CHL1    C7 4007   6.399   1.570   7.343 -0.6074  0.3929 -0.6352
   55CHL1   H7A 4008   6.506   1.550   7.364 -1.2135 -0.5122  2.0264
   55CHL1   H7B 4009   6.372   1.675   7.366  0.3706  0.4824  0.1719
   55CHL1    C8 4010   6.319   1.479   7.445 -0.0295  0.7308  1.0613
   55CHL1    H8 4011   6.369   1.381   7.438 -2.8365 -0.7802  0.4654
   55CHL1   C14 4012   6.330   1.532   7.577  0.4620 -0.0503  0.1501
   55CHL1   H14 4013   6.292   1.635   7.559 -0.1493 -0.3515 -0.3242
   55CHL1   C15 4014   6.468   1.529   7.646  0.1620  0.5995 -0.1019
   55CHL1  H15A 4015   6.517   1.429   7.636 -1.2131 -0.2218  1.0613
   55CHL1  H15B 4016   6.538   1.612   7.625  2.7328 -1.6201 -0.9484
   55CHL1   C16 4017   6.430   1.535   7.799 -0.3302  0.0901  0.1591
   55CHL1  H16A 4018   6.481   1.449   7.847 -1.9655 -0.6262  0.6524
   55CHL1  H16B 4019   6.454   1.639   7.829 -2.1852  0.5735  0.0809
   55CHL1   C17 4020   6.279   1.523   7.816 -0.0517  0.1944 -0.1427
   55CHL1   H17 4021   6.241   1.627   7.818 -2.5184 -0.6507 -0.0114
   55CHL1   C13 4022   6.232   1.466   7.679 -0.3336  0.7547 -0.0606
   55CHL1   C18 4023   6.277   1.314   7.683 -0.4788  0.1021 -0.3009
   55CHL1  H18A 4024   6.376   1.297   7.729 -0.2305  1.7065 -0.1815
   55CHL1  H18B 4025   6.199   1.253   7.734 -0.0473  1.1683  1.7110
   55CHL1  H18C 4026   6.276   1.267   7.582  2.3979 -2.2937  0.6571
   55CHL1   C12 4027   6.094   1.494   7.636 -0.0493  0.1543  0.5366
   55CHL1  H12A 4028   6.025   1.442   7.707 -0.6267  0.6101  0.3150
   55CHL1  H12B 4029   6.073   1.603   7.631  0.2973  0.1930 -0.2502
   55CHL1   C11 4030   6.064   1.430   7.498  0.0342  0.4512 -0.4117
   55CHL1  H11A 4031   6.064   1.320   7.507  1.8917  0.4362 -0.2383
   55CHL1  H11B 4032   5.964   1.465   7.465  0.4499  1.4023 -0.7184
   55CHL1    C9 4033   6.176   1.474   7.388  0.4061  0.5649  0.1712
   55CHL1    H9 4034   6.148   1.581   7.376 -0.0297  0.4822  0.4132
   55CHL1   C10 4035   6.156   1.403   7.245 -0.1932 -0.2210 -0.7629
   55CHL1   C19 4036   6.165   1.248   7.260  0.0455  0.7078 -0.4323
   55CHL1  H19A 4037   6.156   1.196   7.163  1.0279 -3.2749  1.4041
   55CHL1  H19B 4038   6.258   1.221   7.314 -1.6614 -2.0348  1.3993
   55CHL1  H19C 4039   6.083   1.210   7.324  1.9719 -0.2784  1.6078
   55CHL1    C1 4040   6.016   1.447   7.201  0.1348 -0.2335  0.3444
   55CHL1   H1A 4041   5.925   1.407   7.251  0.2513 -2.2287 -0.9296
   55CHL1   H1B 4042   6.015   1.558   7.206  0.1119 -0.1300 -1.3287
   55CHL1    C2 4043   5.991   1.422   7.047 -0.2651 -0.2887 -0.3566
   55CHL1   H2A 4044   5.889   1.459   7.024 -0.5123  0.3214  1.6004
   55CHL1   H2B 4045   5.996   1.312   7.031  1.0421 -0.1042 -1.4372
   55CHL1   C20 4046   6.252   1.450   7.957 -0.1596  0.4731  0.0505
   55CHL1   H20 4047   6.281   1.343   7.946 -0.3570  0.6397 -3.0265
   55CHL1   C21 4048   6.104   1.472   7.989 -0.5402 -0.0844  0.1317
   55CHL1  H21A 4049   6.046   1.419   7.910  0.6466  1.2045 -1.7001
   55CHL1  H21B 4050   6.070   1.577   7.998 -0.3093  0.3294 -2.9046
   55CHL1  H21C 4051   6.083   1.434   8.091 -0.3137  3.1471  1.5113
   55CHL1   C22 4052   6.336   1.516   8.069  0.7808 -0.0711 -0.9560
   55CHL1  H22A 4053   6.443   1.494   8.051  0.9618 -1.0873  1.1454
   55CHL1  H22B 4054   6.312   1.625   8.069 -2.5412 -0.6376  1.8038
   55CHL1   C23 4055   6.309   1.461   8.213 -0.0938  0.4400 -0.3414
   55CHL1  H23A 4056   6.204   1.489   8.238 -0.6370 -1.5998 -0.0981
   55CHL1  H23B 4057   6.308   1.350   8.198 -0.0930  0.8770 -4.7779
   55CHL1   C24 4058   6.400   1.519   8.318 -0.3067  0.3834 -0.0655
   55CHL1  H24A 4059   6.498   1.467   8.323  0.2395  1.2977 -0.9652
   55CHL1  H24B 4060   6.436   1.622   8.299  2.9858 -0.6756 -0.1634
   55CHL1   C25 4061   6.328   1.528   8.454 -0.3468  0.7437  0.8551
   55CHL1   H25 4062   6.248   1.602   8.433 -0.5456 -0.0503 -1.4988
   55CHL1   C26 4063   6.256   1.397   8.496 -0.3072 -0.3589  0.0836
   55CHL1  H26A 4064   6.186   1.371   8.414  2.0477  1.2714 -2.6727
   55CHL1  H26B 4065   6.332   1.318   8.517 -0.4012 -0.2787  0.7383
   55CHL1  H26C 4066   6.210   1.413   8.595 -1.0884 -0.2472 -0.2910
   55CHL1   C27 4067   6.423   1.585   8.558 -0.1310  0.3945 -0.6601
   55CHL1  H27A 4068   6.473   1.678   8.523  0.0791 -0.1018 -1.7380
   55CHL1  H27B 4069   6.379   1.614   8.655  0.3471  0.7920 -0.5558
   55CHL1  H27C 4070   6.504   1.512   8.581 -0.3644  0.0576 -0.8951
   56CHL1    C3 4071   5.005   6.551   6.941  0.5238  0.2047  0.4783
   56CHL1    H3 4072   4.939   6.477   6.991  0.4461  0.4179  0.6943
   56CHL1    O3 4073   4.991   6.562   6.802 -0.1730 -0.5159  0.5045
   56CHL1   H3' 4074   4.919   6.624   6.790 -0.1807 -0.8262 -1.3951
   56CHL1    C4 4075   4.980   6.690   7.006  0.8967  0.8068  0.6008
   56CHL1   H4A 4076   5.043   6.770   6.962 -0.4304  1.5816  0.0292
   56CHL1   H4B 4077   4.872   6.709   6.985  0.5501  0.7346  2.1611
   56CHL1    C5 4078   5.007   6.686   7.152 -0.3127 -0.1178 -0.1098
   56CHL1    C6 4079   4.910   6.722   7.231  0.2122  0.0963  0.0214
   56CHL1    H6 4080   4.818   6.765   7.189  0.3477  0.9957  0.6016
   56CHL1    C7 4081   4.930   6.730   7.381  0.1370  0.2887 -0.0826
   56CHL1   H7A 4082   4.887   6.823   7.422 -2.2864 -0.5457 -0.5415
   56CHL1   H7B 4083   4.870   6.645   7.420  1.9853 -0.2815  1.6489
   56CHL1    C8 4084   5.076   6.723   7.419 -0.2041  1.0423 -0.2986
   56CHL1    H8 4085   5.129   6.816   7.389 -0.4466  1.0745 -0.6322
   56CHL1   C14 4086   5.086   6.698   7.574  0.1480 -0.9432  0.6129
   56CHL1   H14 4087   5.041   6.601   7.604  0.2733 -2.1719 -2.7429
   56CHL1   C15 4088   5.005   6.794   7.660  0.1186  0.2448 -0.0852
   56CHL1  H15A 4089   5.026   6.898   7.625  2.9293  0.4304  1.8185
   56CHL1  H15B 4090   4.896   6.771   7.654  0.3811 -1.1762  0.3862
   56CHL1   C16 4091   5.057   6.770   7.804 -0.6920  0.3622 -0.8982
   56CHL1  H16A 4092   5.088   6.868   7.846  0.1078  0.1104 -0.8953
   56CHL1  H16B 4093   4.989   6.714   7.871  1.2123 -1.5064 -0.4467
   56CHL1   C17 4094   5.190   6.683   7.783  0.1853  0.0979  0.6051
   56CHL1   H17 4095   5.150   6.580   7.799  0.4702 -0.1986 -0.5338
   56CHL1   C13 4096   5.226   6.687   7.635  0.0981  0.5566  0.0694
   56CHL1   C18 4097   5.304   6.809   7.616 -0.5942  0.4043 -0.3977
   56CHL1  H18A 4098   5.270   6.896   7.677  0.2814 -0.8153  1.9571
   56CHL1  H18B 4099   5.406   6.779   7.650 -0.9401 -0.8061 -0.4113
   56CHL1  H18C 4100   5.306   6.845   7.511  1.2757 -0.3796 -0.6837
   56CHL1   C12 4101   5.289   6.563   7.568  0.4060  0.8603 -0.1613
   56CHL1  H12A 4102   5.390   6.565   7.615 -0.1512  0.9043  1.0779
   56CHL1  H12B 4103   5.235   6.474   7.607 -0.1027  0.6970 -1.1945
   56CHL1   C11 4104   5.288   6.577   7.414  0.2783 -0.3113  0.0042
   56CHL1  H11A 4105   5.353   6.660   7.378 -2.0030  1.0393 -1.2472
   56CHL1  H11B 4106   5.317   6.480   7.367 -0.5713 -0.4334 -0.2797
   56CHL1    C9 4107   5.147   6.603   7.352 -0.7343 -0.3838 -0.4380
   56CHL1    H9 4108   5.085   6.514   7.375 -2.6450  1.1010  0.5225
   56CHL1   C10 4109   5.144   6.628   7.198  0.9892 -0.1241 -0.2865
   56CHL1   C19 4110   5.244   6.738   7.149 -0.2214 -0.3350  0.0695
   56CHL1  H19A 4111   5.256   6.757   7.040  1.2011  0.2731  0.3151
   56CHL1  H19B 4112   5.211   6.831   7.199  1.2509 -1.3079  3.0934
   56CHL1  H19C 4113   5.342   6.707   7.192 -0.0491 -0.5784 -0.4824
   56CHL1    C1 4114   5.175   6.502   7.128  0.7882  0.2122 -0.4760
   56CHL1   H1A 4115   5.274   6.457   7.150  0.5169  0.0335  0.4067
   56CHL1   H1B 4116   5.110   6.421   7.167  0.5151  0.7600  0.2165
   56CHL1    C2 4117   5.148   6.501   6.971  0.4660 -0.2814  0.1742
   56CHL1   H2A 4118   5.147   6.396   6.935 -1.1247 -0.1923 -0.1523
   56CHL1   H2B 4119   5.227   6.559   6.919 -0.6294  0.0480 -1.2039
   56CHL1   C20 4120   5.304   6.697   7.891  0.5607 -0.0587 -0.2261
   56CHL1   H20 4121   5.361   6.791   7.876 -0.7898  0.8685  0.3008
   56CHL1   C21 4122   5.401   6.576   7.886 -0.3862 -0.6910  0.0148
   56CHL1  H21A 4123   5.463   6.571   7.978  0.4061 -0.1265 -0.4728
   56CHL1  H21B 4124   5.474   6.577   7.802 -0.1258 -1.2747  0.2253
   56CHL1  H21C 4125   5.341   6.484   7.873 -0.5149 -0.6653  0.4230
   56CHL1   C22 4126   5.241   6.715   8.032  0.5469  0.3370  0.9718
   56CHL1  H22A 4127   5.160   6.791   8.029 -0.7630 -1.0236 -1.3564
   56CHL1  H22B 4128   5.201   6.614   8.056  0.8604 -0.7399 -2.5322
   56CHL1   C23 4129   5.349   6.758   8.134 -0.6724 -0.5006  0.0361
   56CHL1  H23A 4130   5.444   6.700   8.142 -0.4499 -0.6706 -2.8824
   56CHL1  H23B 4131   5.379   6.853   8.085 -1.5201 -0.6506 -0.8131
   56CHL1   C24 4132   5.300   6.780   8.280  0.1931 -0.2410 -0.8247
   56CHL1  H24A 4133   5.212   6.846   8.290 -0.1330 -0.8216  0.3262
   56CHL1  H24B 4134   5.260   6.682   8.312 -3.3986  0.9621 -1.2213
   56CHL1   C25 4135   5.416   6.819   8.381 -0.3976 -0.1804  0.5990
   56CHL1   H25 4136   5.512   6.785   8.338 -1.0381  0.8261 -1.8451
   56CHL1   C26 4137   5.439   6.972   8.393  0.1463  0.5258  0.4595
   56CHL1  H26A 4138   5.350   7.017   8.441  0.7572  0.6460  1.5066
   56CHL1  H26B 4139   5.472   7.031   8.305  1.3502  0.7050  1.0002
   56CHL1  H26C 4140   5.527   6.988   8.459  1.2159  3.4588 -1.4669
   56CHL1   C27 4141   5.390   6.762   8.521 -0.8400  0.8847  0.7524
   56CHL1  H27A 4142   5.476   6.778   8.590 -1.5075 -0.3720  1.9313
   56CHL1  H27B 4143   5.310   6.817   8.575 -0.2117  2.4471  0.1539
   56CHL1  H27C 4144   5.369   6.653   8.521  0.8923  0.4598  3.0517
   57SAPC     N 4145   3.997   2.909  10.906 -0.2296  0.5603  0.2621
   57SAPC   C12 4146   3.962   2.946  10.765  0.2021 -0.7980  0.3022
   57SAPC  H12A 4147   4.042   2.915  10.699  0.3941 -0.6253  0.4533
   57SAPC  H12B 4148   3.943   3.051  10.747  1.9171 -0.3770  0.7559
   57SAPC   C13 4149   3.888   2.940  11.002 -0.5665 -0.5840 -0.0105
   57SAPC  H13A 4150   3.867   3.045  10.994  0.6427 -0.4224 -1.4273
   57SAPC  H13B 4151   3.801   2.877  10.992 -0.3727 -0.6841 -1.2300
   57SAPC  H13C 4152   3.923   2.917  11.102 -3.0155 -1.7336  0.6435
   57SAPC   C14 4153   4.014   2.759  10.907  0.3424  0.4503 -0.2105
   57SAPC  H14A 4154   3.917   2.713  10.895  0.7537 -0.3452 -0.5049
   57SAPC  H14B 4155   4.080   2.728  10.828 -0.6010 -1.7670 -0.2007
   57SAPC  H14C 4156   4.052   2.717  10.999 -3.0519 -1.5465  0.4521
   57SAPC   C15 4157   4.126   2.980  10.947  0.4330  0.1584 -0.1908
   57SAPC  H15A 4158   4.215   2.947  10.896  0.8714  1.0592 -0.0286
   57SAPC  H15B 4159   4.119   3.085  10.924 -2.6329 -0.0574 -0.7702
   57SAPC  H15C 4160   4.146   2.967  11.052  1.0958  0.8390 -0.2292
   57SAPC   C11 4161   3.828   2.874  10.714 -0.5436  0.9158 -1.0730
   57SAPC  H11A 4162   3.804   2.924  10.618  0.7143  1.1504 -1.2881
   57SAPC  H11B 4163   3.737   2.887  10.776 -1.8691 -2.8031 -1.9924
   57SAPC     P 4164   3.713   2.650  10.660  0.2611  0.2528  0.1030
   57SAPC   O13 4165   3.740   2.508  10.642 -0.2913 -0.4871 -0.2581
   57SAPC   O14 4166   3.609   2.674  10.760  0.1709  0.3292 -0.6619
   57SAPC   O12 4167   3.846   2.730  10.686 -0.4756 -0.6344 -0.0183
   57SAPC   O11 4168   3.668   2.719  10.528 -0.4694 -0.3979  0.1050
   57SAPC    C1 4169   3.755   2.716  10.409 -0.0559  0.4049 -0.3750
   57SAPC    HA 4170   3.783   2.823  10.404 -2.9945  1.2060 -3.4090
   57SAPC    HB 4171   3.839   2.643  10.408 -1.9367 -1.8839  0.4740
   57SAPC    C2 4172   3.680   2.697  10.270 -0.1251 -0.1687  0.3683
   57SAPC    HS 4173   3.739   2.718  10.178  1.1595 -1.5396  0.8319
   57SAPC   O21 4174   3.555   2.767  10.273 -0.2256 -0.1196  0.6296
   57SAPC   C21 4175   3.571   2.902  10.245 -0.4630  0.8428  0.1385
   57SAPC   O22 4176   3.679   2.959  10.216 -0.1768 -0.1312  0.5172
   57SAPC   C22 4177   3.433   2.965  10.239 -0.5854 -0.2032 -0.1508
   57SAPC   H2R 4178   3.375   2.899  10.171 -3.0642  3.4771 -1.9040
   57SAPC   H2S 4179   3.383   2.950  10.337 -1.8612  0.0428 -0.7510
   57SAPC    C3 4180   3.649   2.548  10.245 -0.1954 -0.7838 -0.6035
   57SAPC    HX 4181   3.564   2.524  10.313 -0.5488  2.7279  0.3845
   57SAPC    HY 4182   3.739   2.492  10.278 -0.5189 -0.6393  0.5792
   57SAPC   O31 4183   3.611   2.527  10.112 -0.1088  0.3310 -0.4024
   57SAPC   C31 4184   3.625   2.395  10.078 -0.0045  0.0229 -0.2846
   57SAPC   O32 4185   3.667   2.308  10.153  0.4336 -0.0853  0.1732
   57SAPC   C32 4186   3.618   2.380   9.929  0.7706 -0.3101  0.1953
   57SAPC   H2X 4187   3.512   2.396   9.900  0.8236 -1.5197 -0.7800
   57SAPC   H2Y 4188   3.647   2.274   9.908  0.6415 -0.3520  0.2291
   57SAPC   C23 4189   3.439   3.105  10.175 -0.5927 -0.1453  0.0939
   57SAPC   H3R 4190   3.516   3.104  10.095 -2.0548  0.1081 -1.3762
   57SAPC   H3S 4191   3.477   3.175  10.253 -0.5443  0.8546 -0.8119
   57SAPC   C24 4192   3.310   3.157  10.114  0.2370 -0.0403 -0.1092
   57SAPC   H4R 4193   3.311   3.266  10.095 -0.3746  0.0736  0.4536
   57SAPC   H4S 4194   3.228   3.132  10.185  0.1693 -0.7972 -0.4480
   57SAPC   C25 4195   3.292   3.086   9.979 -0.4065  0.4276  0.3082
   57SAPC   H5R 4196   3.249   2.984   9.975 -1.0013  0.6956 -2.1865
   57SAPC   C26 4197   3.334   3.144   9.860  0.3934  0.3233 -0.3026
   57SAPC   H6R 4198   3.322   3.080   9.771 -1.1099  0.2401 -0.0765
   57SAPC   C27 4199   3.397   3.280   9.827  0.2275 -0.0827 -0.3566
   57SAPC   H7R 4200   3.506   3.270   9.810  0.6545 -0.2477  2.1686
   57SAPC   H7S 4201   3.384   3.336   9.922 -0.7130 -0.9259  0.0411
   57SAPC   C28 4202   3.308   3.357   9.730  0.1892 -0.1448  0.1694
   57SAPC   H8R 4203   3.210   3.385   9.772  0.6837  0.5880  0.8641
   57SAPC   C29 4204   3.335   3.392   9.601 -0.3404  0.0774  0.4733
   57SAPC   H9R 4205   3.255   3.446   9.549 -1.3485 -0.3724  1.5253
   57SAPC  C210 4206   3.471   3.356   9.527  0.2035 -0.4982 -0.2510
   57SAPC  H10R 4207   3.536   3.323   9.610  0.4269  3.0291  1.1734
   57SAPC  H10S 4208   3.523   3.448   9.492  0.1298  0.6660  2.4584
   57SAPC  C211 4209   3.457   3.259   9.412  0.1993  0.1306  0.2723
   57SAPC  H11R 4210   3.448   3.157   9.452  2.3902  0.7340  2.5604
   57SAPC  C212 4211   3.475   3.273   9.285  0.2735 -0.1936 -0.0303
   57SAPC  H12R 4212   3.471   3.183   9.222 -0.6599 -0.6446  0.6456
   57SAPC  C213 4213   3.519   3.392   9.208 -0.0616 -0.0648  0.7281
   57SAPC  H13R 4214   3.626   3.399   9.179 -0.5887  3.3801 -0.7999
   57SAPC  H13S 4215   3.500   3.482   9.271  0.6027  0.0864  0.7193
   57SAPC  C214 4216   3.434   3.385   9.079  0.1987 -0.5374 -0.1237
   57SAPC  H14R 4217   3.329   3.417   9.089  0.5854  0.3347  1.8104
   57SAPC  C215 4218   3.476   3.334   8.962  0.5962 -0.3764 -0.9317
   57SAPC  H15R 4219   3.407   3.320   8.877 -0.1929 -0.7665 -0.2401
   57SAPC  C216 4220   3.617   3.288   8.936  0.6690 -0.3821  0.2760
   57SAPC  H16R 4221   3.615   3.195   8.875 -0.3541  0.5349 -1.1609
   57SAPC  H16S 4222   3.673   3.267   9.030  0.7795  0.3864  0.3872
   57SAPC  C217 4223   3.695   3.395   8.848  0.1388 -0.4718 -0.5254
   57SAPC  H17R 4224   3.798   3.356   8.832  0.8130  1.2006 -0.3912
   57SAPC  H17S 4225   3.699   3.490   8.906 -0.2242 -1.2302  0.7944
   57SAPC  C218 4226   3.644   3.423   8.709 -0.6528  0.2072 -0.2936
   57SAPC  H18R 4227   3.710   3.504   8.670 -0.2128  0.5411  1.0861
   57SAPC  H18S 4228   3.541   3.462   8.698 -0.7288 -0.2744 -1.4644
   57SAPC  C219 4229   3.660   3.305   8.612 -0.0478 -0.4978 -1.0706
   57SAPC  H19R 4230   3.609   3.216   8.656  0.0687 -0.7266 -1.3907
   57SAPC  H19S 4231   3.768   3.282   8.622  0.3801  2.3636  2.6510
   57SAPC  C220 4232   3.622   3.328   8.466  0.0438  0.1613  0.5133
   57SAPC  H20R 4233   3.667   3.427   8.441  1.3810 -0.6785 -0.5479
   57SAPC  H20S 4234   3.515   3.344   8.446 -0.0985 -0.1906  0.9662
   57SAPC  H20T 4235   3.668   3.250   8.402 -1.2490 -1.6141  1.6653
   57SAPC   C33 4236   3.715   2.475   9.864 -0.1129 -0.7480 -0.1515
   57SAPC   H3X 4237   3.684   2.580   9.886  0.4408 -0.1592 -1.9727
   57SAPC   H3Y 4238   3.700   2.463   9.755 -2.2241 -2.0151  0.2164
   57SAPC   C34 4239   3.866   2.456   9.906  0.0176  0.9843 -0.4037
   57SAPC   H4X 4240   3.876   2.477  10.015 -1.6459 -1.1536  0.2282
   57SAPC   H4Y 4241   3.911   2.542   9.851  0.1414  0.9458 -0.3644
   57SAPC   C35 4242   3.926   2.322   9.862 -0.2325 -0.1180 -0.0685
   57SAPC   H5X 4243   3.856   2.236   9.869  0.6622 -0.9875 -1.2940
   57SAPC   H5Y 4244   4.011   2.308   9.932  1.0904 -1.7891 -1.8790
   57SAPC   C36 4245   3.980   2.330   9.722 -0.2854  0.0857  0.2519
   57SAPC   H6X 4246   4.081   2.374   9.705 -0.3953  0.3530  0.2816
   57SAPC   H6Y 4247   3.909   2.400   9.674 -1.9568 -0.6171  1.6042
   57SAPC   C37 4248   3.974   2.192   9.654 -0.5564 -0.6356  0.5567
   57SAPC   H7X 4249   3.866   2.166   9.658 -0.7834  0.3992  1.6455
   57SAPC   H7Y 4250   4.025   2.124   9.726 -0.4576 -0.5724  0.5466
   57SAPC   C38 4251   4.034   2.180   9.509  0.4821 -0.1787 -0.1966
   57SAPC   H8X 4252   4.037   2.072   9.484  0.7116 -0.0991 -0.5118
   57SAPC   H8Y 4253   4.132   2.230   9.512  1.2515 -1.6386  0.0196
   57SAPC   C39 4254   3.947   2.255   9.406 -0.1110 -0.1521 -0.2039
   57SAPC   H9X 4255   3.923   2.355   9.449 -1.3057 -0.1035 -0.9424
   57SAPC   H9Y 4256   3.846   2.210   9.403  0.3886 -1.4672  1.3498
   57SAPC  C310 4257   4.016   2.270   9.271  0.0279  0.0177  0.3493
   57SAPC  H10X 4258   4.025   2.169   9.225 -1.4570 -0.0253  0.1216
   57SAPC  H10Y 4259   4.119   2.312   9.279  0.0909 -0.3416  1.7825
   57SAPC  C311 4260   3.925   2.348   9.166 -0.1043 -0.5260  0.0694
   57SAPC  H11X 4261   3.914   2.450   9.209  0.1107 -1.0012  1.3158
   57SAPC  H11Y 4262   3.830   2.292   9.151  0.1103 -0.2134 -2.9694
   57SAPC  C312 4263   3.993   2.354   9.022 -0.3543  0.3798  0.1085
   57SAPC  H12X 4264   4.032   2.257   8.983  2.7719  1.3493  0.5617
   57SAPC  H12Y 4265   4.087   2.412   9.023  0.6440 -1.1576 -0.3060
   57SAPC  C313 4266   3.905   2.414   8.918  0.5189  0.2517  0.0345
   57SAPC  H13X 4267   3.957   2.421   8.819 -1.8813  0.5377 -1.2810
   57SAPC  H13Y 4268   3.866   2.515   8.943 -0.1235  0.2592 -0.9444
   57SAPC  C314 4269   3.785   2.326   8.893 -0.2068  0.3032 -0.5133
   57SAPC  H14X 4270   3.715   2.334   8.980 -0.8451  1.0298 -1.0814
   57SAPC  H14Y 4271   3.820   2.221   8.884 -0.5143 -0.0485  1.6859
   57SAPC  C315 4272   3.707   2.373   8.773  0.4406 -0.0200 -0.6610
   57SAPC  H15X 4273   3.700   2.484   8.771  0.6231 -0.0093 -0.6502
   57SAPC  H15Y 4274   3.608   2.323   8.783  0.6048 -0.2172 -0.0057
   57SAPC  C316 4275   3.771   2.327   8.635 -0.5807 -0.3217  0.6763
   57SAPC  H16X 4276   3.777   2.216   8.643  3.2790 -0.2879  0.1851
   57SAPC  H16Y 4277   3.880   2.346   8.619 -0.4588 -1.4040  0.0649
   57SAPC  C317 4278   3.704   2.381   8.509  0.0308  0.3891 -0.3923
   57SAPC  H17X 4279   3.594   2.369   8.505 -0.0196  0.1007  1.3587
   57SAPC  H17Y 4280   3.753   2.343   8.417  0.8190  1.6208 -0.5151
   57SAPC  C318 4281   3.724   2.529   8.492  0.0286 -0.5583 -0.1116
   57SAPC  H18X 4282   3.700   2.564   8.389  1.6028  1.3123  0.1090
   57SAPC  H18Y 4283   3.829   2.558   8.513 -0.3278 -0.1257  1.1155
   57SAPC  H18Z 4284   3.658   2.582   8.564 -1.0003 -2.4275  0.4011
   58SAPC     N 4285   3.455   2.034  11.232 -0.1587 -0.6025  0.2853
   58SAPC   C12 4286   3.344   2.070  11.145  0.3020  0.0781  0.0329
   58SAPC  H12A 4287   3.370   2.146  11.073 -1.0566 -2.2232 -3.1648
   58SAPC  H12B 4288   3.265   2.096  11.215 -1.0343 -2.9072 -0.2118
   58SAPC   C13 4289   3.496   2.153  11.321 -0.3977  0.0989 -0.3625
   58SAPC  H13A 4290   3.565   2.217  11.268  0.3957 -0.9659 -0.6324
   58SAPC  H13B 4291   3.409   2.213  11.347 -1.0998 -1.3016  0.6353
   58SAPC  H13C 4292   3.534   2.104  11.409 -0.0990 -1.1495 -1.1664
   58SAPC   C14 4293   3.413   1.928  11.324  0.0204  0.2850 -0.0862
   58SAPC  H14A 4294   3.394   1.837  11.269  3.5959 -0.5821 -0.1306
   58SAPC  H14B 4295   3.496   1.909  11.391  0.9339 -0.0756 -1.2744
   58SAPC  H14C 4296   3.328   1.946  11.387 -0.6303 -1.2562 -0.4798
   58SAPC   C15 4297   3.585   1.993  11.156  0.4984  0.6801 -0.0379
   58SAPC  H15A 4298   3.620   2.081  11.105 -0.1188 -0.8169 -3.3149
   58SAPC  H15B 4299   3.658   1.957  11.227  0.9799  1.7964  0.0582
   58SAPC  H15C 4300   3.568   1.920  11.078  0.2161  0.8114 -0.1006
   58SAPC   C11 4301   3.285   1.959  11.055  0.0339 -0.0835 -0.4614
   58SAPC  H11A 4302   3.198   1.987  10.993 -0.1724 -1.9608 -1.0789
   58SAPC  H11B 4303   3.251   1.873  11.117  2.9283 -1.2025 -0.2551
   58SAPC     P 4304   3.349   1.824  10.827 -0.1299 -0.0779  0.1194
   58SAPC   O13 4305   3.449   1.856  10.725  0.7193  0.2274 -0.1884
   58SAPC   O14 4306   3.354   1.684  10.871 -0.1379  0.4009  0.0181
   58SAPC   O12 4307   3.385   1.924  10.952  0.5893 -0.0111 -0.0955
   58SAPC   O11 4308   3.199   1.863  10.783 -0.4128 -0.4187 -0.0988
   58SAPC    C1 4309   3.167   1.967  10.690  0.2613 -0.0504  0.9186
   58SAPC    HA 4310   3.077   2.020  10.727  0.5788  1.2322 -0.0592
   58SAPC    HB 4311   3.246   2.044  10.680  1.3034 -1.1231  0.7625
   58SAPC    C2 4312   3.146   1.908  10.549  0.3013 -0.5722 -0.2100
   58SAPC    HS 4313   3.236   1.849  10.521  0.9172 -0.3001  1.1523
   58SAPC   O21 4314   3.118   2.012  10.454 -0.1362 -0.1073  0.0444
   58SAPC   C21 4315   3.225   2.066  10.398 -0.1162  0.5183 -0.5225
   58SAPC   O22 4316   3.341   2.035  10.434 -0.1909 -0.0479  0.2132
   58SAPC   C22 4317   3.183   2.185  10.312  0.4422 -0.0571 -0.2791
   58SAPC   H2R 4318   3.079   2.209  10.344  0.1877 -1.4862  0.0317
   58SAPC   H2S 4319   3.257   2.266  10.331  0.7887 -0.1882 -1.0337
   58SAPC    C3 4320   3.026   1.813  10.548 -1.0047 -0.4248  0.5900
   58SAPC    HX 4321   2.939   1.881  10.542  0.2002  1.3781  2.3078
   58SAPC    HY 4322   3.032   1.757  10.644  1.3810  1.0342  1.3960
   58SAPC   O31 4323   3.031   1.730  10.426  0.5529  0.1563 -0.2064
   58SAPC   C31 4324   3.089   1.611  10.453  0.5740  0.2443 -0.4044
   58SAPC   O32 4325   3.156   1.592  10.555  0.4167  0.0519  0.7890
   58SAPC   C32 4326   3.026   1.511  10.349 -0.8182  0.8491 -0.7090
   58SAPC   H2X 4327   2.916   1.521  10.359 -0.7334  0.3340  0.9988
   58SAPC   H2Y 4328   3.046   1.405  10.374 -1.2649  0.5602 -1.5760
   58SAPC   C23 4329   3.169   2.128  10.175 -0.5460 -0.5942 -0.0090
   58SAPC   H3R 4330   3.114   2.199  10.109 -2.3612 -0.8090  1.2147
   58SAPC   H3S 4331   3.099   2.042  10.181 -0.5481 -0.4751  2.4552
   58SAPC   C24 4332   3.309   2.089  10.116  0.5474 -0.5272 -0.0150
   58SAPC   H4R 4333   3.373   2.035  10.189 -0.6883  0.0981  1.5803
   58SAPC   H4S 4334   3.369   2.178  10.087  1.0961 -0.7808  0.3251
   58SAPC   C25 4335   3.286   2.004   9.991  0.1986  0.2833  0.2407
   58SAPC   H5R 4336   3.247   1.903  10.010 -1.6186  0.8563 -0.3052
   58SAPC   C26 4337   3.295   2.044   9.861 -0.3391 -0.2005  0.6861
   58SAPC   H6R 4338   3.265   1.972   9.784 -0.1970 -0.4133  0.8281
   58SAPC   C27 4339   3.333   2.176   9.809  0.3472 -0.4728 -0.0952
   58SAPC   H7R 4340   3.433   2.163   9.762  1.8760  1.2153  2.4278
   58SAPC   H7S 4341   3.351   2.251   9.889  0.8104  3.0196 -3.2255
   58SAPC   C28 4342   3.232   2.238   9.721  0.6694  0.2108 -0.0501
   58SAPC   H8R 4343   3.130   2.214   9.753  0.6085 -0.1085 -0.4855
   58SAPC   C29 4344   3.259   2.310   9.612 -0.1525 -0.3665 -0.5739
   58SAPC   H9R 4345   3.170   2.339   9.553  0.7084 -0.6611 -2.0773
   58SAPC  C210 4346   3.397   2.340   9.558 -0.1225 -0.4336 -0.9042
   58SAPC  H10R 4347   3.397   2.311   9.451  2.3192  0.0058 -1.0951
   58SAPC  H10S 4348   3.479   2.277   9.600  0.2797  0.4990 -0.2413
   58SAPC  C211 4349   3.452   2.475   9.583 -0.2809 -0.8301  0.4073
   58SAPC  H11R 4350   3.417   2.511   9.681 -0.4068 -0.1843  0.1279
   58SAPC  C212 4351   3.514   2.563   9.502  0.2764  0.1461 -0.9100
   58SAPC  H12R 4352   3.547   2.656   9.551  1.2983  0.1786 -1.6347
   58SAPC  C213 4353   3.552   2.543   9.364 -0.0901  0.4450  0.1554
   58SAPC  H13R 4354   3.460   2.580   9.315 -0.9476 -0.6598  0.8680
   58SAPC  H13S 4355   3.563   2.438   9.329  1.9554  1.5080 -2.7824
   58SAPC  C214 4356   3.682   2.622   9.335  0.0117 -0.0296  0.1556
   58SAPC  H14R 4357   3.763   2.613   9.409 -0.0550  2.0156  0.5559
   58SAPC  C215 4358   3.707   2.662   9.207 -0.2130 -0.7242  0.5631
   58SAPC  H15R 4359   3.802   2.711   9.180  0.1047 -1.4187  0.3929
   58SAPC  C216 4360   3.623   2.654   9.084  0.0290  0.3621 -0.2542
   58SAPC  H16R 4361   3.518   2.628   9.109  0.1835  1.0670  1.2206
   58SAPC  H16S 4362   3.655   2.565   9.025  4.3478  1.9542 -0.7291
   58SAPC  C217 4363   3.631   2.783   9.000  0.0536  0.2439  0.1460
   58SAPC  H17R 4364   3.736   2.807   8.972  0.8536 -0.5195  2.2712
   58SAPC  H17S 4365   3.571   2.856   9.058 -0.8592 -0.9878  0.8105
   58SAPC  C218 4366   3.551   2.767   8.869 -0.5400 -0.4978  0.7558
   58SAPC  H18R 4367   3.459   2.707   8.886 -1.2810  0.5780  0.6371
   58SAPC  H18S 4368   3.614   2.699   8.808  0.6615  0.9152  0.3481
   58SAPC  C219 4369   3.526   2.894   8.783 -0.1161 -0.0383 -0.0630
   58SAPC  H19R 4370   3.624   2.947   8.775 -0.9614  1.4978 -0.6827
   58SAPC  H19S 4371   3.447   2.956   8.830 -1.6225 -1.8924 -0.0363
   58SAPC  C220 4372   3.472   2.864   8.644 -0.1984 -0.0784 -0.1001
   58SAPC  H20R 4373   3.552   2.812   8.586 -0.5197  0.2661 -0.8590
   58SAPC  H20S 4374   3.453   2.959   8.590  1.2133 -0.1828 -0.8459
   58SAPC  H20T 4375   3.378   2.806   8.654  0.9747 -2.1406 -0.2577
   58SAPC   C33 4376   3.068   1.543  10.208  0.9164  0.3097  0.1878
   58SAPC   H3X 4377   3.079   1.653  10.197  2.2725  0.0231 -1.7613
   58SAPC   H3Y 4378   2.977   1.522  10.147  1.4093 -0.0097 -0.4470
   58SAPC   C34 4379   3.188   1.477  10.149 -0.5415 -0.1504 -0.2551
   58SAPC   H4X 4380   3.166   1.374  10.115  1.0183  0.0557 -2.0035
   58SAPC   H4Y 4381   3.253   1.460  10.238  1.1666 -2.1207 -1.7823
   58SAPC   C35 4382   3.257   1.557  10.046  0.1102 -0.2001 -0.3283
   58SAPC   H5X 4383   3.356   1.508  10.032  2.1377  2.9632  1.5397
   58SAPC   H5Y 4384   3.277   1.656  10.093 -0.0568 -0.3615  0.0886
   58SAPC   C36 4385   3.178   1.576   9.914  0.2261  0.2102  0.0139
   58SAPC   H6X 4386   3.088   1.634   9.941  0.9153  1.6317 -0.6511
   58SAPC   H6Y 4387   3.144   1.478   9.875  0.9664 -0.4699  1.0237
   58SAPC   C37 4388   3.266   1.633   9.806 -0.2227  0.6404 -1.2522
   58SAPC   H7X 4389   3.344   1.567   9.763 -0.5042 -0.0519 -0.7328
   58SAPC   H7Y 4390   3.315   1.724   9.847 -1.7774  0.4689  1.2289
   58SAPC   C38 4391   3.188   1.684   9.691  0.5258 -0.2996  0.7005
   58SAPC   H8X 4392   3.116   1.763   9.720  0.3097 -0.3792  0.3829
   58SAPC   H8Y 4393   3.119   1.611   9.646 -0.0963  0.6997 -0.0157
   58SAPC   C39 4394   3.281   1.748   9.588  0.3589 -0.3758  0.1970
   58SAPC   H9X 4395   3.331   1.684   9.512 -3.5297 -0.8795 -2.1968
   58SAPC   H9Y 4396   3.354   1.809   9.645 -1.6719  2.4591 -0.0472
   58SAPC  C310 4397   3.206   1.847   9.505 -0.0707 -0.0889 -0.0202
   58SAPC  H10X 4398   3.151   1.928   9.557  0.9281  0.7874 -0.2886
   58SAPC  H10Y 4399   3.130   1.804   9.437  0.0340  0.0872 -0.2497
   58SAPC  C311 4400   3.295   1.929   9.414 -0.2775 -0.0196 -0.0448
   58SAPC  H11X 4401   3.340   1.855   9.345 -2.9595  0.6520 -2.7574
   58SAPC  H11Y 4402   3.372   1.989   9.467  0.1556  1.5615 -2.3237
   58SAPC  C312 4403   3.216   2.028   9.324  0.1830 -0.5511 -0.0939
   58SAPC  H12X 4404   3.169   2.110   9.382 -1.9079 -1.6949 -0.0919
   58SAPC  H12Y 4405   3.138   1.985   9.258  1.6748 -2.4262 -0.7451
   58SAPC  C313 4406   3.308   2.102   9.224 -1.0742 -0.4320  0.1149
   58SAPC  H13X 4407   3.366   2.030   9.162 -0.1060  1.3978 -1.2097
   58SAPC  H13Y 4408   3.383   2.151   9.289 -1.6892  1.2736 -0.4053
   58SAPC  C314 4409   3.253   2.209   9.125 -0.5680  0.2657 -0.2393
   58SAPC  H14X 4410   3.187   2.278   9.182 -0.8207 -0.7369  0.7226
   58SAPC  H14Y 4411   3.191   2.152   9.053  0.6343 -1.7152  0.2282
   58SAPC  C315 4412   3.350   2.297   9.042  0.2187 -0.2609  0.1915
   58SAPC  H15X 4413   3.411   2.225   8.983  0.2392 -0.1231  0.0408
   58SAPC  H15Y 4414   3.411   2.358   9.112  0.5933 -1.6152  1.0690
   58SAPC  C316 4415   3.279   2.390   8.938  0.0796  0.3049  0.7173
   58SAPC  H16X 4416   3.196   2.328   8.899  1.2696 -2.0629  1.7527
   58SAPC  H16Y 4417   3.356   2.399   8.858 -0.6195 -1.0692 -0.1571
   58SAPC  C317 4418   3.234   2.531   8.992  0.7822  0.6969 -0.4039
   58SAPC  H17X 4419   3.326   2.588   9.019  2.0873 -1.2214 -0.5052
   58SAPC  H17Y 4420   3.186   2.512   9.090  2.2464 -2.1124 -0.1089
   58SAPC  C318 4421   3.155   2.613   8.894 -0.5174 -0.6170  0.3795
   58SAPC  H18X 4422   3.110   2.700   8.948  0.5847  0.4653 -0.4088
   58SAPC  H18Y 4423   3.080   2.551   8.839  0.8779 -0.5683 -1.6594
   58SAPC  H18Z 4424   3.221   2.658   8.818  0.4967 -1.4784  0.7358
   59SAPC     N 4425   5.197   2.721  11.327 -0.2326  0.1116  0.1835
   59SAPC   C12 4426   5.099   2.626  11.272  0.0163 -0.2643  0.2355
   59SAPC  H12A 4427   5.001   2.645  11.314  0.7053  0.1877  1.6843
   59SAPC  H12B 4428   5.121   2.526  11.306  0.6002 -0.8552 -1.7667
   59SAPC   C13 4429   5.200   2.728  11.480  0.0621 -0.1753 -0.3525
   59SAPC  H13A 4430   5.206   2.633  11.531 -0.1275  0.7300  1.4172
   59SAPC  H13B 4431   5.274   2.799  11.514 -0.4222  0.4119 -0.4970
   59SAPC  H13C 4432   5.104   2.767  11.511  0.2411 -1.3492  1.8335
   59SAPC   C14 4433   5.335   2.671  11.289  0.2876  0.7690 -0.5560
   59SAPC  H14A 4434   5.343   2.622  11.194 -0.4579 -1.5201  0.5008
   59SAPC  H14B 4435   5.406   2.753  11.290  0.5457  0.5474 -0.7160
   59SAPC  H14C 4436   5.374   2.591  11.350 -0.1917  0.5355 -0.5509
   59SAPC   C15 4437   5.164   2.859  11.269 -0.0760  0.3643  0.4962
   59SAPC  H15A 4438   5.096   2.912  11.333  0.7288  2.4354 -0.2782
   59SAPC  H15B 4439   5.250   2.921  11.247 -1.1629  1.7330 -0.0738
   59SAPC  H15C 4440   5.130   2.851  11.167  2.3132 -0.5461 -0.3022
   59SAPC   C11 4441   5.084   2.623  11.118 -0.3338  0.8441  0.1551
   59SAPC  H11A 4442   5.052   2.721  11.076 -1.8780  0.6735  0.8491
   59SAPC  H11B 4443   4.991   2.565  11.098 -0.3755  0.4987  1.3109
   59SAPC     P 4444   5.220   2.409  11.084 -0.1253 -0.1557  0.3340
   59SAPC   O13 4445   5.342   2.403  11.167  0.5489  0.6084  0.5357
   59SAPC   O14 4446   5.092   2.343  11.132  1.0233 -0.0901  0.2098
   59SAPC   O12 4447   5.196   2.565  11.053  0.1928 -0.2656  0.0905
   59SAPC   O11 4448   5.256   2.347  10.943  0.5631  0.2896  0.1187
   59SAPC    C1 4449   5.291   2.416  10.823 -0.5748  0.7920 -0.2296
   59SAPC    HA 4450   5.353   2.503  10.853 -2.1829  1.3674  1.6166
   59SAPC    HB 4451   5.358   2.356  10.758  3.0086  1.1686  2.7763
   59SAPC    C2 4452   5.168   2.465  10.747 -0.1769 -0.0555 -0.1468
   59SAPC    HS 4453   5.092   2.490  10.824  1.5396  0.7087  1.3908
   59SAPC   O21 4454   5.128   2.360  10.655 -0.4205 -0.0860 -0.5221
   59SAPC   C21 4455   5.013   2.390  10.601 -0.0620  1.0415  0.1698
   59SAPC   O22 4456   4.931   2.464  10.650 -0.2309  0.3366 -0.1114
   59SAPC   C22 4457   4.993   2.308  10.473  0.0998 -0.1381  0.7431
   59SAPC   H2R 4458   4.899   2.251  10.487  0.9515 -1.6756  0.5004
   59SAPC   H2S 4459   4.952   2.381  10.400  0.9480 -0.1897  0.1981
   59SAPC    C3 4460   5.210   2.593  10.663  0.4668  0.2054  0.4210
   59SAPC    HX 4461   5.259   2.662  10.735 -1.4257  0.3125  1.6724
   59SAPC    HY 4462   5.109   2.627  10.632  0.0200 -0.7272  0.8261
   59SAPC   O31 4463   5.289   2.565  10.547 -0.6284 -0.1882  0.6305
   59SAPC   C31 4464   5.326   2.666  10.487  0.7657 -0.1579  0.5653
   59SAPC   O32 4465   5.317   2.783  10.515 -0.4533  0.1134 -0.6866
   59SAPC   C32 4466   5.369   2.629  10.348 -0.0538  0.7929 -0.6357
   59SAPC   H2X 4467   5.281   2.572  10.311  0.2953 -1.4963  1.7124
   59SAPC   H2Y 4468   5.460   2.565  10.354 -0.8296 -0.3207 -0.5341
   59SAPC   C23 4469   5.108   2.214  10.427 -0.2960 -0.0428 -0.0676
   59SAPC   H3R 4470   5.093   2.123  10.489 -0.3579  1.2370  1.8552
   59SAPC   H3S 4471   5.203   2.268  10.446  0.9403 -1.3134 -2.1217
   59SAPC   C24 4472   5.101   2.198  10.275 -0.1599  0.4895  0.0386
   59SAPC   H4R 4473   5.191   2.152  10.230 -0.1253  1.8028 -1.3210
   59SAPC   H4S 4474   5.092   2.299  10.229  0.0160  0.7835  0.6313
   59SAPC   C25 4475   4.978   2.119  10.226  0.7619  0.7150 -0.5626
   59SAPC   H5R 4476   4.883   2.169  10.252  0.6854 -0.1946  1.0593
   59SAPC   C26 4477   4.971   1.991  10.177 -0.0032  0.1781 -0.2351
   59SAPC   H6R 4478   4.877   1.945  10.143  0.8820 -0.8456 -1.3645
   59SAPC   C27 4479   5.084   1.888  10.164  0.1610 -0.0867 -0.5632
   59SAPC   H7R 4480   5.185   1.931  10.184 -0.0710  0.4655 -0.5616
   59SAPC   H7S 4481   5.091   1.848  10.061  2.6766 -3.1611  0.6148
   59SAPC   C28 4482   5.050   1.769  10.257  0.2598 -0.2804  0.1733
   59SAPC   H8R 4483   5.030   1.789  10.363  0.0749 -0.7462  0.2264
   59SAPC   C29 4484   5.032   1.642  10.216  0.2920 -0.3634 -0.7201
   59SAPC   H9R 4485   5.016   1.566  10.293  1.4872 -0.1428 -0.2444
   59SAPC  C210 4486   5.060   1.580  10.077  0.3627 -0.1851  0.7140
   59SAPC  H10R 4487   5.083   1.473  10.091 -0.2748 -0.2718  1.1422
   59SAPC  H10S 4488   5.148   1.632  10.034 -0.6092  1.0081  0.0928
   59SAPC  C211 4489   4.937   1.584   9.986  0.1571 -0.6909 -0.2984
   59SAPC  H11R 4490   4.851   1.608  10.051  0.2871 -1.2057  0.0704
   59SAPC  C212 4491   4.933   1.542   9.863  0.6166 -0.1892 -0.1201
   59SAPC  H12R 4492   4.839   1.561   9.809  1.0893 -0.3338 -1.0086
   59SAPC  C213 4493   5.057   1.510   9.777 -0.0949  0.0745  0.1004
   59SAPC  H13R 4494   5.135   1.461   9.839 -0.8052 -0.5909  0.4764
   59SAPC  H13S 4495   5.105   1.606   9.747 -1.5137  0.4681 -0.9923
   59SAPC  C214 4496   5.029   1.431   9.649 -0.0797 -0.6816 -0.0693
   59SAPC  H14R 4497   4.979   1.335   9.668 -0.6408 -0.3047  0.4247
   59SAPC  C215 4498   5.033   1.475   9.521  0.5385 -0.1545  0.5648
   59SAPC  H15R 4499   5.040   1.407   9.434 -0.4851  2.1268 -1.4237
   59SAPC  C216 4500   5.070   1.613   9.484 -0.2523 -0.2847  0.8819
   59SAPC  H16R 4501   5.035   1.681   9.564 -0.9496 -0.4909  0.7649
   59SAPC  H16S 4502   5.022   1.651   9.391 -1.2596 -1.1405  1.0350
   59SAPC  C217 4503   5.221   1.640   9.465 -0.1392 -0.0192  0.2336
   59SAPC  H17R 4504   5.256   1.625   9.570 -0.5955 -0.8049  0.2811
   59SAPC  H17S 4505   5.238   1.745   9.432  1.5381 -0.2601  0.2472
   59SAPC  C218 4506   5.299   1.549   9.364  0.2689  0.5906 -0.2881
   59SAPC  H18R 4507   5.238   1.554   9.271 -1.6631  1.6925  0.9606
   59SAPC  H18S 4508   5.316   1.451   9.412 -0.9985  0.8071  0.6752
   59SAPC  C219 4509   5.439   1.610   9.341 -0.9606 -0.3875  0.1425
   59SAPC  H19R 4510   5.436   1.706   9.285 -1.4576  0.1736  1.1120
   59SAPC  H19S 4511   5.501   1.540   9.281  0.2910 -0.5345  1.5424
   59SAPC  C220 4512   5.512   1.637   9.467  0.2297 -0.1931 -0.5843
   59SAPC  H20R 4513   5.619   1.661   9.447 -0.1322  1.1619 -0.9570
   59SAPC  H20S 4514   5.511   1.551   9.538  2.2145  0.4335  0.2869
   59SAPC  H20T 4515   5.465   1.724   9.517 -1.0647 -2.1905  1.9738
   59SAPC   C33 4516   5.398   2.745  10.260  0.2245  0.7624  0.6795
   59SAPC   H3X 4517   5.485   2.806  10.293 -1.3407  4.0907 -0.7812
   59SAPC   H3Y 4518   5.312   2.816  10.254  0.2338  0.6583 -1.0231
   59SAPC   C34 4519   5.411   2.696  10.121  0.4674  1.0958 -0.0954
   59SAPC   H4X 4520   5.307   2.657  10.112  0.8094 -0.3593  1.6365
   59SAPC   H4Y 4521   5.480   2.610  10.108 -0.1016  0.2773  1.9067
   59SAPC   C35 4522   5.439   2.805  10.020 -0.3577 -0.0849  0.2113
   59SAPC   H5X 4523   5.530   2.865  10.040 -1.6161  1.3763  1.9373
   59SAPC   H5Y 4524   5.355   2.876  10.036  0.2856  0.5065  1.0508
   59SAPC   C36 4525   5.434   2.761   9.873  0.3660  0.4515  0.4886
   59SAPC   H6X 4526   5.331   2.725   9.851 -0.1816  1.1328  1.8291
   59SAPC   H6Y 4527   5.498   2.670   9.868 -0.5280 -0.1807  0.4186
   59SAPC   C37 4528   5.478   2.872   9.777 -0.3025  0.2219  0.4667
   59SAPC   H7X 4529   5.580   2.887   9.820  0.7999 -2.5150 -0.9582
   59SAPC   H7Y 4530   5.415   2.962   9.797  1.1738  1.1911  0.9566
   59SAPC   C38 4531   5.474   2.832   9.632  0.3857 -0.0797  0.2160
   59SAPC   H8X 4532   5.367   2.833   9.601  0.1080  0.8119  1.1400
   59SAPC   H8Y 4533   5.522   2.736   9.604  1.5173  1.2451 -2.8268
   59SAPC   C39 4534   5.551   2.939   9.556  0.2983 -0.3234  0.4480
   59SAPC   H9X 4535   5.659   2.932   9.583  0.2185  0.9112  1.1951
   59SAPC   H9Y 4536   5.528   3.041   9.594 -2.7784 -0.2317 -1.3185
   59SAPC  C310 4537   5.527   2.941   9.401 -0.6131  0.6889 -0.3710
   59SAPC  H10X 4538   5.570   3.028   9.346 -1.1540  0.2419 -1.5366
   59SAPC  H10Y 4539   5.417   2.945   9.391 -0.5884 -0.7441 -1.5095
   59SAPC  C311 4540   5.580   2.813   9.330 -0.0409 -0.4041  0.3003
   59SAPC  H11X 4541   5.567   2.724   9.395 -0.3991 -1.2472 -0.8832
   59SAPC  H11Y 4542   5.691   2.819   9.320  0.0056  1.9062  1.6147
   59SAPC  C312 4543   5.505   2.777   9.201 -0.1259 -0.8508  0.1275
   59SAPC  H12X 4544   5.529   2.839   9.112  1.3885 -1.8473 -0.1808
   59SAPC  H12Y 4545   5.395   2.786   9.218 -0.0802  2.4506 -0.6981
   59SAPC  C313 4546   5.551   2.641   9.156 -0.3168  1.3223 -0.2002
   59SAPC  H13X 4547   5.479   2.579   9.098 -0.6184 -0.5135  2.0175
   59SAPC  H13Y 4548   5.572   2.567   9.236  1.5148  2.0910  0.1027
   59SAPC  C314 4549   5.678   2.655   9.059  0.0373 -0.5184  0.4932
   59SAPC  H14X 4550   5.757   2.704   9.119 -0.8313  0.7988  0.6001
   59SAPC  H14Y 4551   5.651   2.711   8.967  0.5172 -1.4037 -0.2065
   59SAPC  C315 4552   5.745   2.520   9.008 -0.0851 -0.4143  0.5044
   59SAPC  H15X 4553   5.671   2.449   8.966 -0.8788 -1.1910  3.0589
   59SAPC  H15Y 4554   5.777   2.474   9.103 -0.1596  0.1932  0.8300
   59SAPC  C316 4555   5.856   2.547   8.904 -0.4441 -0.4299 -0.5272
   59SAPC  H16X 4556   5.922   2.613   8.963 -0.0432 -0.6329 -0.7455
   59SAPC  H16Y 4557   5.803   2.601   8.823 -1.6606  0.7732  0.9919
   59SAPC  C317 4558   5.911   2.419   8.846  0.1139  0.4345 -0.0929
   59SAPC  H17X 4559   5.830   2.354   8.806  1.0931 -1.2915  0.5903
   59SAPC  H17Y 4560   5.947   2.350   8.926 -1.1102  0.2403  0.3145
   59SAPC  C318 4561   6.026   2.432   8.742  0.9059  0.2123 -0.4345
   59SAPC  H18X 4562   6.128   2.464   8.772 -0.0095  2.2971  0.5713
   59SAPC  H18Y 4563   5.989   2.495   8.659 -0.2723 -0.4948 -0.4704
   59SAPC  H18Z 4564   6.039   2.327   8.706  1.8923 -0.2062  1.0626
   60SAPC     N 4565   1.399   2.379  10.922  0.6916 -0.8359 -0.0697
   60SAPC   C12 4566   1.396   2.362  10.766  0.8964 -0.1769 -0.1910
   60SAPC  H12A 4567   1.447   2.447  10.723 -0.6955  0.3732 -1.0355
   60SAPC  H12B 4568   1.292   2.364  10.740  0.6038 -0.6973  0.8819
   60SAPC   C13 4569   1.541   2.393  10.963 -0.1521  0.0892 -0.0079
   60SAPC  H13A 4570   1.592   2.454  10.890  1.6445 -2.0768 -0.6848
   60SAPC  H13B 4571   1.555   2.414  11.067 -1.1885  0.4122  0.0768
   60SAPC  H13C 4572   1.590   2.298  10.944 -1.2828 -0.3208 -1.0431
   60SAPC   C14 4573   1.328   2.512  10.948  0.6456 -0.1554 -0.0597
   60SAPC  H14A 4574   1.369   2.593  10.889 -0.2590 -1.1394 -2.1891
   60SAPC  H14B 4575   1.225   2.502  10.917  0.2846  1.6032  0.4467
   60SAPC  H14C 4576   1.339   2.543  11.050  0.1511  1.7181 -0.5267
   60SAPC   C15 4577   1.349   2.259  10.996 -0.2586 -0.1642 -0.2759
   60SAPC  H15A 4578   1.351   2.278  11.103 -0.6963  0.8581 -0.4319
   60SAPC  H15B 4579   1.251   2.231  10.962 -0.6411  0.9611 -0.1562
   60SAPC  H15C 4580   1.406   2.170  10.975  2.0373  1.2733 -0.4690
   60SAPC   C11 4581   1.453   2.229  10.713  0.1524  0.3083  0.6057
   60SAPC  H11A 4582   1.539   2.201  10.776  0.2079  0.9832  0.8443
   60SAPC  H11B 4583   1.491   2.248  10.610 -1.3631  1.2848  0.1814
   60SAPC     P 4584   1.230   2.128  10.622 -0.2865  0.3898 -0.6151
   60SAPC   O13 4585   1.133   2.031  10.685  0.4502  0.2559 -0.3776
   60SAPC   O14 4586   1.190   2.265  10.603 -0.5141  0.2227  0.2416
   60SAPC   O12 4587   1.360   2.118  10.715 -0.3954 -0.1085 -0.0397
   60SAPC   O11 4588   1.283   2.069  10.492 -0.1980  0.5557  0.6188
   60SAPC    C1 4589   1.313   2.150  10.373 -0.1139  0.1175 -0.9654
   60SAPC    HA 4590   1.236   2.227  10.350 -0.8280  0.2053  1.4348
   60SAPC    HB 4591   1.402   2.213  10.394  0.0535  0.0581 -1.4748
   60SAPC    C2 4592   1.357   2.063  10.256 -0.1872 -0.5495  0.4213
   60SAPC    HS 4593   1.393   2.137  10.182 -0.6116  0.3333  1.0741
   60SAPC   O21 4594   1.239   1.995  10.204 -0.3655  0.4264  0.5078
   60SAPC   C21 4595   1.151   2.081  10.160 -0.0151 -0.1615  0.0533
   60SAPC   O22 4596   1.161   2.199  10.131  0.9560 -0.1179 -0.0228
   60SAPC   C22 4597   1.025   2.004  10.104 -0.0783  0.2479  0.0499
   60SAPC   H2R 4598   0.949   1.980  10.181 -0.0119 -1.0390 -0.2643
   60SAPC   H2S 4599   0.991   2.082  10.033  1.6539  0.9799 -0.0458
   60SAPC    C3 4600   1.472   1.964  10.295 -0.2956  0.0633  1.0433
   60SAPC    HX 4601   1.441   1.878  10.358 -0.6889 -1.6071 -1.3149
   60SAPC    HY 4602   1.550   2.022  10.350  0.2133  1.2565 -0.8516
   60SAPC   O31 4603   1.539   1.918  10.175  0.1049 -0.2788 -0.3317
   60SAPC   C31 4604   1.549   1.789  10.151  0.2002 -0.6653 -0.2591
   60SAPC   O32 4605   1.513   1.698  10.225 -0.4736 -1.0442  0.4315
   60SAPC   C32 4606   1.614   1.764  10.014  0.0123 -0.6587  0.3571
   60SAPC   H2X 4607   1.641   1.658   9.996 -0.6000 -0.9197  0.9295
   60SAPC   H2Y 4608   1.704   1.828  10.017  0.2314 -0.9835  0.8744
   60SAPC   C23 4609   1.060   1.875  10.029 -0.1571  0.4857 -0.2498
   60SAPC   H3R 4610   0.963   1.828  10.004  0.2974  0.3565 -1.8406
   60SAPC   H3S 4611   1.127   1.811  10.091 -0.8767  1.6656  1.8475
   60SAPC   C24 4612   1.135   1.902   9.889 -0.2202 -1.1617  0.2986
   60SAPC   H4R 4613   1.227   1.959   9.915 -1.2126 -0.1654  1.8326
   60SAPC   H4S 4614   1.077   1.974   9.827  2.5798 -1.0014 -2.3069
   60SAPC   C25 4615   1.170   1.777   9.817  0.0155 -0.2427 -0.5909
   60SAPC   H5R 4616   1.234   1.712   9.878  0.2413  1.4071  1.0445
   60SAPC   C26 4617   1.127   1.744   9.697  0.5271  0.2044  0.5031
   60SAPC   H6R 4618   1.172   1.657   9.646  2.0111 -0.0313  2.0880
   60SAPC   C27 4619   1.023   1.824   9.614 -0.3400  0.1165  0.0220
   60SAPC   H7R 4620   0.948   1.869   9.682 -2.3142  1.4796 -2.8325
   60SAPC   H7S 4621   0.960   1.752   9.558  0.2121  0.0132 -0.4799
   60SAPC   C28 4622   1.087   1.928   9.525 -0.8225 -0.4488  0.1955
   60SAPC   H8R 4623   1.122   2.015   9.582 -0.0519  1.5023 -3.0088
   60SAPC   C29 4624   1.108   1.921   9.392  1.0682  0.0175  0.2957
   60SAPC   H9R 4625   1.160   2.002   9.338  1.7573 -0.9341 -0.5051
   60SAPC  C210 4626   1.069   1.806   9.297  0.4545  0.5413 -0.4041
   60SAPC  H10R 4627   1.035   1.851   9.201 -1.5491  0.8765  0.4276
   60SAPC  H10S 4628   0.989   1.739   9.335  3.0206 -2.1640  0.6698
   60SAPC  C211 4629   1.189   1.715   9.297 -0.4512  0.0634  0.1096
   60SAPC  H11R 4630   1.246   1.685   9.386 -0.2062 -1.9698 -0.6697
   60SAPC  C212 4631   1.249   1.667   9.184  0.6211  0.4238 -0.0838
   60SAPC  H12R 4632   1.342   1.611   9.203  0.8553 -0.1972 -2.7371
   60SAPC  C213 4633   1.203   1.686   9.035 -0.0442  0.2458 -0.3548
   60SAPC  H13R 4634   1.104   1.737   9.035  0.6465  1.8047  2.5996
   60SAPC  H13S 4635   1.192   1.582   8.996 -0.2216 -0.5912  1.7690
   60SAPC  C214 4636   1.314   1.753   8.964  0.8468 -1.0358  0.1061
   60SAPC  H14R 4637   1.363   1.825   9.031 -0.4996 -1.3537  1.4815
   60SAPC  C215 4638   1.336   1.757   8.832 -0.6088  0.4797 -0.2635
   60SAPC  H15R 4639   1.418   1.821   8.795  0.8497 -1.1497  0.0289
   60SAPC  C216 4640   1.266   1.676   8.730 -0.1738  0.0737 -0.1731
   60SAPC  H16R 4641   1.189   1.733   8.674 -1.2710 -1.6618 -0.4996
   60SAPC  H16S 4642   1.220   1.589   8.781  0.8193  0.0085  0.6625
   60SAPC  C217 4643   1.354   1.628   8.614 -0.6745 -0.1050  1.0712
   60SAPC  H17R 4644   1.443   1.568   8.644  0.2743 -0.5634 -2.1912
   60SAPC  H17S 4645   1.388   1.714   8.552  0.1266 -0.8355  0.4713
   60SAPC  C218 4646   1.274   1.534   8.535  0.7879 -0.0805 -0.1798
   60SAPC  H18R 4647   1.184   1.583   8.493  0.6021  2.0056  2.4182
   60SAPC  H18S 4648   1.238   1.461   8.610 -1.0846 -0.9637 -1.8457
   60SAPC  C219 4649   1.353   1.461   8.427 -0.8015  0.8312 -0.4444
   60SAPC  H19R 4650   1.444   1.417   8.474 -0.2420  0.2799 -1.9759
   60SAPC  H19S 4651   1.386   1.533   8.349  0.7998  0.2837 -0.3228
   60SAPC  C220 4652   1.265   1.350   8.353 -0.6304  0.5334 -0.2555
   60SAPC  H20R 4653   1.313   1.290   8.273 -0.6979 -0.2720  0.2871
   60SAPC  H20S 4654   1.172   1.392   8.308 -0.6069 -0.3241 -1.1447
   60SAPC  H20T 4655   1.231   1.275   8.428 -3.9872 -0.2735 -2.3718
   60SAPC   C33 4656   1.523   1.826   9.904  0.5894  0.1094 -0.2302
   60SAPC   H3X 4657   1.502   1.929   9.940 -5.5462 -1.2875  1.2635
   60SAPC   H3Y 4658   1.421   1.782   9.893 -0.7679  3.0529 -0.1778
   60SAPC   C34 4659   1.593   1.838   9.767 -0.0355 -0.2337  0.2930
   60SAPC   H4X 4660   1.614   1.730   9.752 -1.9557 -0.4878 -0.8952
   60SAPC   H4Y 4661   1.692   1.884   9.784 -0.2808 -0.0166  1.1728
   60SAPC   C35 4662   1.509   1.902   9.655 -0.6012  0.5003  0.2453
   60SAPC   H5X 4663   1.499   2.010   9.678 -0.0114  0.1272  2.4382
   60SAPC   H5Y 4664   1.406   1.860   9.652 -0.4646  0.1749 -1.4722
   60SAPC   C36 4665   1.569   1.893   9.510  0.0980  0.1623  0.5586
   60SAPC   H6X 4666   1.580   1.784   9.493 -1.2446 -0.2499  2.1152
   60SAPC   H6Y 4667   1.661   1.955   9.501 -1.2862  2.4228  1.2776
   60SAPC   C37 4668   1.470   1.962   9.405  0.8404  0.0486  0.0292
   60SAPC   H7X 4669   1.433   2.064   9.428 -0.3271 -0.3594 -0.0133
   60SAPC   H7Y 4670   1.378   1.900   9.399  0.4268  0.6136  0.4852
   60SAPC   C38 4671   1.526   1.977   9.263  0.2426  0.3024 -0.2801
   60SAPC   H8X 4672   1.535   1.878   9.213 -1.6760  0.3333 -0.7600
   60SAPC   H8Y 4673   1.625   2.027   9.272  0.6850 -0.8834  2.1702
   60SAPC   C39 4674   1.434   2.062   9.167 -0.1006  0.7728  1.2327
   60SAPC   H9X 4675   1.422   2.166   9.204 -3.1267  0.3133  1.7812
   60SAPC   H9Y 4676   1.328   2.032   9.154  0.0616  0.6491  0.0834
   60SAPC  C310 4677   1.498   2.087   9.029 -0.7105  0.7874 -0.0525
   60SAPC  H10X 4678   1.532   1.993   8.981  0.5610  1.1674  0.0542
   60SAPC  H10Y 4679   1.587   2.152   9.046 -2.2239  2.3670  2.4403
   60SAPC  C311 4680   1.409   2.161   8.939 -0.1412 -0.6345 -0.0831
   60SAPC  H11X 4681   1.368   2.255   8.983 -0.2631  0.1396 -1.7437
   60SAPC  H11Y 4682   1.323   2.092   8.930 -0.8856 -0.1123  2.4101
   60SAPC  C312 4683   1.472   2.194   8.808  0.1869  0.2581 -0.3902
   60SAPC  H12X 4684   1.570   2.239   8.835 -0.1510  0.2105  1.0198
   60SAPC  H12Y 4685   1.406   2.262   8.750 -0.8298 -0.7873 -0.4950
   60SAPC  C313 4686   1.495   2.076   8.710  0.0721 -0.5340  0.4565
   60SAPC  H13X 4687   1.398   2.024   8.695  0.1855 -0.6568  0.1433
   60SAPC  H13Y 4688   1.569   2.001   8.745 -1.7941 -2.0850  1.2363
   60SAPC  C314 4689   1.541   2.136   8.582  0.4080  0.1611  0.2720
   60SAPC  H14X 4690   1.622   2.209   8.605 -0.3853  0.3982  2.5176
   60SAPC  H14Y 4691   1.471   2.212   8.541  1.7499  0.6946 -1.1759
   60SAPC  C315 4692   1.578   2.039   8.463  0.6710 -0.5568 -0.0647
   60SAPC  H15X 4693   1.648   2.091   8.394 -1.7464  2.0598 -0.7267
   60SAPC  H15Y 4694   1.484   2.014   8.410 -0.1180  1.0061  0.5201
   60SAPC  C316 4695   1.653   1.907   8.500  0.7768 -0.8219  0.0669
   60SAPC  H16X 4696   1.584   1.850   8.566  0.6838  0.4457  1.1217
   60SAPC  H16Y 4697   1.740   1.938   8.562  1.1409  0.5463 -1.0775
   60SAPC  C317 4698   1.692   1.837   8.365 -0.2611  0.4106  0.5026
   60SAPC  H17X 4699   1.755   1.901   8.299  1.5528 -0.7267  1.0416
   60SAPC  H17Y 4700   1.596   1.830   8.311 -0.6562  0.8610  1.1325
   60SAPC  C318 4701   1.761   1.705   8.378 -0.1058  0.3129 -0.4531
   60SAPC  H18X 4702   1.795   1.656   8.283  2.6757 -1.5735  1.3507
   60SAPC  H18Y 4703   1.695   1.628   8.424  1.0625 -0.8278 -0.6317
   60SAPC  H18Z 4704   1.851   1.715   8.441  0.4529  2.1110 -1.4750
   61SAPC     N 4705   2.831   6.088  10.916  0.1816 -0.4467  0.4735
   61SAPC   C12 4706   2.906   6.133  10.790 -0.2862 -0.1769 -0.7341
   61SAPC  H12A 4707   2.988   6.196  10.823  0.7182 -1.6917 -0.2597
   61SAPC  H12B 4708   2.840   6.188  10.723  0.1760  0.0562 -1.0065
   61SAPC   C13 4709   2.781   6.209  10.992 -0.2213  0.1016 -0.1486
   61SAPC  H13A 4710   2.717   6.181  11.074  0.5307 -2.3171 -0.2951
   61SAPC  H13B 4711   2.859   6.274  11.028  0.1939 -0.5320  0.1089
   61SAPC  H13C 4712   2.742   6.265  10.908 -1.0343 -0.0310  0.1348
   61SAPC   C14 4713   2.722   5.989  10.884  0.4425  0.2244 -0.8952
   61SAPC  H14A 4714   2.653   6.035  10.815 -1.2525  0.6668  1.0167
   61SAPC  H14B 4715   2.762   5.896  10.845  3.2047 -0.0356  2.1711
   61SAPC  H14C 4716   2.668   5.981  10.976  0.1379 -0.2161 -1.1103
   61SAPC   C15 4717   2.926   6.028  11.013  0.1958  0.1067 -0.3323
   61SAPC  H15A 4718   2.861   5.976  11.081  0.9815 -0.8768 -0.3176
   61SAPC  H15B 4719   2.991   5.953  10.971  0.1376 -0.8931  1.2882
   61SAPC  H15C 4720   2.984   6.094  11.077 -0.7484 -1.2513  2.0540
   61SAPC   C11 4721   2.983   6.026  10.706 -1.4452 -0.6829 -0.3398
   61SAPC  H11A 4722   2.994   6.069  10.604  0.0080 -1.4321 -0.5220
   61SAPC  H11B 4723   2.914   5.940  10.693 -0.5768 -1.4398 -0.0391
   61SAPC     P 4724   3.246   6.081  10.747 -0.0239 -0.3189  0.0650
   61SAPC   O13 4725   3.210   6.212  10.812 -0.6594 -0.2368  0.5552
   61SAPC   O14 4726   3.365   6.003  10.797 -0.4384  0.2171 -0.7279
   61SAPC   O12 4727   3.116   5.991  10.757 -0.1267  0.5060  0.0452
   61SAPC   O11 4728   3.268   6.103  10.592 -0.2493 -0.5528  0.2998
   61SAPC    C1 4729   3.299   5.999  10.497 -0.0050 -0.1331 -0.7232
   61SAPC    HA 4730   3.392   5.945  10.524  0.2675  0.9164  0.4973
   61SAPC    HB 4731   3.214   5.928  10.488 -0.9273  1.0685 -1.9249
   61SAPC    C2 4732   3.315   6.051  10.349  0.0461  0.1629 -0.7690
   61SAPC    HS 4733   3.310   5.966  10.278 -2.9173 -0.3327 -0.0948
   61SAPC   O21 4734   3.442   6.122  10.338  0.0635 -0.5079 -0.6368
   61SAPC   C21 4735   3.546   6.040  10.329 -0.1921 -0.1189 -0.3450
   61SAPC   O22 4736   3.538   5.922  10.329  0.1507  0.5609 -0.0152
   61SAPC   C22 4737   3.675   6.112  10.317 -0.1774 -0.9161  0.2304
   61SAPC   H2R 4738   3.659   6.198  10.248 -3.0751 -0.2599  1.5624
   61SAPC   H2S 4739   3.704   6.149  10.418  0.3802 -0.0132 -0.2453
   61SAPC    C3 4740   3.193   6.146  10.324 -0.1132 -0.7202  0.2865
   61SAPC    HX 4741   3.210   6.230  10.395  0.8606 -1.0398  0.4538
   61SAPC    HY 4742   3.089   6.117  10.349 -1.1667  1.9799 -0.5789
   61SAPC   O31 4743   3.189   6.201  10.192  0.2666  0.0654  0.2856
   61SAPC   C31 4744   3.135   6.110  10.108  0.4191 -0.4494 -0.0603
   61SAPC   O32 4745   3.113   5.994  10.142 -0.9081 -0.1012 -0.2528
   61SAPC   C32 4746   3.101   6.180   9.973 -0.1299  0.5937  0.0864
   61SAPC   H2X 4747   3.186   6.249   9.952  1.4189 -1.5897 -1.1909
   61SAPC   H2Y 4748   3.002   6.226   9.992 -1.8464 -2.9651  0.5552
   61SAPC   C23 4749   3.786   6.025  10.269  0.1246  0.3077 -0.5257
   61SAPC   H3R 4750   3.789   5.934  10.332  1.2753 -0.0074 -1.0191
   61SAPC   H3S 4751   3.882   6.080  10.283  0.1006  0.6507 -1.5733
   61SAPC   C24 4752   3.783   5.969  10.126  0.8935 -0.4027 -0.0300
   61SAPC   H4R 4753   3.694   5.902  10.118  0.4677  0.3175 -1.9078
   61SAPC   H4S 4754   3.869   5.899  10.126  1.0620 -0.2257  1.3954
   61SAPC   C25 4755   3.776   6.060  10.008 -0.4018 -0.5209  0.6626
   61SAPC   H5R 4756   3.873   6.107   9.986 -0.2292 -0.9724  0.4494
   61SAPC   C26 4757   3.676   6.085   9.925  0.2690 -0.0301 -0.5096
   61SAPC   H6R 4758   3.681   6.151   9.837  1.3771  0.6390  0.0227
   61SAPC   C27 4759   3.542   6.023   9.937  0.2131 -0.4911  0.0255
   61SAPC   H7R 4760   3.504   6.068  10.032  0.1910 -1.2212  0.3683
   61SAPC   H7S 4761   3.563   5.916   9.957  0.9811 -0.3597 -0.0455
   61SAPC   C28 4762   3.448   6.057   9.825 -0.3657  0.6104  0.1917
   61SAPC   H8R 4763   3.353   6.104   9.854 -0.7559 -0.2332  0.2906
   61SAPC   C29 4764   3.465   6.037   9.690  0.2622 -0.1167 -0.5350
   61SAPC   H9R 4765   3.389   6.082   9.626  0.4673  0.6866 -0.2215
   61SAPC  C210 4766   3.585   5.975   9.631 -0.2190 -0.1540  0.0653
   61SAPC  H10R 4767   3.631   5.907   9.705  0.3415  0.1135 -0.0315
   61SAPC  H10S 4768   3.662   6.051   9.604 -1.5656  1.3133  0.1880
   61SAPC  C211 4769   3.539   5.890   9.510  0.8295 -0.4077 -0.0204
   61SAPC  H11R 4770   3.513   5.785   9.532 -2.6911  0.2199 -0.6487
   61SAPC  C212 4771   3.518   5.932   9.383 -1.1283 -0.0492 -0.7342
   61SAPC  H12R 4772   3.469   5.865   9.311 -1.0950 -1.2598  0.3370
   61SAPC  C213 4773   3.545   6.073   9.333  0.1612 -0.3533 -0.0787
   61SAPC  H13R 4774   3.643   6.077   9.281 -0.1026 -1.0282 -0.6356
   61SAPC  H13S 4775   3.537   6.157   9.407 -2.8067  0.7671 -1.5138
   61SAPC  C214 4776   3.440   6.117   9.233 -0.4043 -0.0995 -0.6324
   61SAPC  H14R 4777   3.360   6.188   9.258 -0.0438  0.2479 -0.4509
   61SAPC  C215 4778   3.452   6.104   9.100  0.9789  0.6004  0.5526
   61SAPC  H15R 4779   3.380   6.160   9.038  0.0956 -0.9909  0.0873
   61SAPC  C216 4780   3.550   6.040   9.006 -1.0215 -0.1274 -0.3046
   61SAPC  H16R 4781   3.495   5.961   8.952 -1.5084  0.1728 -0.2587
   61SAPC  H16S 4782   3.630   5.985   9.060 -0.9349  0.6207  0.3657
   61SAPC  C217 4783   3.621   6.129   8.905 -0.2676  0.2387 -0.2272
   61SAPC  H17R 4784   3.671   6.063   8.831 -1.0325 -0.4371 -0.1576
   61SAPC  H17S 4785   3.698   6.178   8.968  0.4525 -1.7555  0.5119
   61SAPC  C218 4786   3.527   6.224   8.828  0.0638 -0.0822  0.6870
   61SAPC  H18R 4787   3.497   6.295   8.908 -1.2782 -0.9452  0.9866
   61SAPC  H18S 4788   3.429   6.187   8.790  1.3709  0.1647 -3.3410
   61SAPC  C219 4789   3.596   6.289   8.715  0.4495 -0.1762  0.8979
   61SAPC  H19R 4790   3.701   6.325   8.721  0.3100  0.2689  0.7108
   61SAPC  H19S 4791   3.542   6.374   8.669 -1.0499 -1.4885  0.1045
   61SAPC  C220 4792   3.595   6.189   8.597 -0.3116  0.6493  0.3599
   61SAPC  H20R 4793   3.664   6.220   8.515 -1.0542 -2.1102 -1.4546
   61SAPC  H20S 4794   3.493   6.172   8.555  0.3328 -0.2419 -0.9360
   61SAPC  H20T 4795   3.634   6.091   8.632  2.1313  0.9765 -1.2174
   61SAPC   C33 4796   3.099   6.081   9.853  0.2261 -0.4749 -0.0460
   61SAPC   H3X 4797   3.014   6.010   9.852  2.5207 -3.4357  1.0510
   61SAPC   H3Y 4798   3.189   6.017   9.849  1.7869  1.4558  1.7027
   61SAPC   C34 4799   3.114   6.146   9.713  0.3933  0.6282  0.0157
   61SAPC   H4X 4800   3.204   6.209   9.697 -0.4397  1.7996 -0.2004
   61SAPC   H4Y 4801   3.023   6.204   9.687 -1.8599 -1.9612  1.5833
   61SAPC   C35 4802   3.122   6.040   9.596 -0.5018  0.4234  0.6447
   61SAPC   H5X 4803   3.031   5.975   9.597  0.4947 -1.0402  0.5458
   61SAPC   H5Y 4804   3.206   5.969   9.611 -1.1415 -0.3050  0.9032
   61SAPC   C36 4805   3.120   6.106   9.461  0.2994  0.4692  0.1651
   61SAPC   H6X 4806   3.213   6.165   9.443 -0.0548  1.7682  2.2404
   61SAPC   H6Y 4807   3.038   6.181   9.466 -1.5470 -1.5570  2.1479
   61SAPC   C37 4808   3.090   6.009   9.344 -0.1371 -0.6226 -0.5197
   61SAPC   H7X 4809   2.996   5.950   9.357 -0.9214  1.1202  3.0260
   61SAPC   H7Y 4810   3.171   5.933   9.344  1.0573  0.5985 -2.0664
   61SAPC   C38 4811   3.094   6.076   9.206 -0.2954  1.1211 -0.7332
   61SAPC   H8X 4812   3.174   6.153   9.206 -1.4244  2.3217 -0.5535
   61SAPC   H8Y 4813   3.003   6.136   9.183 -0.5497  1.3142  0.7298
   61SAPC   C39 4814   3.112   5.964   9.097  0.0585 -0.0116 -0.8149
   61SAPC   H9X 4815   3.035   5.885   9.113  1.2395 -1.1727 -0.6326
   61SAPC   H9Y 4816   3.208   5.915   9.125  0.8417  2.2561  0.7296
   61SAPC  C310 4817   3.117   6.012   8.947 -0.3437  0.6621  0.0527
   61SAPC  H10X 4818   3.100   5.917   8.893 -2.0937  0.3605  1.0745
   61SAPC  H10Y 4819   3.212   6.067   8.926  0.7900 -0.9041  0.9040
   61SAPC  C311 4820   2.999   6.104   8.919 -0.6175 -0.0957 -0.5138
   61SAPC  H11X 4821   2.985   6.194   8.982 -0.3882 -0.5710  0.2276
   61SAPC  H11Y 4822   2.921   6.032   8.951 -2.0500  1.4025 -0.4871
   61SAPC  C312 4823   2.980   6.125   8.767 -0.5686  0.3829 -0.6133
   61SAPC  H12X 4824   2.872   6.152   8.757 -0.3093  1.1503 -1.5001
   61SAPC  H12Y 4825   3.001   6.032   8.710  0.4612  0.8530 -1.0180
   61SAPC  C313 4826   3.060   6.244   8.707  0.5288 -0.0646 -0.0274
   61SAPC  H13X 4827   3.171   6.241   8.720  0.7730  1.3106 -1.5005
   61SAPC  H13Y 4828   3.020   6.334   8.759 -0.5616 -0.0726 -0.8283
   61SAPC  C314 4829   3.028   6.266   8.557 -0.6648  0.3282 -0.3449
   61SAPC  H14X 4830   2.919   6.252   8.544 -0.3970  0.4548 -3.3816
   61SAPC  H14Y 4831   3.094   6.189   8.512  1.0763  1.0071  0.9365
   61SAPC  C315 4832   3.069   6.403   8.497  0.5926  1.2036  0.2920
   61SAPC  H15X 4833   2.999   6.480   8.535  0.6649  1.1994  0.4353
   61SAPC  H15Y 4834   3.040   6.393   8.391 -0.0164  0.1553  0.5443
   61SAPC  C316 4835   3.219   6.442   8.512  0.6955 -0.4695 -0.0018
   61SAPC  H16X 4836   3.278   6.349   8.501 -2.8575 -2.8238 -1.0488
   61SAPC  H16Y 4837   3.221   6.469   8.620 -0.5625  0.2695 -0.1316
   61SAPC  C317 4838   3.258   6.555   8.424  0.7863  0.0301  0.2116
   61SAPC  H17X 4839   3.172   6.623   8.411 -1.5246 -2.0687  3.1366
   61SAPC  H17Y 4840   3.269   6.508   8.325 -0.9089  2.0514 -1.0255
   61SAPC  C318 4841   3.387   6.632   8.451  0.0571  0.2774 -0.2000
   61SAPC  H18X 4842   3.381   6.683   8.549 -2.0471  0.7920 -0.5490
   61SAPC  H18Y 4843   3.422   6.692   8.365 -2.8467  1.0031 -1.0031
   61SAPC  H18Z 4844   3.462   6.551   8.455  0.4583  0.6514 -0.0415
   62SAPC     N 4845   3.286   0.477  10.764 -0.2856  0.3725  0.2808
   62SAPC   C12 4846   3.274   0.623  10.742 -0.0902 -0.1121 -0.7091
   62SAPC  H12A 4847   3.363   0.665  10.696 -1.6149  1.1925 -2.6320
   62SAPC  H12B 4848   3.266   0.670  10.839  2.8046 -0.4396 -0.2031
   62SAPC   C13 4849   3.299   0.398  10.637  0.5001 -0.6391 -1.0576
   62SAPC  H13A 4850   3.318   0.295  10.665  0.0700 -0.1947  1.0084
   62SAPC  H13B 4851   3.222   0.414  10.563 -1.0917  0.7861  0.8343
   62SAPC  H13C 4852   3.388   0.437  10.589 -0.1121  2.1268 -0.1241
   62SAPC   C14 4853   3.413   0.448  10.843 -0.3987 -0.2791  0.2159
   62SAPC  H14A 4854   3.438   0.345  10.861  2.7224  0.2426 -0.3847
   62SAPC  H14B 4855   3.501   0.476  10.786 -0.5404 -0.5070 -0.1173
   62SAPC  H14C 4856   3.426   0.499  10.937  3.5892 -0.8735  0.1732
   62SAPC   C15 4857   3.161   0.427  10.838 -0.3479  0.4054  0.1098
   62SAPC  H15A 4858   3.073   0.450  10.779 -1.8408 -2.6816  0.8914
   62SAPC  H15B 4859   3.181   0.326  10.869  0.8864  0.4332 -0.5323
   62SAPC  H15C 4860   3.155   0.494  10.923  0.9965  1.3447 -0.5032
   62SAPC   C11 4861   3.162   0.669  10.644 -0.1664  0.1588 -0.3141
   62SAPC  H11A 4862   3.186   0.620  10.547 -2.6545 -2.0165  0.0575
   62SAPC  H11B 4863   3.168   0.779  10.634 -1.9818  0.6244  2.6040
   62SAPC     P 4864   2.930   0.589  10.583 -0.4424  0.1599 -0.1662
   62SAPC   O13 4865   2.810   0.541  10.647  0.7326  0.1756 -0.0432
   62SAPC   O14 4866   2.908   0.696  10.482  0.1858  0.9328  0.1226
   62SAPC   O12 4867   3.033   0.642  10.699 -0.3224  0.4275 -0.1391
   62SAPC   O11 4868   3.011   0.454  10.532 -0.5334  0.2153  0.6260
   62SAPC    C1 4869   2.933   0.366  10.452  0.4973 -0.4843 -0.7234
   62SAPC    HA 4870   2.867   0.299  10.511 -2.2170  0.6140 -2.3140
   62SAPC    HB 4871   2.872   0.425  10.380  0.2763 -0.9338 -0.9166
   62SAPC    C2 4872   3.017   0.271  10.359 -0.0036  0.7804 -0.4495
   62SAPC    HS 4873   2.952   0.213  10.290 -0.6798  0.8626  0.1105
   62SAPC   O21 4874   3.110   0.189  10.431 -0.2095 -0.4516  0.1300
   62SAPC   C21 4875   3.044   0.094  10.489 -0.0723 -0.8907 -0.3317
   62SAPC   O22 4876   2.933   0.055  10.459  0.0153 -0.1556  0.7663
   62SAPC   C22 4877   3.134   0.022  10.581  0.3728  0.3998  0.3436
   62SAPC   H2R 4878   3.217   0.087  10.613 -1.3742  2.3382  1.1627
   62SAPC   H2S 4879   3.080  -0.002  10.676  1.5020  1.5736  1.3091
   62SAPC    C3 4880   3.097   0.350  10.252  0.2349  0.0352 -0.6667
   62SAPC    HX 4881   3.156   0.429  10.304  0.7740 -1.5101  1.1747
   62SAPC    HY 4882   3.022   0.400  10.186 -1.1201  0.6997  1.2969
   62SAPC   O31 4883   3.201   0.279  10.186 -0.2630  0.3187  0.4438
   62SAPC   C31 4884   3.170   0.197  10.087 -0.1684  0.8240  0.6696
   62SAPC   O32 4885   3.062   0.170  10.044 -0.4984 -0.1066 -0.5851
   62SAPC   C32 4886   3.294   0.131  10.032 -0.8607  0.3148 -0.0287
   62SAPC   H2X 4887   3.261   0.025  10.029 -1.2620  0.4121  0.7327
   62SAPC   H2Y 4888   3.376   0.143  10.106 -1.7781  2.0032  0.7806
   62SAPC   C23 4889   3.182  -0.110  10.513  0.3244 -0.5203 -1.4098
   62SAPC   H3R 4890   3.098  -0.183  10.516  0.7112 -0.9422 -0.4025
   62SAPC   H3S 4891   3.253  -0.158  10.585 -0.6457 -1.2427 -0.9096
   62SAPC   C24 4892   3.230  -0.098  10.368 -0.9522 -0.6299 -0.3352
   62SAPC   H4R 4893   3.162  -0.031  10.312 -1.1673  0.4383  1.1323
   62SAPC   H4S 4894   3.223  -0.202  10.328  2.6421 -1.7471  1.4352
   62SAPC   C25 4895   3.375  -0.046  10.380 -0.5827  0.0556  0.1426
   62SAPC   H5R 4896   3.408   0.029  10.453 -0.5647  1.4922 -1.2772
   62SAPC   C26 4897   3.469  -0.077  10.289  0.3706 -0.1057  0.2491
   62SAPC   H6R 4898   3.566  -0.030  10.312  0.3238  0.9340 -1.5040
   62SAPC   C27 4899   3.462  -0.163  10.166  0.7774 -0.1196 -0.2958
   62SAPC   H7R 4900   3.548  -0.137  10.100  3.4019 -1.9324  2.1507
   62SAPC   H7S 4901   3.367  -0.136  10.114 -0.8815 -1.6781  1.7460
   62SAPC   C28 4902   3.462  -0.312  10.186  0.0513 -0.3114  1.5812
   62SAPC   H8R 4903   3.458  -0.347  10.290 -3.4337 -2.7657  0.7771
   62SAPC   C29 4904   3.449  -0.386  10.078 -0.4126 -0.3443  0.0520
   62SAPC   H9R 4905   3.430  -0.493  10.090 -1.8329 -0.0569  0.6179
   62SAPC  C210 4906   3.426  -0.338   9.935  0.0258  0.2955 -0.3945
   62SAPC  H10R 4907   3.354  -0.254   9.940 -1.5879 -1.1114  1.7320
   62SAPC  H10S 4908   3.366  -0.413   9.879 -0.7405 -0.4569  1.3628
   62SAPC  C211 4909   3.545  -0.297   9.845  0.1943  1.0302 -0.0915
   62SAPC  H11R 4910   3.650  -0.302   9.877  1.3421  2.1976 -3.1802
   62SAPC  C212 4911   3.526  -0.265   9.712 -0.4491 -0.5575 -0.1330
   62SAPC  H12R 4912   3.614  -0.243   9.650 -1.7107 -0.3860 -1.9350
   62SAPC  C213 4913   3.391  -0.246   9.642 -0.2955  0.7993 -0.1379
   62SAPC  H13R 4914   3.385  -0.137   9.621 -2.2725  0.2975 -2.6845
   62SAPC  H13S 4915   3.304  -0.256   9.710 -0.0634  1.2235  0.2307
   62SAPC  C214 4916   3.389  -0.331   9.514  0.2279 -0.3419 -0.4474
   62SAPC  H14R 4917   3.348  -0.432   9.535  0.4502 -0.4375 -0.4686
   62SAPC  C215 4918   3.427  -0.291   9.400  0.4472  0.5176 -0.4532
   62SAPC  H15R 4919   3.420  -0.365   9.319 -0.3685 -1.7314  1.5597
   62SAPC  C216 4920   3.486  -0.158   9.367  0.5493  0.1780 -0.4024
   62SAPC  H16R 4921   3.589  -0.134   9.402 -0.3809 -0.1202  2.7848
   62SAPC  H16S 4922   3.424  -0.078   9.412  1.0834 -0.3220  1.2997
   62SAPC  C217 4923   3.502  -0.128   9.221  0.3408 -0.2028  0.2235
   62SAPC  H17R 4924   3.560  -0.208   9.170 -0.5516  0.1677 -1.4542
   62SAPC  H17S 4925   3.560  -0.035   9.204  1.1490 -0.5162  1.1878
   62SAPC  C218 4926   3.371  -0.120   9.150  0.1784  0.0315  0.0111
   62SAPC  H18R 4927   3.302  -0.054   9.207  1.8187  1.6933  0.1291
   62SAPC  H18S 4928   3.314  -0.216   9.155 -1.0171  0.7035 -0.3299
   62SAPC  C219 4929   3.373  -0.072   9.004 -0.1533 -0.2003 -0.4828
   62SAPC  H19R 4930   3.424   0.026   9.003 -0.5644  0.1170  2.5687
   62SAPC  H19S 4931   3.269  -0.045   8.974 -1.4345 -1.5639  2.3931
   62SAPC  C220 4932   3.435  -0.164   8.909  0.6363 -0.3314  0.6858
   62SAPC  H20R 4933   3.366  -0.245   8.875  2.1577 -0.7415 -1.6276
   62SAPC  H20S 4934   3.525  -0.208   8.956  1.7892  1.2548  0.0574
   62SAPC  H20T 4935   3.476  -0.109   8.821 -1.2485  1.8335  1.0524
   62SAPC   C33 4936   3.324   0.179   9.893 -0.3297  0.3723  0.3408
   62SAPC   H3X 4937   3.422   0.136   9.863  0.2025  1.7822 -0.0281
   62SAPC   H3Y 4938   3.341   0.289   9.893  0.2353  0.3131 -1.2706
   62SAPC   C34 4939   3.234   0.117   9.788 -0.0200 -0.6839  0.1444
   62SAPC   H4X 4940   3.128   0.147   9.804  0.2903  1.1623 -1.0010
   62SAPC   H4Y 4941   3.242   0.008   9.810  0.0906 -0.6104  0.4764
   62SAPC   C35 4942   3.270   0.158   9.648  0.0349  0.4930  0.1444
   62SAPC   H5X 4943   3.374   0.137   9.616  0.1890 -0.3696  1.1476
   62SAPC   H5Y 4944   3.247   0.267   9.646  0.0935  0.5131  0.5101
   62SAPC   C36 4945   3.176   0.085   9.543  0.2762  0.1332  0.0037
   62SAPC   H6X 4946   3.083   0.057   9.597 -0.1209  1.8692  0.3072
   62SAPC   H6Y 4947   3.223  -0.008   9.505 -1.5194 -0.0076 -2.0937
   62SAPC   C37 4948   3.132   0.178   9.421  0.4034  0.1434 -0.6692
   62SAPC   H7X 4949   3.086   0.270   9.462  0.9372  0.1204  0.0022
   62SAPC   H7Y 4950   3.051   0.128   9.364 -1.0492 -0.2496  1.5985
   62SAPC   C38 4951   3.241   0.229   9.328 -0.3959  0.2950  0.3628
   62SAPC   H8X 4952   3.331   0.164   9.330  0.0308  0.9051  1.7813
   62SAPC   H8Y 4953   3.280   0.327   9.363  1.2944 -0.9540  2.1683
   62SAPC   C39 4954   3.193   0.239   9.180 -0.6542 -0.2237 -0.2355
   62SAPC   H9X 4955   3.109   0.311   9.185 -0.1336  0.3201  1.4964
   62SAPC   H9Y 4956   3.158   0.140   9.143  0.1866 -0.5857 -0.0744
   62SAPC  C310 4957   3.289   0.304   9.085 -0.1548  0.3300  0.4907
   62SAPC  H10X 4958   3.383   0.246   9.071  0.0399  0.8058 -0.2267
   62SAPC  H10Y 4959   3.315   0.407   9.116  3.0518 -0.6427  1.4740
   62SAPC  C311 4960   3.243   0.301   8.937 -0.7561 -0.3488 -0.0962
   62SAPC  H11X 4961   3.132   0.313   8.928 -0.6127  0.7035 -0.6312
   62SAPC  H11Y 4962   3.269   0.203   8.892  0.9102 -0.3162  0.7492
   62SAPC  C312 4963   3.296   0.424   8.856  0.1704 -0.2284 -0.4193
   62SAPC  H12X 4964   3.407   0.418   8.855  0.1929  0.0628  0.0682
   62SAPC  H12Y 4965   3.256   0.515   8.905  0.1705 -0.8193  0.7049
   62SAPC  C313 4966   3.244   0.421   8.708  0.2827  0.3216  0.5088
   62SAPC  H13X 4967   3.237   0.525   8.669  1.3549  0.0697 -0.4084
   62SAPC  H13Y 4968   3.141   0.380   8.717  0.7832 -0.6762  1.9642
   62SAPC  C314 4969   3.337   0.340   8.618  0.5650  0.2590  0.3472
   62SAPC  H14X 4970   3.353   0.238   8.659  2.4615  1.2879  2.3180
   62SAPC  H14Y 4971   3.437   0.382   8.597 -0.1274  0.9236 -1.9974
   62SAPC  C315 4972   3.280   0.314   8.473  0.8612  0.0039 -0.1670
   62SAPC  H15X 4973   3.175   0.277   8.477  0.8215  0.2057  0.9231
   62SAPC  H15Y 4974   3.340   0.234   8.424  1.1039  1.4516 -2.3681
   62SAPC  C316 4975   3.292   0.443   8.392 -0.0230 -1.1573 -0.3060
   62SAPC  H16X 4976   3.399   0.471   8.389 -1.0573  4.0065  0.9493
   62SAPC  H16Y 4977   3.251   0.519   8.462  0.6282 -1.6301  0.6161
   62SAPC  C317 4978   3.228   0.434   8.262  0.0248 -0.6531  0.1995
   62SAPC  H17X 4979   3.118   0.437   8.275  0.1414  2.7841  1.1623
   62SAPC  H17Y 4980   3.242   0.332   8.219 -0.0844 -0.1193 -1.1452
   62SAPC  C318 4981   3.265   0.543   8.163 -0.3836  0.2888 -0.1688
   62SAPC  H18X 4982   3.372   0.573   8.161  0.1959 -1.3918 -3.6106
   62SAPC  H18Y 4983   3.203   0.630   8.192 -0.9419 -0.6965  1.7890
   62SAPC  H18Z 4984   3.242   0.509   8.059  3.3680 -0.6852 -0.8103
   63SAPC     N 4985   1.605   4.978   6.175  0.2907  0.6330  0.2537
   63SAPC   C12 4986   1.698   5.093   6.225 -0.5761 -0.5220 -0.0304
   63SAPC  H12A 4987   1.734   5.157   6.145 -1.3317  0.0161  0.0525
   63SAPC  H12B 4988   1.785   5.053   6.275  1.3344  2.2185 -0.9144
   63SAPC   C13 4989   1.676   4.876   6.092 -0.6849 -0.3322  0.2611
   63SAPC  H13A 4990   1.709   4.930   6.004  0.6796  0.6987  1.3430
   63SAPC  H13B 4991   1.758   4.829   6.143 -0.6450 -2.6318 -1.7518
   63SAPC  H13C 4992   1.614   4.791   6.071 -0.6967 -0.0240 -1.0702
   63SAPC   C14 4993   1.549   4.904   6.295 -0.0530  0.2189  0.4196
   63SAPC  H14A 4994   1.627   4.875   6.364 -2.5614  0.1392  3.4180
   63SAPC  H14B 4995   1.489   4.970   6.355  1.2618  1.4362  0.4582
   63SAPC  H14C 4996   1.492   4.818   6.263  1.1930 -0.6283  0.3695
   63SAPC   C15 4997   1.491   5.033   6.095 -0.0451  0.4059  0.1605
   63SAPC  H15A 4998   1.446   5.097   6.169  0.7776  0.6598  0.4496
   63SAPC  H15B 4999   1.519   5.105   6.019 -1.3399  0.7361 -0.0332
   63SAPC  H15C 5000   1.419   4.961   6.058  1.2062 -1.2670  0.8623
   63SAPC   C11 5001   1.652   5.198   6.328 -0.5487  0.0984  0.5314
   63SAPC  H11A 5002   1.736   5.269   6.343 -0.7139  0.5695 -0.7213
   63SAPC  H11B 5003   1.648   5.144   6.425  0.3513  0.8537  1.0086
   63SAPC     P 5004   1.508   5.395   6.231  0.8935  0.3072 -0.4615
   63SAPC   O13 5005   1.591   5.415   6.109 -0.0416 -0.3689  0.4015
   63SAPC   O14 5006   1.361   5.417   6.223  0.0923  0.1639  0.0566
   63SAPC   O12 5007   1.524   5.251   6.294 -0.4599 -0.2100  0.1536
   63SAPC   O11 5008   1.564   5.487   6.341  0.7443  0.6023 -0.1869
   63SAPC    C1 5009   1.521   5.464   6.475 -0.2775 -0.4612  0.0047
   63SAPC    HA 5010   1.450   5.378   6.477 -0.1273 -0.7477 -2.6338
   63SAPC    HB 5011   1.609   5.429   6.534  0.5142 -1.4628 -1.6630
   63SAPC    C2 5012   1.492   5.590   6.558  0.5192  0.1969  0.7419
   63SAPC    HS 5013   1.478   5.551   6.661 -0.8982 -3.2610 -0.6368
   63SAPC   O21 5014   1.381   5.663   6.502  0.0350 -0.2251 -0.0220
   63SAPC   C21 5015   1.262   5.589   6.503 -0.0146  0.6198  1.1801
   63SAPC   O22 5016   1.252   5.483   6.559 -0.2453  0.6796 -0.3073
   63SAPC   C22 5017   1.146   5.678   6.434  0.4712 -0.6000 -0.5945
   63SAPC   H2R 5018   1.164   5.786   6.457 -0.5925  0.2812 -3.5022
   63SAPC   H2S 5019   1.157   5.674   6.324  0.7069  0.1199 -0.6091
   63SAPC    C3 5020   1.610   5.691   6.561 -0.4275  0.3714 -0.3327
   63SAPC    HX 5021   1.612   5.737   6.460  1.3023 -1.0675 -1.0105
   63SAPC    HY 5022   1.702   5.630   6.575 -2.3211 -2.8045 -0.7747
   63SAPC   O31 5023   1.592   5.791   6.660 -0.0691 -0.3822 -0.1197
   63SAPC   C31 5024   1.677   5.889   6.654 -0.1541  0.0145  0.9917
   63SAPC   O32 5025   1.776   5.901   6.583  0.0396 -0.0217  0.2525
   63SAPC   C32 5026   1.647   5.992   6.755  0.6773 -1.0905 -0.1527
   63SAPC   H2X 5027   1.644   5.935   6.850 -1.1491  0.4387  0.7659
   63SAPC   H2Y 5028   1.539   6.013   6.744  0.7636 -0.0502  0.8419
   63SAPC   C23 5029   0.999   5.642   6.464  0.2248 -0.5056 -0.1531
   63SAPC   H3R 5030   0.970   5.545   6.419  2.0736 -0.2599 -2.0093
   63SAPC   H3S 5031   0.933   5.718   6.416 -1.0422 -2.6611 -1.9929
   63SAPC   C24 5032   0.967   5.655   6.617 -0.2798  0.5662 -0.4256
   63SAPC   H4R 5033   0.996   5.565   6.675  0.3793  0.3113 -1.1497
   63SAPC   H4S 5034   0.857   5.639   6.618 -0.2395  0.2768 -0.6702
   63SAPC   C25 5035   1.002   5.779   6.696 -0.7766 -0.4453  0.5453
   63SAPC   H5R 5036   0.968   5.874   6.652  0.3014 -1.5817 -3.1800
   63SAPC   C26 5037   1.089   5.784   6.804 -0.0055 -0.4747 -0.1390
   63SAPC   H6R 5038   1.105   5.887   6.841 -0.6167  0.3004 -1.9133
   63SAPC   C27 5039   1.163   5.678   6.882  0.0857  0.5436 -0.4771
   63SAPC   H7R 5040   1.162   5.576   6.837  1.4804  0.1374  0.3346
   63SAPC   H7S 5041   1.109   5.659   6.977 -0.6254  0.3355 -0.9169
   63SAPC   C28 5042   1.315   5.716   6.906 -0.0384 -0.0311 -0.7889
   63SAPC   H8R 5043   1.386   5.687   6.827  0.7686  0.3314 -0.2069
   63SAPC   C29 5044   1.350   5.785   7.018  0.0424  0.1981  0.2053
   63SAPC   H9R 5045   1.454   5.805   7.048 -0.6642  0.6452  2.4929
   63SAPC  C210 5046   1.254   5.830   7.131 -0.4713  0.2844  0.0945
   63SAPC  H10R 5047   1.153   5.823   7.085  0.4980 -1.8684 -1.9128
   63SAPC  H10S 5048   1.271   5.937   7.154  0.0342  0.3229 -0.4403
   63SAPC  C211 5049   1.265   5.754   7.257 -0.5381  0.2482 -0.1299
   63SAPC  H11R 5050   1.217   5.655   7.251 -2.1214  0.9612  0.4734
   63SAPC  C212 5051   1.336   5.794   7.363  0.2730  0.3537  0.5623
   63SAPC  H12R 5052   1.345   5.724   7.448  1.3276 -0.9586 -0.5945
   63SAPC  C213 5053   1.405   5.931   7.379 -0.5985  0.4013 -0.6471
   63SAPC  H13R 5054   1.333   6.015   7.385  0.5645  1.3495  3.8322
   63SAPC  H13S 5055   1.465   5.945   7.286  0.5285 -1.6756 -0.2965
   63SAPC  C214 5056   1.503   5.934   7.498  0.3593 -0.3663 -0.2916
   63SAPC  H14R 5057   1.597   5.880   7.480  1.7853  0.9430  2.6132
   63SAPC  C215 5058   1.482   5.990   7.613  0.7689  0.2074  0.0886
   63SAPC  H15R 5059   1.562   5.979   7.688  0.6386  2.9344  0.7272
   63SAPC  C216 5060   1.358   6.065   7.658 -0.2061  0.4389  0.6942
   63SAPC  H16R 5061   1.267   6.031   7.604  0.0053 -0.4752  0.8876
   63SAPC  H16S 5062   1.373   6.172   7.635  1.2726  0.0291 -0.3648
   63SAPC  C217 5063   1.355   6.067   7.808  0.9985 -0.5115  0.1483
   63SAPC  H17R 5064   1.286   6.152   7.826  1.1696  0.1966 -2.1908
   63SAPC  H17S 5065   1.452   6.091   7.857  1.2076  1.4050 -1.0967
   63SAPC  C218 5066   1.311   5.933   7.863  0.7466 -0.3807 -0.2895
   63SAPC  H18R 5067   1.352   5.855   7.796  1.1531  0.7611 -1.4122
   63SAPC  H18S 5068   1.201   5.931   7.851  0.6882  0.4799  0.0052
   63SAPC  C219 5069   1.332   5.927   8.018  0.3156 -0.5794 -0.3397
   63SAPC  H19R 5070   1.261   5.853   8.060  1.3173 -1.3792 -0.0130
   63SAPC  H19S 5071   1.311   6.017   8.079  1.0612 -1.5794  1.4726
   63SAPC  C220 5072   1.471   5.887   8.061 -0.2615  0.3278 -0.3525
   63SAPC  H20R 5073   1.512   5.809   7.995 -1.3403 -0.4721 -0.1032
   63SAPC  H20S 5074   1.485   5.833   8.157  1.9304  0.9194 -0.2922
   63SAPC  H20T 5075   1.534   5.978   8.071 -0.2464  0.0920  2.8211
   63SAPC   C33 5076   1.744   6.116   6.755  0.0192  0.3838  0.2321
   63SAPC   H3X 5077   1.773   6.146   6.652  1.7835 -0.3715  0.4769
   63SAPC   H3Y 5078   1.841   6.086   6.798 -0.2395 -0.4651  0.2465
   63SAPC   C34 5079   1.677   6.227   6.826 -0.6672 -0.0316  0.7663
   63SAPC   H4X 5080   1.587   6.264   6.771 -1.9400 -3.2521  0.4409
   63SAPC   H4Y 5081   1.751   6.309   6.814 -1.2222  0.2270 -1.3948
   63SAPC   C35 5082   1.644   6.196   6.973 -0.4390  0.1908 -0.6340
   63SAPC   H5X 5083   1.580   6.105   6.975  0.1115 -0.2271 -1.2293
   63SAPC   H5Y 5084   1.582   6.276   7.018  0.1477 -0.6009  1.7139
   63SAPC   C36 5085   1.762   6.190   7.071 -0.1058  0.3041 -0.6413
   63SAPC   H6X 5086   1.833   6.276   7.078 -0.1758  0.2391  1.3956
   63SAPC   H6Y 5087   1.821   6.104   7.033  0.5054  1.1546 -1.6777
   63SAPC   C37 5088   1.718   6.169   7.211  0.6006  0.1603  0.2037
   63SAPC   H7X 5089   1.690   6.062   7.227  0.3853  0.3437  1.1430
   63SAPC   H7Y 5090   1.622   6.222   7.234 -0.3905 -0.5429 -2.0739
   63SAPC   C38 5091   1.823   6.205   7.319 -0.4791 -0.4358  0.3882
   63SAPC   H8X 5092   1.815   6.313   7.342 -2.2008  0.3972 -3.4126
   63SAPC   H8Y 5093   1.924   6.172   7.285 -0.5318 -0.4358  0.2330
   63SAPC   C39 5094   1.795   6.121   7.453  0.0208 -0.6022  0.2518
   63SAPC   H9X 5095   1.820   6.015   7.435  0.2651 -0.6324  0.7545
   63SAPC   H9Y 5096   1.686   6.130   7.474 -0.6738 -1.3272 -2.6720
   63SAPC  C310 5097   1.890   6.162   7.562  0.1615 -0.2452  0.0751
   63SAPC  H10X 5098   1.885   6.272   7.555  1.4861 -0.2103 -0.6599
   63SAPC  H10Y 5099   1.997   6.139   7.541  0.8642  3.0135 -0.4973
   63SAPC  C311 5100   1.837   6.109   7.698  0.1452  0.6906  0.1336
   63SAPC  H11X 5101   1.818   6.000   7.705 -1.9162  1.0018  0.1030
   63SAPC  H11Y 5102   1.736   6.148   7.720 -0.2435  0.0295 -0.4136
   63SAPC  C312 5103   1.932   6.149   7.810 -0.5373 -0.6859  0.5890
   63SAPC  H12X 5104   1.938   6.259   7.825 -0.6471 -0.5611 -0.2174
   63SAPC  H12Y 5105   2.033   6.118   7.775 -0.1109  0.1850  0.9937
   63SAPC  C313 5106   1.891   6.093   7.945  0.1569  0.3886  0.1273
   63SAPC  H13X 5107   1.876   5.984   7.928  0.9015  0.2350  0.4097
   63SAPC  H13Y 5108   1.795   6.136   7.979  0.7106  1.4457  0.4090
   63SAPC  C314 5109   1.999   6.114   8.054 -0.1506  0.4010  0.2887
   63SAPC  H14X 5110   2.000   6.223   8.075 -0.5473  0.4185  0.2355
   63SAPC  H14Y 5111   2.094   6.083   8.007  0.4633  0.0509  1.7222
   63SAPC  C315 5112   1.976   6.035   8.182  0.4025  0.3356  0.6625
   63SAPC  H15X 5113   1.976   5.932   8.141 -0.4677  0.5592  0.0464
   63SAPC  H15Y 5114   1.874   6.068   8.211 -0.6146 -2.1690  0.1716
   63SAPC  C316 5115   2.079   6.073   8.281  0.1735  0.2042 -0.3354
   63SAPC  H16X 5116   2.065   6.024   8.380  2.2475  0.8311  0.3218
   63SAPC  H16Y 5117   2.080   6.183   8.292 -1.4334  0.4136 -1.9067
   63SAPC  C317 5118   2.224   6.036   8.238  0.0312  0.1180  0.2557
   63SAPC  H17X 5119   2.257   6.123   8.176  1.3580 -0.6771 -0.1788
   63SAPC  H17Y 5120   2.223   5.943   8.178  3.4112  0.5650 -0.6920
   63SAPC  C318 5121   2.326   6.020   8.347  0.0039  0.0909 -0.1358
   63SAPC  H18X 5122   2.310   6.091   8.431 -0.9765  0.1018 -0.3297
   63SAPC  H18Y 5123   2.434   6.027   8.323  0.4603 -0.0443  1.7006
   63SAPC  H18Z 5124   2.300   5.920   8.388  1.1772  0.3638  1.3927
   64SAPC     N 5125   2.662   5.256   6.178  0.6803 -0.3316 -0.0858
   64SAPC   C12 5126   2.713   5.334   6.293 -0.9857 -0.3446 -0.4234
   64SAPC  H12A 5127   2.813   5.298   6.312 -0.4290 -1.2128 -4.1833
   64SAPC  H12B 5128   2.669   5.313   6.390  0.6525 -1.0670  0.1902
   64SAPC   C13 5129   2.524   5.303   6.143  0.7209  0.4019  0.1104
   64SAPC  H13A 5130   2.535   5.405   6.111  1.2639  0.0635 -0.8072
   64SAPC  H13B 5131   2.476   5.247   6.064  0.2495  1.8866 -0.6956
   64SAPC  H13C 5132   2.460   5.297   6.230  1.4543 -1.9440  0.5676
   64SAPC   C14 5133   2.744   5.253   6.063 -0.4854  0.3022 -0.4919
   64SAPC  H14A 5134   2.703   5.197   5.980 -1.9756  1.4464 -0.5739
   64SAPC  H14B 5135   2.763   5.352   6.023 -1.3090  0.1669 -1.2452
   64SAPC  H14C 5136   2.836   5.202   6.085 -0.9088 -0.9916 -1.5863
   64SAPC   C15 5137   2.651   5.108   6.224  1.0082  0.4182  0.1868
   64SAPC  H15A 5138   2.588   5.093   6.311 -0.3311 -1.6529 -1.0584
   64SAPC  H15B 5139   2.602   5.044   6.152  1.5555  0.1480  0.0540
   64SAPC  H15C 5140   2.749   5.066   6.240  0.3650 -0.3140  2.7939
   64SAPC   C11 5141   2.722   5.485   6.275 -0.7638 -0.2782 -0.8246
   64SAPC  H11A 5142   2.736   5.528   6.376 -0.9697 -0.0588 -0.8889
   64SAPC  H11B 5143   2.622   5.522   6.242  0.0455  1.4902 -1.4073
   64SAPC     P 5144   2.977   5.541   6.226  0.6682 -0.5980  0.3443
   64SAPC   O13 5145   3.056   5.430   6.177 -0.3926  0.1317  0.1629
   64SAPC   O14 5146   3.019   5.674   6.172 -0.3945  0.0331 -0.1644
   64SAPC   O12 5147   2.826   5.513   6.184 -0.4727  0.6961  0.1412
   64SAPC   O11 5148   2.974   5.543   6.385 -0.4445 -0.0730  0.2954
   64SAPC    C1 5149   3.077   5.610   6.449 -0.0964 -0.1903 -0.1863
   64SAPC    HA 5150   3.168   5.549   6.427  0.4170  0.3399  0.4296
   64SAPC    HB 5151   3.101   5.714   6.417  2.1020  0.2057  2.3507
   64SAPC    C2 5152   3.054   5.621   6.604 -0.3043 -0.2810 -0.3122
   64SAPC    HS 5153   3.152   5.648   6.649  0.4617 -0.6176 -1.7254
   64SAPC   O21 5154   3.012   5.505   6.667  0.0094 -0.2416  0.0365
   64SAPC   C21 5155   3.103   5.419   6.699  0.4440 -0.3936 -0.9785
   64SAPC   O22 5156   3.221   5.429   6.675 -0.1803 -0.3442 -0.2913
   64SAPC   C22 5157   3.024   5.307   6.774  0.2955 -0.3519  0.1919
   64SAPC   H2R 5158   2.916   5.331   6.775  0.1443 -0.9889  0.0056
   64SAPC   H2S 5159   3.028   5.213   6.715 -0.4719  0.1998 -0.7516
   64SAPC    C3 5160   2.960   5.741   6.630 -0.4144  0.4611  0.6421
   64SAPC    HX 5161   2.863   5.688   6.630 -0.0283 -0.2852  1.5454
   64SAPC    HY 5162   2.959   5.818   6.550 -0.1052 -0.8498 -0.6493
   64SAPC   O31 5163   2.972   5.794   6.759  0.0225 -0.5152  0.3024
   64SAPC   C31 5164   3.057   5.902   6.763 -0.5247 -0.0285 -0.0982
   64SAPC   O32 5165   3.125   5.945   6.671 -0.2035 -0.0434 -0.9212
   64SAPC   C32 5166   3.055   5.961   6.896  0.5726 -0.0487 -0.8366
   64SAPC   H2X 5167   3.086   5.885   6.970 -1.9935  0.5806  1.0196
   64SAPC   H2Y 5168   2.948   5.982   6.916  0.8159  0.5016 -0.0660
   64SAPC   C23 5169   3.074   5.274   6.918 -1.1845 -0.5657 -0.2729
   64SAPC   H3R 5170   3.052   5.361   6.984  0.7069  1.4542 -2.1123
   64SAPC   H3S 5171   3.183   5.253   6.919 -1.5930 -2.9184 -0.4838
   64SAPC   C24 5172   3.008   5.147   6.972 -0.2047  0.2974 -0.1405
   64SAPC   H4R 5173   3.060   5.115   7.066 -1.4314 -1.8589 -0.1296
   64SAPC   H4S 5174   3.034   5.062   6.906 -0.5719 -0.4472  0.6434
   64SAPC   C25 5175   2.856   5.161   6.986 -0.2288  0.8244  0.0174
   64SAPC   H5R 5176   2.806   5.150   6.889 -1.3982 -0.3954  0.7347
   64SAPC   C26 5177   2.782   5.202   7.093  0.2678 -0.1108  0.4922
   64SAPC   H6R 5178   2.674   5.204   7.074  0.0647 -0.6677  1.5253
   64SAPC   C27 5179   2.841   5.254   7.220 -0.1014  0.4995 -0.5106
   64SAPC   H7R 5180   2.764   5.307   7.280 -0.1423 -0.4546  0.2948
   64SAPC   H7S 5181   2.918   5.332   7.202  2.7314 -1.2950  2.6799
   64SAPC   C28 5182   2.908   5.154   7.315 -0.2633  0.0485  0.2591
   64SAPC   H8R 5183   2.851   5.064   7.340  1.0546 -0.2435  2.4679
   64SAPC   C29 5184   3.032   5.157   7.373  0.0534 -0.3148  0.2737
   64SAPC   H9R 5185   3.051   5.080   7.448 -2.4308 -2.0606 -0.7609
   64SAPC  C210 5186   3.131   5.268   7.364  0.8040 -0.7019  1.7088
   64SAPC  H10R 5187   3.130   5.295   7.256 -2.7682  1.5038  2.1064
   64SAPC  H10S 5188   3.229   5.222   7.385  0.9594 -1.2066  0.0331
   64SAPC  C211 5189   3.096   5.383   7.448 -0.0699 -0.0944  0.0664
   64SAPC  H11R 5190   3.062   5.473   7.394  1.6765  0.1167 -0.7447
   64SAPC  C212 5191   3.108   5.390   7.582  0.2107 -0.2182  1.0545
   64SAPC  H12R 5192   3.108   5.491   7.626  2.3725  0.9572 -1.4347
   64SAPC  C213 5193   3.148   5.280   7.676 -0.2418 -0.3186 -0.1150
   64SAPC  H13R 5194   3.230   5.310   7.744 -1.3828 -1.4449  1.8559
   64SAPC  H13S 5195   3.182   5.188   7.623 -0.9693 -0.2410 -0.7279
   64SAPC  C214 5196   3.025   5.236   7.756 -0.1469 -0.5035  0.2530
   64SAPC  H14R 5197   2.933   5.207   7.702 -1.0214 -0.3789  1.6188
   64SAPC  C215 5198   3.014   5.232   7.891  0.7584 -0.1948  1.0193
   64SAPC  H15R 5199   2.918   5.196   7.930  0.1110 -0.8494 -1.0963
   64SAPC  C216 5200   3.103   5.279   7.997 -0.2999 -0.0788  0.1457
   64SAPC  H16R 5201   3.186   5.331   7.943 -1.1193  1.1087 -0.0116
   64SAPC  H16S 5202   3.148   5.187   8.040 -0.2466  0.6035  1.6011
   64SAPC  C217 5203   3.054   5.376   8.101  0.2619 -0.6522  0.1373
   64SAPC  H17R 5204   2.967   5.336   8.157  0.4424  0.4043  1.2074
   64SAPC  H17S 5205   3.026   5.476   8.061 -1.2080 -0.8554  0.5981
   64SAPC  C218 5206   3.161   5.387   8.213  0.8211 -0.0784  0.2110
   64SAPC  H18R 5207   3.259   5.420   8.172 -0.4131  1.0938 -2.0401
   64SAPC  H18S 5208   3.174   5.291   8.267  1.2225  0.0134  0.2794
   64SAPC  C219 5209   3.123   5.496   8.313 -0.0989  0.1128 -0.1792
   64SAPC  H19R 5210   3.115   5.592   8.256 -0.1558  0.9246  1.1586
   64SAPC  H19S 5211   3.199   5.519   8.390  0.9544  2.2538 -1.7523
   64SAPC  C220 5212   2.992   5.467   8.393 -0.0622 -0.5727  0.1161
   64SAPC  H20R 5213   3.019   5.378   8.454  3.5542  0.3778  0.1564
   64SAPC  H20S 5214   2.906   5.456   8.324 -0.0703  0.0094  0.0314
   64SAPC  H20T 5215   2.969   5.553   8.459  1.4226  0.0042 -0.0804
   64SAPC   C33 5216   3.134   6.100   6.894  0.0238 -0.3670  0.1469
   64SAPC   H3X 5217   3.105   6.157   6.803 -0.6914 -0.5483  0.2560
   64SAPC   H3Y 5218   3.243   6.079   6.886  0.5884  2.5287 -0.7580
   64SAPC   C34 5219   3.115   6.197   7.011  0.2797  0.1852  0.2697
   64SAPC   H4X 5220   3.013   6.240   7.009 -0.3615 -1.2667 -1.1582
   64SAPC   H4Y 5221   3.174   6.289   6.993  0.5578 -0.3421 -1.8753
   64SAPC   C35 5222   3.149   6.134   7.140  0.3331 -0.5079 -0.4251
   64SAPC   H5X 5223   3.249   6.089   7.121  0.0388 -1.0363 -0.7751
   64SAPC   H5Y 5224   3.067   6.064   7.167  1.4251 -2.1016 -1.0637
   64SAPC   C36 5225   3.151   6.244   7.251  0.4288  0.1737 -0.1766
   64SAPC   H6X 5226   3.052   6.294   7.261  0.3158  0.1981 -1.2975
   64SAPC   H6Y 5227   3.223   6.320   7.215  0.6034  0.1418  0.0974
   64SAPC   C37 5228   3.177   6.186   7.387  0.4037 -0.2121 -0.3591
   64SAPC   H7X 5229   3.287   6.170   7.395  0.0792 -2.4454  0.4694
   64SAPC   H7Y 5230   3.131   6.086   7.405 -1.4374  0.7372  0.5073
   64SAPC   C38 5231   3.142   6.280   7.511 -0.2767 -0.2942 -0.1670
   64SAPC   H8X 5232   3.038   6.254   7.540 -0.4146  2.7567  2.7308
   64SAPC   H8Y 5233   3.140   6.387   7.482  3.4033 -0.3027 -0.9492
   64SAPC   C39 5234   3.225   6.247   7.634 -0.5836 -0.6779 -0.4883
   64SAPC   H9X 5235   3.334   6.265   7.620 -1.0732  0.6039 -3.3300
   64SAPC   H9Y 5236   3.187   6.148   7.668  2.6446 -2.1061 -0.6904
   64SAPC  C310 5237   3.189   6.340   7.758  0.1751 -0.7752  0.2454
   64SAPC  H10X 5238   3.080   6.356   7.775  0.4443  2.3484 -0.3847
   64SAPC  H10Y 5239   3.238   6.437   7.736  0.6951 -1.0057  0.3838
   64SAPC  C311 5240   3.260   6.304   7.897 -0.2437 -0.1694  0.3435
   64SAPC  H11X 5241   3.249   6.395   7.960 -1.1499 -0.3345  0.4310
   64SAPC  H11Y 5242   3.368   6.292   7.876 -0.4289 -1.3313 -0.0307
   64SAPC  C312 5243   3.200   6.181   7.972  0.2420 -0.1550 -0.0956
   64SAPC  H12X 5244   3.201   6.088   7.910 -1.1470 -0.8957  0.9267
   64SAPC  H12Y 5245   3.095   6.196   8.003 -0.1395 -2.3312 -0.1684
   64SAPC  C313 5246   3.262   6.165   8.112 -0.2608  0.9158  0.3181
   64SAPC  H13X 5247   3.266   6.264   8.162 -0.8408  1.9742 -1.6468
   64SAPC  H13Y 5248   3.364   6.126   8.088 -1.2036 -1.2986 -0.3811
   64SAPC  C314 5249   3.187   6.058   8.193 -0.4958 -0.3805  0.2045
   64SAPC  H14X 5250   3.159   5.977   8.123 -2.6939  0.7610 -0.3298
   64SAPC  H14Y 5251   3.089   6.106   8.213 -1.1664 -1.5453 -0.2034
   64SAPC  C315 5252   3.266   6.001   8.303 -0.5885  0.4548 -0.2213
   64SAPC  H15X 5253   3.323   6.082   8.355 -0.6072 -0.6020  1.5313
   64SAPC  H15Y 5254   3.343   5.934   8.258  0.7054  0.1289  2.2429
   64SAPC  C316 5255   3.186   5.914   8.403  0.4690  0.7945 -0.1599
   64SAPC  H16X 5256   3.126   5.838   8.347 -0.9505 -0.9808  3.4476
   64SAPC  H16Y 5257   3.116   5.972   8.467  1.1683  1.4024  0.0741
   64SAPC  C317 5258   3.268   5.822   8.496  0.1729 -0.9094 -0.0817
   64SAPC  H17X 5259   3.336   5.763   8.431  0.0989 -2.2500  1.0225
   64SAPC  H17Y 5260   3.211   5.740   8.544 -1.5773  0.7154  0.7621
   64SAPC  C318 5261   3.361   5.894   8.597 -0.0090  0.3802 -0.1827
   64SAPC  H18X 5262   3.414   5.813   8.652  2.3599  1.0959 -1.2833
   64SAPC  H18Y 5263   3.301   5.962   8.662 -1.2174 -0.7431 -0.0809
   64SAPC  H18Z 5264   3.440   5.953   8.546 -0.4422  2.7058  1.6365
   65SAPC     N 5265   4.629   1.241   5.861  0.4060  0.5497 -0.1147
   65SAPC   C12 5266   4.576   1.189   5.998 -0.8506 -0.1381 -0.1746
   65SAPC  H12A 5267   4.507   1.256   6.046  0.8878 -0.7623  3.6457
   65SAPC  H12B 5268   4.658   1.190   6.069 -1.0622  1.8860  0.1021
   65SAPC   C13 5269   4.666   1.386   5.870 -0.1851 -0.7265  0.6381
   65SAPC  H13A 5270   4.728   1.417   5.953  0.2326  1.6580 -0.4879
   65SAPC  H13B 5271   4.720   1.414   5.781  4.3668 -0.9922  3.0147
   65SAPC  H13C 5272   4.568   1.432   5.875 -0.9857 -1.3602 -4.0841
   65SAPC   C14 5273   4.741   1.155   5.817 -0.2570  0.4143 -0.0399
   65SAPC  H14A 5274   4.816   1.143   5.894  1.1098  0.8041 -1.2654
   65SAPC  H14B 5275   4.699   1.056   5.805  1.3219 -0.1845 -0.9650
   65SAPC  H14C 5276   4.791   1.181   5.724 -0.3527 -0.6745 -0.4166
   65SAPC   C15 5277   4.518   1.232   5.755 -0.0071 -0.2748  0.2011
   65SAPC  H15A 5278   4.497   1.127   5.743  2.9223 -0.8872 -0.3772
   65SAPC  H15B 5279   4.434   1.288   5.794  0.6858  0.0978  1.2127
   65SAPC  H15C 5280   4.536   1.267   5.655 -0.6675 -1.7491 -0.4688
   65SAPC   C11 5281   4.508   1.051   5.997  0.0052  0.1209  0.2780
   65SAPC  H11A 5282   4.421   1.071   5.931  0.8194 -0.1353 -0.9049
   65SAPC  H11B 5283   4.493   1.019   6.102  0.7172 -0.0678  0.3323
   65SAPC     P 5284   4.516   0.815   5.906  0.1223  0.1908 -0.3232
   65SAPC   O13 5285   4.401   0.839   5.814 -0.2052  0.2485  0.5819
   65SAPC   O14 5286   4.610   0.710   5.873  0.5223 -0.9758  0.3682
   65SAPC   O12 5287   4.590   0.954   5.923 -0.2171 -0.3519 -0.5156
   65SAPC   O11 5288   4.448   0.792   6.049 -0.6934  0.2221 -0.2024
   65SAPC    C1 5289   4.529   0.745   6.161 -0.1227  1.1267  0.2147
   65SAPC    HA 5290   4.635   0.722   6.136 -0.9082 -0.2041 -2.3139
   65SAPC    HB 5291   4.530   0.818   6.244  1.4255 -0.0251  1.2502
   65SAPC    C2 5292   4.459   0.608   6.199 -0.2966 -0.4575  0.0722
   65SAPC    HS 5293   4.451   0.553   6.103 -0.1167  0.0025 -0.2110
   65SAPC   O21 5294   4.329   0.648   6.250 -0.5068  0.5521  0.1456
   65SAPC   C21 5295   4.230   0.560   6.239  0.3345 -0.4491 -0.5320
   65SAPC   O22 5296   4.242   0.445   6.209 -0.0807  0.2095 -0.3339
   65SAPC   C22 5297   4.099   0.622   6.277 -0.3364 -0.0702 -0.1746
   65SAPC   H2R 5298   4.090   0.714   6.215  0.9033  0.6664  0.6890
   65SAPC   H2S 5299   4.018   0.553   6.247  0.2066 -0.4440 -0.8148
   65SAPC    C3 5300   4.539   0.536   6.317 -0.0884 -0.6247 -0.0901
   65SAPC    HX 5301   4.639   0.522   6.269  0.2251  0.6814  0.1318
   65SAPC    HY 5302   4.482   0.443   6.335 -0.8265 -0.2449 -0.4280
   65SAPC   O31 5303   4.559   0.633   6.423 -0.4902  0.7155  0.8507
   65SAPC   C31 5304   4.572   0.571   6.536  0.6711  0.2375 -0.0395
   65SAPC   O32 5305   4.562   0.450   6.551 -0.1052  0.4806 -0.2573
   65SAPC   C32 5306   4.608   0.670   6.648 -0.3119 -0.3953  0.1280
   65SAPC   H2X 5307   4.589   0.774   6.615  0.7663 -0.1159  0.3228
   65SAPC   H2Y 5308   4.715   0.658   6.677 -0.2161  1.7325  0.7976
   65SAPC   C23 5309   4.095   0.664   6.422  0.4904  0.7060  0.2590
   65SAPC   H3R 5310   4.005   0.728   6.431 -0.6415 -0.6923 -0.5354
   65SAPC   H3S 5311   4.182   0.723   6.457 -0.0794  0.5591  2.0256
   65SAPC   C24 5312   4.072   0.547   6.516  0.6640 -0.2190 -0.1613
   65SAPC   H4R 5313   4.009   0.470   6.467  0.2041 -0.2701  0.4980
   65SAPC   H4S 5314   4.008   0.581   6.600  2.4263 -0.9061  1.5337
   65SAPC   C25 5315   4.192   0.471   6.561 -0.6776  0.2160  0.4895
   65SAPC   H5R 5316   4.257   0.426   6.485  1.8724  1.0633  2.0327
   65SAPC   C26 5317   4.229   0.437   6.688  0.4983  0.1082  0.1082
   65SAPC   H6R 5318   4.318   0.375   6.701  1.6385  1.8537  1.0055
   65SAPC   C27 5319   4.155   0.482   6.820  0.1060  0.6920  0.6449
   65SAPC   H7R 5320   4.077   0.553   6.785 -0.6638 -1.8465 -3.5293
   65SAPC   H7S 5321   4.228   0.528   6.891  1.0592  1.1275 -0.5853
   65SAPC   C28 5322   4.080   0.352   6.864 -0.5811 -0.2308  0.8300
   65SAPC   H8R 5323   4.042   0.280   6.790 -0.3913  0.7738 -0.2686
   65SAPC   C29 5324   4.087   0.308   6.994  0.6301  0.0457  1.1032
   65SAPC   H9R 5325   4.037   0.212   7.013  0.7797 -0.6202 -1.4626
   65SAPC  C210 5326   4.151   0.376   7.108  0.2348 -0.9530  0.7839
   65SAPC  H10R 5327   4.091   0.362   7.200 -0.6800 -4.0708 -0.1662
   65SAPC  H10S 5328   4.146   0.484   7.083 -2.1644 -1.1775 -0.0036
   65SAPC  C211 5329   4.289   0.337   7.142  0.4222  0.0454 -0.7540
   65SAPC  H11R 5330   4.347   0.292   7.060  0.8014 -0.3889 -0.2643
   65SAPC  C212 5331   4.344   0.327   7.268 -0.1726  0.3145 -0.6204
   65SAPC  H12R 5332   4.439   0.273   7.284 -1.6075 -2.0410  0.3703
   65SAPC  C213 5333   4.277   0.365   7.399 -0.6152 -0.2142 -0.0447
   65SAPC  H13R 5334   4.225   0.462   7.388 -2.6620 -1.2561  0.0551
   65SAPC  H13S 5335   4.346   0.387   7.484 -0.1155 -1.5823 -0.0717
   65SAPC  C214 5336   4.176   0.262   7.447 -0.9636 -0.5910 -0.8883
   65SAPC  H14R 5337   4.086   0.229   7.393  0.2782 -1.1581 -2.6980
   65SAPC  C215 5338   4.179   0.201   7.566  0.3267  1.0555  1.0197
   65SAPC  H15R 5339   4.089   0.148   7.598  0.8811 -0.4169  0.2326
   65SAPC  C216 5340   4.298   0.219   7.660  0.5478  0.4177  0.2329
   65SAPC  H16R 5341   4.395   0.262   7.626  2.0278 -0.0502  3.4452
   65SAPC  H16S 5342   4.325   0.124   7.711 -2.7447  0.3350  2.0820
   65SAPC  C217 5343   4.253   0.305   7.784 -0.1760  0.1461 -0.4169
   65SAPC  H17R 5344   4.222   0.407   7.755  1.1579  1.2366  1.7216
   65SAPC  H17S 5345   4.353   0.319   7.830 -0.0485 -0.0198 -0.6416
   65SAPC  C218 5346   4.154   0.248   7.880 -0.1376 -0.1205  0.2349
   65SAPC  H18R 5347   4.203   0.165   7.935 -0.9400 -1.1216 -0.5130
   65SAPC  H18S 5348   4.059   0.209   7.837  0.7028  0.5846 -2.4520
   65SAPC  C219 5349   4.124   0.351   7.995  0.3126  0.5728  0.1051
   65SAPC  H19R 5350   4.077   0.292   8.076  2.2954  0.9615  1.6272
   65SAPC  H19S 5351   4.053   0.424   7.952 -0.1361 -0.3485 -0.7644
   65SAPC  C220 5352   4.242   0.422   8.055  0.3229  0.3155 -0.3242
   65SAPC  H20R 5353   4.317   0.346   8.087 -1.7783 -2.4249 -1.5295
   65SAPC  H20S 5354   4.211   0.490   8.137  1.5638  3.7384 -2.5153
   65SAPC  H20T 5355   4.295   0.477   7.975 -1.6751 -0.3823 -2.2151
   65SAPC   C33 5356   4.521   0.635   6.773 -0.3074  0.5945  0.3002
   65SAPC   H3X 5357   4.542   0.537   6.821 -0.8510  2.1297  4.0482
   65SAPC   H3Y 5358   4.412   0.638   6.752 -0.5847 -0.2024  1.5201
   65SAPC   C34 5359   4.541   0.730   6.895  0.4345  0.0426 -0.0571
   65SAPC   H4X 5360   4.533   0.837   6.867  0.8575 -0.1171 -0.8333
   65SAPC   H4Y 5361   4.647   0.720   6.925  0.8462  0.9871 -1.1473
   65SAPC   C35 5362   4.466   0.689   7.018  0.0453  0.6824  0.1907
   65SAPC   H5X 5363   4.458   0.578   7.020  0.8223  0.5409 -2.1146
   65SAPC   H5Y 5364   4.364   0.727   6.993  0.0880 -0.3499 -1.7488
   65SAPC   C36 5365   4.536   0.736   7.145  0.5567 -0.7931 -0.0517
   65SAPC   H6X 5366   4.558   0.845   7.134 -3.6365  0.3889  1.5785
   65SAPC   H6Y 5367   4.636   0.688   7.147  1.7809  1.5965  0.4115
   65SAPC   C37 5368   4.459   0.702   7.273  0.2996 -0.1360  0.8371
   65SAPC   H7X 5369   4.441   0.593   7.288  2.9640 -0.7067  0.3395
   65SAPC   H7Y 5370   4.367   0.765   7.277  0.5354  0.1774  1.4587
   65SAPC   C38 5371   4.540   0.750   7.395  0.4573  0.5171  0.2441
   65SAPC   H8X 5372   4.561   0.858   7.379  1.4978  0.4094  0.8372
   65SAPC   H8Y 5373   4.636   0.695   7.401 -0.4835 -1.5788 -2.0302
   65SAPC   C39 5374   4.452   0.749   7.520 -0.0223  0.1644 -0.8619
   65SAPC   H9X 5375   4.407   0.647   7.514 -2.0784  0.9522  0.2912
   65SAPC   H9Y 5376   4.368   0.821   7.517  0.9858  1.4206  0.2424
   65SAPC  C310 5377   4.525   0.775   7.654 -0.5664  0.2526  0.0833
   65SAPC  H10X 5378   4.583   0.870   7.659 -1.2727  0.6237  2.5621
   65SAPC  H10Y 5379   4.604   0.697   7.663 -0.9247 -0.3228 -1.3340
   65SAPC  C311 5380   4.428   0.772   7.774  0.2486 -0.8144  0.2308
   65SAPC  H11X 5381   4.406   0.664   7.788  1.6164 -1.2055 -0.4690
   65SAPC  H11Y 5382   4.339   0.832   7.745 -0.8027 -1.5306  1.7999
   65SAPC  C312 5383   4.477   0.825   7.912  0.7164 -0.0667  0.9427
   65SAPC  H12X 5384   4.520   0.928   7.911 -0.2121  0.3428  1.4099
   65SAPC  H12Y 5385   4.551   0.764   7.968  0.0565  0.2379  2.1889
   65SAPC  C313 5386   4.347   0.842   7.998  0.2621  0.5326 -0.1090
   65SAPC  H13X 5387   4.317   0.739   8.026  2.1721  0.2061  0.8340
   65SAPC  H13Y 5388   4.264   0.889   7.940  1.5765  2.2860 -0.6645
   65SAPC  C314 5389   4.369   0.897   8.137 -0.3478 -0.0787  0.2972
   65SAPC  H14X 5390   4.471   0.874   8.175  0.2501 -0.9500 -1.7367
   65SAPC  H14Y 5391   4.290   0.858   8.205 -0.8408  0.1511 -0.1404
   65SAPC  C315 5392   4.357   1.051   8.158  0.2563  0.7442 -0.2692
   65SAPC  H15X 5393   4.424   1.095   8.081 -0.7492 -0.4546 -1.8918
   65SAPC  H15Y 5394   4.394   1.067   8.261  0.7308  1.2501 -0.5080
   65SAPC  C316 5395   4.218   1.109   8.125 -0.2149  0.5624  0.7814
   65SAPC  H16X 5396   4.182   1.069   8.028 -0.2645 -0.3036  1.1513
   65SAPC  H16Y 5397   4.247   1.215   8.107  2.9989 -0.1096  1.3276
   65SAPC  C317 5398   4.099   1.074   8.214  0.2706 -0.9142  0.3434
   65SAPC  H17X 5399   4.134   1.070   8.320  0.3434 -0.6653  0.3275
   65SAPC  H17Y 5400   4.049   0.975   8.200 -1.0184 -0.0411 -1.6075
   65SAPC  C318 5401   3.987   1.189   8.215  0.6976 -0.5037  0.4580
   65SAPC  H18X 5402   3.929   1.193   8.120 -1.8842 -1.0021  1.9225
   65SAPC  H18Y 5403   4.038   1.288   8.221  1.3345 -0.7434 -0.6501
   65SAPC  H18Z 5404   3.914   1.175   8.297 -0.7689 -0.7718 -0.8462
   66SAPC     N 5405   2.159   0.342   5.863 -0.4083 -0.4141  0.5338
   66SAPC   C12 5406   2.107   0.239   5.973 -0.4711 -0.4454  0.0212
   66SAPC  H12A 5407   2.060   0.163   5.912 -0.0882 -1.7431  1.2817
   66SAPC  H12B 5408   2.042   0.303   6.031  1.8102  0.0332  2.2470
   66SAPC   C13 5409   2.239   0.272   5.759 -0.2738  0.4804  0.5104
   66SAPC  H13A 5410   2.312   0.209   5.808  1.5468  0.7155 -1.6942
   66SAPC  H13B 5411   2.175   0.208   5.700  1.7228  1.3807 -2.9376
   66SAPC  H13C 5412   2.302   0.336   5.699 -0.0511  0.5352  0.8014
   66SAPC   C14 5413   2.039   0.400   5.792 -0.4260 -0.5497 -0.3897
   66SAPC  H14A 5414   2.069   0.479   5.725 -1.6913  1.3891  1.1749
   66SAPC  H14B 5415   1.980   0.330   5.735 -2.5297 -0.1075  1.1095
   66SAPC  H14C 5416   1.975   0.453   5.862 -0.2812 -1.1702  0.2193
   66SAPC   C15 5417   2.223   0.458   5.920 -0.2307 -0.3761 -0.2321
   66SAPC  H15A 5418   2.239   0.542   5.854 -1.7803  2.0561  2.2775
   66SAPC  H15B 5419   2.155   0.502   5.990 -0.4470  1.0862 -1.3166
   66SAPC  H15C 5420   2.315   0.443   5.974 -1.8816  0.8074  3.1394
   66SAPC   C11 5421   2.213   0.172   6.068  0.3981  0.2374  0.5114
   66SAPC  H11A 5422   2.173   0.110   6.152  1.1778 -0.8170  0.1393
   66SAPC  H11B 5423   2.269   0.249   6.125 -0.6177  0.3142  1.4434
   66SAPC     P 5424   2.285  -0.055   5.956  0.0261 -0.1468 -0.4304
   66SAPC   O13 5425   2.153  -0.076   5.901 -0.2661  0.5413  0.6670
   66SAPC   O14 5426   2.395  -0.086   5.862 -0.1967  0.6815  0.2245
   66SAPC   O12 5427   2.300   0.101   5.984 -0.1613  0.4845 -0.6081
   66SAPC   O11 5428   2.313  -0.129   6.101  0.1095 -0.0148  0.4844
   66SAPC    C1 5429   2.446  -0.123   6.155  0.0962  0.2440  0.4200
   66SAPC    HA 5430   2.492  -0.222   6.134 -0.1454  0.4910 -1.3746
   66SAPC    HB 5431   2.509  -0.038   6.123 -0.6789  0.9140  0.6539
   66SAPC    C2 5432   2.438  -0.114   6.310  0.1336 -0.5300  0.1525
   66SAPC    HS 5433   2.544  -0.133   6.338  0.5762  0.8121 -0.5417
   66SAPC   O21 5434   2.337  -0.205   6.364 -0.5604  0.3836  0.0516
   66SAPC   C21 5435   2.378  -0.327   6.373 -0.1222  0.7287 -0.2383
   66SAPC   O22 5436   2.479  -0.378   6.333 -0.3717  0.5411  0.3984
   66SAPC   C22 5437   2.269  -0.406   6.439 -0.1133 -1.4073 -0.2774
   66SAPC   H2R 5438   2.173  -0.352   6.421 -0.1132 -1.0680  0.6829
   66SAPC   H2S 5439   2.257  -0.505   6.390 -3.8652 -2.7905  2.8696
   66SAPC    C3 5440   2.395   0.026   6.362  0.1234  0.2011 -0.1771
   66SAPC    HX 5441   2.295   0.049   6.320 -0.4231 -0.9062  0.4860
   66SAPC    HY 5442   2.463   0.108   6.331 -2.0549  2.9748  1.8101
   66SAPC   O31 5443   2.385   0.031   6.506  0.4433 -1.1773 -0.0802
   66SAPC   C31 5444   2.342   0.149   6.546 -0.1380 -1.0134 -0.5240
   66SAPC   O32 5445   2.309   0.241   6.475  0.1559 -0.0208  0.4438
   66SAPC   C32 5446   2.344   0.144   6.703  0.2920 -0.1152  0.9963
   66SAPC   H2X 5447   2.408   0.059   6.734 -0.2145 -0.3178  1.5014
   66SAPC   H2Y 5448   2.240   0.139   6.743  0.0831  2.6168  0.9786
   66SAPC   C23 5449   2.302  -0.419   6.592  0.6539 -1.2273  0.2503
   66SAPC   H3R 5450   2.410  -0.442   6.608  1.0670  0.1254 -0.4563
   66SAPC   H3S 5451   2.231  -0.488   6.641 -1.9137  1.5329  0.6756
   66SAPC   C24 5452   2.277  -0.279   6.667 -0.3269  0.9336  0.1260
   66SAPC   H4R 5453   2.329  -0.200   6.609 -0.6590  1.0882  0.0371
   66SAPC   H4S 5454   2.329  -0.300   6.763  0.1833  1.5449 -0.0102
   66SAPC   C25 5455   2.134  -0.250   6.691 -0.2727  0.2620 -0.3828
   66SAPC   H5R 5456   2.068  -0.274   6.606  1.5130  0.1320 -1.8189
   66SAPC   C26 5457   2.071  -0.211   6.802  0.6075 -0.4228 -0.2184
   66SAPC   H6R 5458   1.964  -0.185   6.793  1.3397  2.3162 -3.0424
   66SAPC   C27 5459   2.140  -0.183   6.935  0.0491  0.1075 -0.5954
   66SAPC   H7R 5460   2.099  -0.085   6.966 -1.1925 -0.2887 -0.9311
   66SAPC   H7S 5461   2.250  -0.175   6.921  0.1993  0.6192  0.7428
   66SAPC   C28 5462   2.104  -0.280   7.040  0.3180 -0.1217 -0.7454
   66SAPC   H8R 5463   2.099  -0.383   7.002  3.8502 -0.7463  0.1001
   66SAPC   C29 5464   2.083  -0.270   7.170 -0.2812 -1.0894 -0.0095
   66SAPC   H9R 5465   2.032  -0.354   7.221 -0.1696 -0.8764  0.4553
   66SAPC  C210 5466   2.091  -0.139   7.250  0.2442 -0.0538 -0.2977
   66SAPC  H10R 5467   2.006  -0.134   7.321  0.2592 -2.9720  0.0517
   66SAPC  H10S 5468   2.080  -0.047   7.189 -0.5083 -0.7395 -1.2364
   66SAPC  C211 5469   2.222  -0.142   7.333 -0.2520  0.9955  0.4645
   66SAPC  H11R 5470   2.316  -0.131   7.277 -0.5947  1.2958 -0.0554
   66SAPC  C212 5471   2.227  -0.160   7.470  0.5838  0.1521  0.1802
   66SAPC  H12R 5472   2.319  -0.136   7.526 -0.7552  1.3671  2.0001
   66SAPC  C213 5473   2.112  -0.188   7.574 -0.0538 -0.5438 -0.0272
   66SAPC  H13R 5474   2.132  -0.276   7.640 -0.3280  0.1013  0.9411
   66SAPC  H13S 5475   2.023  -0.223   7.518 -0.1527 -1.6268  0.7738
   66SAPC  C214 5476   2.081  -0.073   7.663 -0.4379 -0.0340  0.0581
   66SAPC  H14R 5477   2.038   0.007   7.601 -1.4356 -2.2001 -2.2462
   66SAPC  C215 5478   2.097  -0.054   7.795  0.0838  0.1403 -0.4197
   66SAPC  H15R 5479   2.092   0.049   7.833 -1.2341  0.6313 -1.7994
   66SAPC  C216 5480   2.142  -0.159   7.894 -0.0338  0.4331 -0.1167
   66SAPC  H16R 5481   2.187  -0.102   7.978 -1.0515 -1.1901  1.6243
   66SAPC  H16S 5482   2.221  -0.218   7.844  0.8147 -0.9590  2.6357
   66SAPC  C217 5483   2.027  -0.246   7.947  0.1348  0.2742 -0.1555
   66SAPC  H17R 5484   2.070  -0.347   7.964 -0.6079 -0.0365 -0.0677
   66SAPC  H17S 5485   1.943  -0.246   7.874 -2.0736  0.9340  2.2278
   66SAPC  C218 5486   1.966  -0.185   8.072 -0.7651 -0.4596 -0.7269
   66SAPC  H18R 5487   1.888  -0.251   8.116 -0.2421  0.4610  1.7225
   66SAPC  H18S 5488   1.925  -0.085   8.046 -0.1367  0.0949  0.3628
   66SAPC  C219 5489   2.060  -0.151   8.193 -0.0790 -0.0906 -0.5952
   66SAPC  H19R 5490   2.003  -0.131   8.286  1.5461 -0.9224  0.6340
   66SAPC  H19S 5491   2.131  -0.065   8.186 -2.0904  1.6706 -0.3870
   66SAPC  C220 5492   2.129  -0.277   8.242 -0.4044  0.7771  0.5098
   66SAPC  H20R 5493   2.203  -0.317   8.169  0.1491 -0.5118  1.7325
   66SAPC  H20S 5494   2.056  -0.360   8.248  2.5494 -1.9656  0.8005
   66SAPC  H20T 5495   2.184  -0.273   8.339 -0.8905 -0.5679  0.8612
   66SAPC   C33 5496   2.406   0.273   6.765 -0.4228  0.6205  0.0895
   66SAPC   H3X 5497   2.362   0.361   6.713  0.2717 -0.7980 -3.1676
   66SAPC   H3Y 5498   2.516   0.276   6.751 -0.5578  0.2676 -1.2024
   66SAPC   C34 5499   2.377   0.283   6.917 -0.5592 -0.3692 -0.0676
   66SAPC   H4X 5500   2.416   0.183   6.946  0.6468 -0.8068 -2.8811
   66SAPC   H4Y 5501   2.267   0.293   6.932 -0.5610  0.4778 -0.5904
   66SAPC   C35 5502   2.466   0.386   6.990  0.1740 -0.0420  0.8200
   66SAPC   H5X 5503   2.445   0.486   6.946 -0.4555 -0.0215  1.1614
   66SAPC   H5Y 5504   2.574   0.368   6.975  0.2216 -1.0324  2.1371
   66SAPC   C36 5505   2.437   0.392   7.142  0.1233  0.4534  0.4715
   66SAPC   H6X 5506   2.334   0.429   7.161  0.7680  1.2469  2.8542
   66SAPC   H6Y 5507   2.509   0.461   7.191  2.1841 -1.0599 -0.2652
   66SAPC   C37 5508   2.451   0.252   7.207  0.7183 -0.6410 -0.0504
   66SAPC   H7X 5509   2.546   0.205   7.176  0.3961 -0.6229 -1.1041
   66SAPC   H7Y 5510   2.365   0.189   7.174  1.4139 -1.2669 -0.6967
   66SAPC   C38 5511   2.442   0.261   7.361 -0.2154  0.1423  0.1279
   66SAPC   H8X 5512   2.349   0.312   7.393 -0.6479 -0.2894 -0.4327
   66SAPC   H8Y 5513   2.522   0.330   7.397  0.7037  0.9859 -3.2003
   66SAPC   C39 5514   2.452   0.131   7.438 -0.2397  0.5021  0.2549
   66SAPC   H9X 5515   2.525   0.056   7.401 -1.1884  0.0070 -0.6398
   66SAPC   H9Y 5516   2.351   0.087   7.434 -0.1302  0.3049 -0.3586
   66SAPC  C310 5517   2.482   0.162   7.587  0.0305  0.3544  0.0138
   66SAPC  H10X 5518   2.414   0.232   7.639 -0.1560  0.2555 -0.0946
   66SAPC  H10Y 5519   2.582   0.211   7.584 -0.2811  1.2917  2.5849
   66SAPC  C311 5520   2.499   0.039   7.678  0.3191  0.4956 -0.3408
   66SAPC  H11X 5521   2.563  -0.032   7.623 -0.2620  0.4037 -0.9083
   66SAPC  H11Y 5522   2.406  -0.015   7.708  2.2045 -3.6435 -1.2525
   66SAPC  C312 5523   2.568   0.077   7.811  0.5870  0.9888  0.3292
   66SAPC  H12X 5524   2.495   0.118   7.885  0.3062  2.0534 -0.5010
   66SAPC  H12Y 5525   2.639   0.152   7.771  1.1627 -0.6016 -1.8067
   66SAPC  C313 5526   2.649  -0.039   7.853 -0.0244  0.7162  0.2524
   66SAPC  H13X 5527   2.691  -0.099   7.770 -0.6806 -1.1041  1.1805
   66SAPC  H13Y 5528   2.571  -0.102   7.900 -2.4152  0.8066 -3.2322
   66SAPC  C314 5529   2.754  -0.008   7.963  0.0466 -0.0260  0.2501
   66SAPC  H14X 5530   2.823   0.069   7.922 -0.1790 -1.4113 -3.0512
   66SAPC  H14Y 5531   2.807  -0.094   8.008 -0.7978 -0.1527  1.0296
   66SAPC  C315 5532   2.682   0.070   8.078  0.1457 -0.1267 -0.5076
   66SAPC  H15X 5533   2.602   0.003   8.114 -0.5676  2.1598  2.5845
   66SAPC  H15Y 5534   2.636   0.161   8.033 -0.4181 -2.0684 -4.2280
   66SAPC  C316 5535   2.772   0.107   8.195  0.3550 -0.3479 -0.6494
   66SAPC  H16X 5536   2.716   0.144   8.284  0.2551  1.5132 -1.4506
   66SAPC  H16Y 5537   2.834   0.197   8.178  2.6161 -1.2276  2.1730
   66SAPC  C317 5538   2.862   0.003   8.249 -0.0185  0.1422  0.4919
   66SAPC  H17X 5539   2.930   0.051   8.322 -0.0962  3.0236 -1.1748
   66SAPC  H17Y 5540   2.927  -0.028   8.165  1.3153 -1.0316  1.9057
   66SAPC  C318 5541   2.793  -0.123   8.319  0.3772  0.3175 -0.0889
   66SAPC  H18X 5542   2.732  -0.182   8.247  1.5748 -1.5907  0.4041
   66SAPC  H18Y 5543   2.735  -0.089   8.407  0.0218  0.2797 -0.3048
   66SAPC  H18Z 5544   2.870  -0.196   8.350  0.2306 -0.1223 -0.7528
   67SAPC     N 5545   4.842   2.327   6.232 -0.1054 -0.2596  0.2457
   67SAPC   C12 5546   4.974   2.345   6.304  0.2916 -0.0128 -0.5148
   67SAPC  H12A 5547   5.038   2.404   6.241  2.4795 -1.1008  0.5905
   67SAPC  H12B 5548   5.015   2.245   6.312 -0.4438 -0.3043 -0.2349
   67SAPC   C13 5549   4.797   2.455   6.161  0.0156 -0.1326  0.2464
   67SAPC  H13A 5550   4.850   2.479   6.070 -0.9997  0.8093 -0.1284
   67SAPC  H13B 5551   4.690   2.450   6.146  0.1745 -1.5004 -0.7133
   67SAPC  H13C 5552   4.836   2.539   6.215  2.2940 -0.7576 -0.3256
   67SAPC   C14 5553   4.870   2.232   6.116 -0.1074 -0.3826  0.0101
   67SAPC  H14A 5554   4.923   2.148   6.159  0.1728 -0.2667 -0.1047
   67SAPC  H14B 5555   4.780   2.192   6.071  0.0785 -1.9043  0.9122
   67SAPC  H14C 5556   4.923   2.277   6.033 -1.2851  0.5060 -0.2817
   67SAPC   C15 5557   4.735   2.273   6.319  0.4429 -0.6453 -0.0723
   67SAPC  H15A 5558   4.769   2.178   6.359  1.0823 -0.1179  0.6815
   67SAPC  H15B 5559   4.723   2.339   6.404  0.9123 -2.6310  1.6273
   67SAPC  H15C 5560   4.640   2.250   6.272 -1.1704  1.1366  2.0994
   67SAPC   C11 5561   4.980   2.417   6.444 -0.0133  0.4166 -0.3331
   67SAPC  H11A 5562   5.089   2.419   6.465 -0.3747 -0.0405  1.7922
   67SAPC  H11B 5563   4.931   2.347   6.515  0.4613  1.4316  1.0241
   67SAPC     P 5564   5.003   2.682   6.397 -0.0653 -0.0922  0.3477
   67SAPC   O13 5565   5.133   2.645   6.334  0.4821  0.0394 -0.1914
   67SAPC   O14 5566   4.912   2.768   6.312 -0.5392 -0.0115  0.9107
   67SAPC   O12 5567   4.921   2.549   6.436 -0.5229  0.1885  0.0400
   67SAPC   O11 5568   5.042   2.748   6.537 -0.0268 -0.1310 -0.3384
   67SAPC    C1 5569   5.037   2.674   6.653  0.2203  0.4376  0.3918
   67SAPC    HA 5570   4.935   2.660   6.696  0.7888 -2.3576  1.0361
   67SAPC    HB 5571   5.080   2.573   6.632 -0.8081  0.7166 -3.9645
   67SAPC    C2 5572   5.133   2.738   6.764  0.4132 -0.1518 -0.5377
   67SAPC    HS 5573   5.235   2.747   6.721  1.5865 -1.0272  1.8811
   67SAPC   O21 5574   5.135   2.646   6.878 -0.1998  0.0473 -0.0792
   67SAPC   C21 5575   5.235   2.661   6.960 -0.4590  0.4301  0.3768
   67SAPC   O22 5576   5.334   2.726   6.926  0.4860  0.0722  0.1180
   67SAPC   C22 5577   5.213   2.590   7.096 -0.1724  1.0914  0.3061
   67SAPC   H2R 5578   5.103   2.609   7.099 -0.3261  0.1687  0.7463
   67SAPC   H2S 5579   5.236   2.481   7.098 -0.7683  0.9694  1.9925
   67SAPC    C3 5580   5.098   2.886   6.803  0.3685  0.0113 -0.6982
   67SAPC    HX 5581   5.095   2.943   6.708 -0.7516  1.5320  0.1891
   67SAPC    HY 5582   5.174   2.929   6.872  1.1306  0.6190 -1.8850
   67SAPC   O31 5583   4.959   2.892   6.862  0.0840  0.0174 -0.4587
   67SAPC   C31 5584   4.955   2.885   6.995 -0.4587 -0.3178  0.0865
   67SAPC   O32 5585   5.053   2.907   7.064  0.2724  0.2660 -0.1066
   67SAPC   C32 5586   4.823   2.830   7.040 -0.3007  0.3517  0.6306
   67SAPC   H2X 5587   4.794   2.750   6.969  4.2680 -1.3888  0.4570
   67SAPC   H2Y 5588   4.738   2.903   7.039  1.4689  2.5057 -0.4636
   67SAPC   C23 5589   5.286   2.670   7.211  0.2223 -0.1714 -0.1834
   67SAPC   H3R 5590   5.279   2.778   7.190  2.2731  0.1335  0.5395
   67SAPC   H3S 5591   5.392   2.639   7.212  0.4125  0.4842  0.4365
   67SAPC   C24 5592   5.230   2.637   7.354  0.4644 -0.5793  0.7476
   67SAPC   H4R 5593   5.127   2.679   7.358  0.2816 -0.3746 -2.9711
   67SAPC   H4S 5594   5.285   2.685   7.438  1.2882 -1.5661  0.7938
   67SAPC   C25 5595   5.229   2.491   7.373  0.5556  0.0843  0.2664
   67SAPC   H5R 5596   5.190   2.420   7.298 -4.4117  0.5389  2.0693
   67SAPC   C26 5597   5.269   2.428   7.486  0.0177  0.2841 -0.2150
   67SAPC   H6R 5598   5.265   2.319   7.496 -2.2310  0.4783  2.1368
   67SAPC   C27 5599   5.314   2.487   7.619 -0.4665  0.0380 -0.1472
   67SAPC   H7R 5600   5.226   2.478   7.686  0.9938 -0.4570  1.8184
   67SAPC   H7S 5601   5.340   2.594   7.607  0.7661  0.0404  2.0041
   67SAPC   C28 5602   5.439   2.411   7.668  0.3089  0.3747  0.1966
   67SAPC   H8R 5603   5.513   2.391   7.589 -2.8476 -0.4113 -2.7975
   67SAPC   C29 5604   5.455   2.354   7.785  0.1332  0.5157  0.2326
   67SAPC   H9R 5605   5.550   2.301   7.804 -0.9982 -1.3628  0.9879
   67SAPC  C210 5606   5.345   2.355   7.888 -0.1023  0.3264 -0.1755
   67SAPC  H10R 5607   5.314   2.460   7.909  3.5318  1.2077  1.7163
   67SAPC  H10S 5608   5.402   2.339   7.982 -2.3013 -3.0654  0.7535
   67SAPC  C211 5609   5.233   2.264   7.865  0.8961  0.1618  0.1285
   67SAPC  H11R 5610   5.203   2.226   7.767 -1.9518 -0.6881  1.2199
   67SAPC  C212 5611   5.169   2.206   7.968  0.4107  0.2334 -0.4394
   67SAPC  H12R 5612   5.096   2.127   7.944  0.6511 -1.1378  2.7971
   67SAPC  C213 5613   5.193   2.221   8.116 -0.0191  0.1201 -0.2010
   67SAPC  H13R 5614   5.277   2.289   8.141  1.3106 -2.3327  2.5618
   67SAPC  H13S 5615   5.213   2.117   8.147 -2.4576 -0.3509  0.0183
   67SAPC  C214 5616   5.067   2.277   8.187 -0.4381 -0.1655  0.3162
   67SAPC  H14R 5617   4.983   2.300   8.120  1.6170 -1.2581 -2.8770
   67SAPC  C215 5618   5.044   2.277   8.317  0.3496  0.3107  0.2006
   67SAPC  H15R 5619   4.955   2.332   8.350 -0.5686  0.1769 -1.9521
   67SAPC  C216 5620   5.136   2.227   8.426  0.0052  0.0460  0.0406
   67SAPC  H16R 5621   5.222   2.169   8.387 -0.1226  0.0540 -0.2525
   67SAPC  H16S 5622   5.089   2.149   8.489 -1.7075  0.0916 -1.1125
   67SAPC  C217 5623   5.182   2.336   8.524  0.0918 -0.0639  0.0392
   67SAPC  H17R 5624   5.097   2.378   8.582 -0.4061 -0.9516 -0.0207
   67SAPC  H17S 5625   5.218   2.421   8.462 -0.2869 -0.4474 -0.7184
   67SAPC  C218 5626   5.295   2.288   8.618 -0.2419 -0.2087  0.3377
   67SAPC  H18R 5627   5.379   2.362   8.620 -0.3415 -0.0867 -0.0260
   67SAPC  H18S 5628   5.329   2.190   8.578  2.0715  1.0489 -1.0251
   67SAPC  C219 5629   5.248   2.264   8.761  0.4962 -0.3694 -0.2580
   67SAPC  H19R 5630   5.184   2.174   8.763  0.4767 -0.3731 -1.0093
   67SAPC  H19S 5631   5.187   2.350   8.796 -0.0524 -0.4247 -1.0673
   67SAPC  C220 5632   5.363   2.246   8.863 -0.3207 -0.2137  0.7192
   67SAPC  H20R 5633   5.435   2.174   8.818 -1.1996 -0.7848  0.2029
   67SAPC  H20S 5634   5.335   2.212   8.965  0.6352 -2.3461  0.3292
   67SAPC  H20T 5635   5.431   2.333   8.856  1.3087 -1.3958  1.2225
   67SAPC   C33 5636   4.838   2.763   7.181  0.2946 -1.1043 -0.0068
   67SAPC   H3X 5637   4.829   2.825   7.273  0.7876 -1.5952  0.3867
   67SAPC   H3Y 5638   4.942   2.725   7.193  1.2279  1.4958  0.7871
   67SAPC   C34 5639   4.742   2.640   7.187  0.0904  0.9289  0.0728
   67SAPC   H4X 5640   4.779   2.575   7.105 -0.3771  0.5216  0.1804
   67SAPC   H4Y 5641   4.637   2.677   7.177 -1.5555 -2.6578  1.9231
   67SAPC   C35 5642   4.759   2.582   7.325  0.6937 -0.9737  0.1564
   67SAPC   H5X 5643   4.660   2.536   7.348  0.2956 -0.9013 -1.3252
   67SAPC   H5Y 5644   4.771   2.666   7.396  0.9909 -0.1125 -0.8876
   67SAPC   C36 5645   4.874   2.472   7.328  0.1290  0.2940  0.2840
   67SAPC   H6X 5646   4.970   2.511   7.288 -0.2096 -0.1185 -0.9600
   67SAPC   H6Y 5647   4.838   2.387   7.266  3.0693 -0.3111 -0.7479
   67SAPC   C37 5648   4.900   2.422   7.471 -0.1325  0.4057  0.1000
   67SAPC   H7X 5649   4.937   2.508   7.530  0.0721  1.0050 -0.8640
   67SAPC   H7Y 5650   4.988   2.355   7.458  1.9509  3.2107 -1.6258
   67SAPC   C38 5651   4.777   2.355   7.529 -0.0774  0.1026  0.5801
   67SAPC   H8X 5652   4.757   2.267   7.465 -1.4298  1.0061 -0.2824
   67SAPC   H8Y 5653   4.684   2.415   7.529 -0.2171 -0.1124  0.2015
   67SAPC   C39 5654   4.801   2.304   7.675  0.4474 -0.5515  0.2883
   67SAPC   H9X 5655   4.888   2.235   7.679 -0.1029 -1.2067  1.6026
   67SAPC   H9Y 5656   4.710   2.254   7.716  0.0377  0.3079  0.4632
   67SAPC  C310 5657   4.844   2.409   7.782  0.0982  0.8054 -0.4648
   67SAPC  H10X 5658   4.914   2.485   7.742  1.2607  0.6856  1.2368
   67SAPC  H10Y 5659   4.899   2.373   7.872 -1.1073  1.3317  0.5147
   67SAPC  C311 5660   4.725   2.488   7.846  0.8016 -0.1028  0.3326
   67SAPC  H11X 5661   4.637   2.424   7.867 -1.4606  1.9424 -2.0864
   67SAPC  H11Y 5662   4.692   2.573   7.781 -3.4504 -0.9218  1.1018
   67SAPC  C312 5663   4.766   2.558   7.979  0.1861  0.0589  0.5295
   67SAPC  H12X 5664   4.794   2.483   8.056  1.1436 -1.6038 -1.3328
   67SAPC  H12Y 5665   4.679   2.610   8.025 -0.0832 -0.4089  0.5580
   67SAPC  C313 5666   4.878   2.652   7.962 -0.1373  0.5240 -0.6336
   67SAPC  H13X 5667   4.827   2.751   7.956 -0.1119  0.7868  2.3043
   67SAPC  H13Y 5668   4.937   2.652   7.867  1.6700 -0.6879  0.4234
   67SAPC  C314 5669   4.982   2.659   8.074  0.1152 -0.3462  0.0764
   67SAPC  H14X 5670   5.041   2.749   8.044  1.0308 -1.1779 -0.6947
   67SAPC  H14Y 5671   5.053   2.574   8.074  1.5432  0.6789 -3.0137
   67SAPC  C315 5672   4.930   2.667   8.219  0.1172  0.0085 -0.7072
   67SAPC  H15X 5673   4.873   2.578   8.254  0.7468  0.2431  1.0133
   67SAPC  H15Y 5674   4.866   2.758   8.221 -0.9031 -0.7007  0.1053
   67SAPC  C316 5675   5.048   2.701   8.315  0.1511  0.7231  0.3589
   67SAPC  H16X 5676   5.079   2.805   8.292 -1.2547  1.2040  0.5467
   67SAPC  H16Y 5677   5.126   2.626   8.288 -0.2505  0.3551  0.2143
   67SAPC  C317 5678   5.030   2.713   8.468  0.2803  0.5773  0.4832
   67SAPC  H17X 5679   5.127   2.759   8.496  0.3646  1.1864 -0.7497
   67SAPC  H17Y 5680   5.026   2.611   8.512  0.9228 -0.3777 -1.5727
   67SAPC  C318 5681   4.908   2.785   8.495  0.6233 -0.5667 -0.3886
   67SAPC  H18X 5682   4.927   2.878   8.438  0.2285 -1.2719 -1.7385
   67SAPC  H18Y 5683   4.874   2.800   8.600 -0.1553 -0.0859 -0.6995
   67SAPC  H18Z 5684   4.818   2.739   8.447  1.6736 -0.1112 -2.9610
   68SAPC     N 5685   3.729   0.699   5.642  0.4030 -0.3672  0.0979
   68SAPC   C12 5686   3.699   0.811   5.737  0.5495  0.5152 -0.6400
   68SAPC  H12A 5687   3.626   0.877   5.692 -3.2792 -2.4959  0.5747
   68SAPC  H12B 5688   3.789   0.869   5.749  0.2303  0.8670  0.0999
   68SAPC   C13 5689   3.769   0.749   5.503 -0.2483 -0.3442 -0.2431
   68SAPC  H13A 5690   3.686   0.802   5.458  0.8620  1.8878  0.2396
   68SAPC  H13B 5691   3.840   0.830   5.511  1.3779 -1.7623  0.1252
   68SAPC  H13C 5692   3.799   0.673   5.432 -2.5699 -1.6936  0.0918
   68SAPC   C14 5693   3.843   0.626   5.692  0.3753  0.2708 -0.2466
   68SAPC  H14A 5694   3.929   0.691   5.707 -0.7528  1.5454  1.0042
   68SAPC  H14B 5695   3.813   0.585   5.788 -0.2667  2.4130  0.5329
   68SAPC  H14C 5696   3.861   0.541   5.627 -1.9531  0.1362 -0.7983
   68SAPC   C15 5697   3.613   0.602   5.627 -0.0276  0.3469 -0.8326
   68SAPC  H15A 5698   3.645   0.527   5.556  3.1142 -0.9181  1.6731
   68SAPC  H15B 5699   3.589   0.549   5.718 -1.9572  0.4182 -1.2539
   68SAPC  H15C 5700   3.523   0.649   5.590 -1.2584 -2.0006 -1.0025
   68SAPC   C11 5701   3.633   0.765   5.870 -0.0021  0.4805 -0.3673
   68SAPC  H11A 5702   3.540   0.708   5.852 -1.7519  2.4551  1.7277
   68SAPC  H11B 5703   3.601   0.857   5.924 -0.7490 -0.1540  0.3013
   68SAPC     P 5704   3.848   0.768   6.025  0.2528  0.2494  0.0663
   68SAPC   O13 5705   3.969   0.690   5.986 -0.2071 -0.3183 -0.4539
   68SAPC   O14 5706   3.853   0.912   5.997  0.0019 -0.6957  0.2111
   68SAPC   O12 5707   3.724   0.698   5.960 -0.3727  0.2707  0.4943
   68SAPC   O11 5708   3.824   0.749   6.185 -0.4330 -0.1710 -0.0529
   68SAPC    C1 5709   3.702   0.727   6.251 -0.5282  0.4853  0.3454
   68SAPC    HA 5710   3.618   0.776   6.197  0.1258 -1.2576 -2.4534
   68SAPC    HB 5711   3.679   0.618   6.253 -0.6118  0.4470 -1.5558
   68SAPC    C2 5712   3.718   0.794   6.387  1.5062  0.9195 -0.3847
   68SAPC    HS 5713   3.805   0.755   6.443 -0.9325 -1.5558  2.0236
   68SAPC   O21 5714   3.597   0.761   6.462 -0.0600  0.0631 -0.6683
   68SAPC   C21 5715   3.604   0.639   6.516  0.2329  0.6170  0.8595
   68SAPC   O22 5716   3.692   0.556   6.499  0.1560  0.1692  0.5675
   68SAPC   C22 5717   3.469   0.618   6.592 -0.2450  0.0014 -0.0435
   68SAPC   H2R 5718   3.413   0.714   6.601  1.8010  1.2124  0.4836
   68SAPC   H2S 5719   3.405   0.552   6.529 -0.2049 -0.9571  0.8923
   68SAPC    C3 5720   3.726   0.950   6.378 -0.0509  0.1521  0.7103
   68SAPC    HX 5721   3.629   1.004   6.381  1.6308  3.4006  3.0121
   68SAPC    HY 5722   3.779   0.963   6.282  2.0583 -5.2267  0.7791
   68SAPC   O31 5723   3.793   1.004   6.498  0.4267 -0.1752  0.4411
   68SAPC   C31 5724   3.908   1.068   6.496 -0.2501 -0.2847 -0.7498
   68SAPC   O32 5725   3.977   1.099   6.400 -0.3624  0.2038  0.4557
   68SAPC   C32 5726   3.958   1.098   6.646  0.6636 -0.6862  0.7115
   68SAPC   H2X 5727   3.951   1.207   6.667  0.1100 -0.0513 -2.2232
   68SAPC   H2Y 5728   4.061   1.057   6.646  0.4940 -1.3215 -2.2044
   68SAPC   C23 5729   3.494   0.544   6.724  0.0405 -0.4367 -0.3333
   68SAPC   H3R 5730   3.594   0.498   6.713 -1.0100 -2.5639 -1.6173
   68SAPC   H3S 5731   3.414   0.469   6.742  0.3091 -0.3532  1.4536
   68SAPC   C24 5732   3.499   0.644   6.845  0.3207 -0.3156 -0.1425
   68SAPC   H4R 5733   3.573   0.724   6.826 -0.7380  0.7306  0.0114
   68SAPC   H4S 5734   3.540   0.584   6.930 -0.9534  1.5804  1.9323
   68SAPC   C25 5735   3.365   0.709   6.874  0.0558 -0.4224  0.3655
   68SAPC   H5R 5736   3.300   0.729   6.788  0.1809  0.1115  0.3903
   68SAPC   C26 5737   3.312   0.736   6.997  0.2471  1.5373  0.3137
   68SAPC   H6R 5738   3.217   0.791   7.006  0.6476  2.2826  0.0751
   68SAPC   C27 5739   3.385   0.711   7.129  0.8863  0.1894  0.3722
   68SAPC   H7R 5740   3.346   0.787   7.201  1.1907 -0.1287  0.8792
   68SAPC   H7S 5741   3.491   0.737   7.110  1.3237 -1.0441  1.0489
   68SAPC   C28 5742   3.372   0.575   7.185 -0.5857  0.4649 -0.1493
   68SAPC   H8R 5743   3.391   0.493   7.114 -1.3457 -0.4480  0.6690
   68SAPC   C29 5744   3.346   0.537   7.309 -0.5345 -0.1198 -0.2826
   68SAPC   H9R 5745   3.323   0.431   7.325  1.7955 -0.7897 -1.0173
   68SAPC  C210 5746   3.304   0.634   7.421  0.2388  0.6421  0.2435
   68SAPC  H10R 5747   3.234   0.714   7.390  1.5131  1.8944  0.5341
   68SAPC  H10S 5748   3.398   0.670   7.468  0.0600 -0.9530  1.9453
   68SAPC  C211 5749   3.242   0.564   7.542 -0.3569 -0.3560 -0.9931
   68SAPC  H11R 5750   3.290   0.465   7.553  0.7575  0.1426 -1.1828
   68SAPC  C212 5751   3.153   0.614   7.635 -0.0650 -0.2137  0.4508
   68SAPC  H12R 5752   3.112   0.553   7.716  0.2450 -0.4827  0.4087
   68SAPC  C213 5753   3.094   0.750   7.625  0.9369 -0.2692  0.1077
   68SAPC  H13R 5754   3.004   0.757   7.690  0.0125  0.9207 -1.2463
   68SAPC  H13S 5755   3.051   0.753   7.523 -1.3735  1.1930  1.0369
   68SAPC  C214 5756   3.180   0.866   7.658  0.3510 -0.1581 -0.2662
   68SAPC  H14R 5757   3.268   0.872   7.591  2.2686 -2.5922  1.8659
   68SAPC  C215 5758   3.172   0.953   7.762  0.5406 -0.0209  0.4818
   68SAPC  H15R 5759   3.258   1.021   7.773  0.9278 -0.5111  0.5046
   68SAPC  C216 5760   3.070   0.954   7.872 -0.1547  0.5982 -0.6680
   68SAPC  H16R 5761   3.010   0.862   7.857  0.2643  0.4986 -1.8176
   68SAPC  H16S 5762   2.997   1.037   7.857 -0.8281  0.3960  1.2688
   68SAPC  C217 5763   3.122   0.960   8.014  0.5715  0.0837 -0.2826
   68SAPC  H17R 5764   3.181   1.052   8.035  0.1396  0.0754  1.0459
   68SAPC  H17S 5765   3.203   0.887   8.039  1.9917  1.7957  0.2825
   68SAPC  C218 5766   3.008   0.959   8.110  0.1649  0.1110 -0.9127
   68SAPC  H18R 5767   2.959   0.861   8.090 -0.1465  0.1449 -0.3249
   68SAPC  H18S 5768   2.920   1.015   8.072  0.0466  0.6366  0.1226
   68SAPC  C219 5769   3.060   0.963   8.251 -0.2093 -0.0521 -0.2955
   68SAPC  H19R 5770   3.112   1.059   8.272 -2.3146  1.0582  0.1183
   68SAPC  H19S 5771   3.144   0.891   8.259  0.8590  1.2935  0.9352
   68SAPC  C220 5772   2.954   0.934   8.363  0.5388  0.1288 -0.2391
   68SAPC  H20R 5773   2.900   0.838   8.351  1.5630 -0.6629  1.1471
   68SAPC  H20S 5774   2.874   1.011   8.362 -0.1482 -0.5234 -2.7008
   68SAPC  H20T 5775   3.011   0.938   8.458  2.3745 -2.1618 -1.1370
   68SAPC   C33 5776   3.889   1.026   6.765 -0.2155  0.0652 -0.5329
   68SAPC   H3X 5777   3.779   1.036   6.772 -0.0915  1.9580 -0.6417
   68SAPC   H3Y 5778   3.934   1.053   6.863 -2.7261 -1.9123  1.2832
   68SAPC   C34 5779   3.914   0.873   6.763 -0.1961  0.8142  0.5622
   68SAPC   H4X 5780   4.018   0.835   6.749 -1.1940 -1.5145 -1.1788
   68SAPC   H4Y 5781   3.852   0.828   6.683  2.2585 -1.0765 -0.4246
   68SAPC   C35 5782   3.859   0.796   6.894 -0.0345  0.2692  0.0698
   68SAPC   H5X 5783   3.869   0.685   6.888 -1.8466 -0.0323  1.6952
   68SAPC   H5Y 5784   3.753   0.821   6.918 -0.2377  0.9921 -1.4420
   68SAPC   C36 5785   3.946   0.840   7.016 -0.0521 -0.3216  0.6970
   68SAPC   H6X 5786   3.934   0.949   7.030  2.4519 -0.0339  1.0472
   68SAPC   H6Y 5787   4.052   0.822   6.989 -1.0664 -2.2347 -2.5299
   68SAPC   C37 5788   3.915   0.751   7.132  0.4231 -0.4344  0.2470
   68SAPC   H7X 5789   3.913   0.645   7.100  1.2166  0.7383 -4.3958
   68SAPC   H7Y 5790   3.813   0.764   7.175  0.6828  2.3396  0.2600
   68SAPC   C38 5791   4.025   0.765   7.235  0.4054  0.4283 -0.7271
   68SAPC   H8X 5792   4.069   0.867   7.247  1.5916 -0.1891  0.3934
   68SAPC   H8Y 5793   4.107   0.697   7.205  1.9241  1.1435  1.5912
   68SAPC   C39 5794   3.978   0.719   7.376  0.2785  0.3118 -0.3157
   68SAPC   H9X 5795   3.949   0.612   7.377  0.5643  0.2273 -0.8713
   68SAPC   H9Y 5796   3.901   0.793   7.405  1.0013  0.8946  0.1734
   68SAPC  C310 5797   4.097   0.727   7.468  0.2331 -0.1937 -0.4482
   68SAPC  H10X 5798   4.146   0.825   7.487  0.9935 -0.4989 -0.8315
   68SAPC  H10Y 5799   4.175   0.665   7.419  1.6699  1.1015  0.1442
   68SAPC  C311 5800   4.081   0.656   7.607 -0.1977  0.2540  0.4070
   68SAPC  H11X 5801   4.180   0.617   7.638  0.0236 -0.7861 -1.4372
   68SAPC  H11Y 5802   4.021   0.562   7.602  1.9488 -1.1474 -0.3986
   68SAPC  C312 5803   4.018   0.743   7.716 -0.6242 -0.1607 -0.3626
   68SAPC  H12X 5804   3.918   0.774   7.681 -0.1294 -0.2454 -1.9239
   68SAPC  H12Y 5805   4.075   0.838   7.722  1.5533 -1.4862  2.4903
   68SAPC  C313 5806   4.011   0.682   7.855  0.0341  0.1168 -0.0954
   68SAPC  H13X 5807   4.114   0.655   7.886 -1.0465 -1.8588  2.0652
   68SAPC  H13Y 5808   3.958   0.586   7.837  0.2665 -0.1082  0.4031
   68SAPC  C314 5809   3.950   0.767   7.964 -0.3278  0.5961 -0.3864
   68SAPC  H14X 5810   3.844   0.781   7.935 -1.5433 -1.8200  2.3594
   68SAPC  H14Y 5811   4.009   0.860   7.981 -1.8894  1.5068  0.1988
   68SAPC  C315 5812   3.929   0.704   8.103  0.0672  0.2983  0.1865
   68SAPC  H15X 5813   3.918   0.790   8.173 -0.4219 -0.0677  0.5677
   68SAPC  H15Y 5814   4.028   0.658   8.121 -0.9300 -0.9136  3.2625
   68SAPC  C316 5815   3.822   0.599   8.113 -0.0222 -0.0418 -0.2144
   68SAPC  H16X 5816   3.854   0.503   8.068 -0.1134  0.1471 -0.6843
   68SAPC  H16Y 5817   3.733   0.635   8.058 -1.4213 -1.1418  1.2428
   68SAPC  C317 5818   3.782   0.569   8.258  0.0606 -0.6971  0.1119
   68SAPC  H17X 5819   3.754   0.663   8.309 -2.1991 -0.2322 -1.7967
   68SAPC  H17Y 5820   3.873   0.538   8.313  0.6205  0.1666 -0.2997
   68SAPC  C318 5821   3.672   0.464   8.277  0.3250  0.8987  0.7424
   68SAPC  H18X 5822   3.664   0.431   8.383  0.0990 -0.6877  0.2671
   68SAPC  H18Y 5823   3.697   0.366   8.230 -0.7169  1.7271 -1.6951
   68SAPC  H18Z 5824   3.569   0.487   8.243  0.8640  0.5809 -1.2162
   69SLPC     N 5825   4.884   0.812  10.805  0.1804 -0.3578 -0.6556
   69SLPC   C13 5826   4.848   0.957  10.814  0.2821 -0.4818  0.3137
   69SLPC  H13A 5827   4.829   0.989  10.916 -0.2537  0.6505 -0.1241
   69SLPC  H13B 5828   4.930   1.024  10.790 -0.4173  0.4197  0.3861
   69SLPC  H13C 5829   4.755   0.985  10.768 -0.8604  2.0076  3.7492
   69SLPC   C14 5830   5.023   0.799  10.875 -0.1376 -1.2006  0.4770
   69SLPC  H14A 5831   5.068   0.701  10.872 -2.6231 -2.4860  1.6926
   69SLPC  H14B 5832   5.093   0.866  10.827 -1.1239 -0.3398  0.2014
   69SLPC  H14C 5833   5.024   0.822  10.980  0.2788  0.1046  0.2023
   69SLPC   C15 5834   4.896   0.779  10.661  0.0103  0.1731 -0.4429
   69SLPC  H15A 5835   4.910   0.673  10.652 -1.2234 -0.1495  1.1174
   69SLPC  H15B 5836   4.807   0.812  10.609  1.0171  0.2887 -2.1687
   69SLPC  H15C 5837   4.975   0.834  10.610  0.2462  0.1467 -0.1058
   69SLPC   C12 5838   4.783   0.718  10.875 -0.4185 -0.4393  0.4717
   69SLPC  H12A 5839   4.809   0.617  10.845 -1.7576 -0.9041  0.8179
   69SLPC  H12B 5840   4.682   0.733  10.839 -0.8314 -2.0217  0.8684
   69SLPC   C11 5841   4.772   0.733  11.027  0.3771  0.0090  0.2570
   69SLPC  H11A 5842   4.868   0.711  11.079 -0.1409 -1.3129  0.6914
   69SLPC  H11B 5843   4.698   0.660  11.065  0.9935  0.8489  3.3570
   69SLPC     P 5844   4.569   0.889  11.059 -0.0795 -0.1627 -0.4769
   69SLPC   O13 5845   4.499   0.805  11.163 -0.3708  0.0805 -0.1661
   69SLPC   O14 5846   4.556   1.037  11.069 -0.1851  0.2555  0.3305
   69SLPC   O12 5847   4.726   0.871  11.065 -0.2660 -0.3751  0.5468
   69SLPC   O11 5848   4.538   0.840  10.912  0.1031  0.0436 -0.4425
   69SLPC    C1 5849   4.405   0.806  10.871  0.1850 -0.0481 -0.0576
   69SLPC    HA 5850   4.373   0.722  10.937  0.4813  1.2781  1.8709
   69SLPC    HB 5851   4.327   0.885  10.874 -1.3478 -1.4873 -0.4494
   69SLPC    C2 5852   4.413   0.758  10.721 -0.1059  0.3085 -0.1398
   69SLPC    HS 5853   4.312   0.717  10.698  0.0216  0.7976 -1.6250
   69SLPC   O21 5854   4.522   0.661  10.697 -0.3169  0.1613  0.4566
   69SLPC   C21 5855   4.502   0.542  10.741  0.0190 -0.7340 -0.1632
   69SLPC   O22 5856   4.399   0.497  10.791  0.5660 -0.2765  0.0846
   69SLPC   C22 5857   4.636   0.467  10.737 -0.1257  0.0632  0.6165
   69SLPC   H2R 5858   4.705   0.531  10.678  0.2943 -2.2384 -1.5569
   69SLPC   H2S 5859   4.667   0.458  10.843  0.2273 -3.8933  0.3125
   69SLPC    C3 5860   4.444   0.875  10.621  0.5900 -0.3167 -0.1485
   69SLPC    HX 5861   4.538   0.926  10.652  0.1745 -0.4849  1.5032
   69SLPC    HY 5862   4.378   0.963  10.635  1.0342 -0.0352  0.2036
   69SLPC   O31 5863   4.425   0.841  10.480 -0.3894  0.3629 -0.2391
   69SLPC   C31 5864   4.542   0.840  10.411  1.1766 -0.4666  0.6964
   69SLPC   O32 5865   4.650   0.875  10.451  0.0332  0.3809  0.3188
   69SLPC   C32 5866   4.516   0.807  10.265  0.1397 -0.5011 -0.2235
   69SLPC   H2X 5867   4.453   0.716  10.254 -1.5869  0.6562 -0.1866
   69SLPC   H2Y 5868   4.613   0.784  10.215 -0.4918  1.2608 -2.4097
   69SLPC   C23 5869   4.632   0.330  10.669  0.6870 -0.9129  0.4040
   69SLPC   H3R 5870   4.565   0.279  10.742 -0.0865 -0.2115  0.2092
   69SLPC   H3S 5871   4.735   0.290  10.668  1.7428  1.6726  0.4945
   69SLPC   C24 5872   4.574   0.334  10.525 -0.3595  0.2111  0.5651
   69SLPC   H4R 5873   4.476   0.387  10.522  0.8559  2.7580  2.2039
   69SLPC   H4S 5874   4.572   0.227  10.496  0.9448 -0.2166  1.9243
   69SLPC   C25 5875   4.667   0.405  10.419  0.0060  0.9511 -0.7337
   69SLPC   H5R 5876   4.764   0.352  10.424 -2.4089 -3.9449 -0.3839
   69SLPC   H5S 5877   4.676   0.508  10.459 -0.7306  0.3056  1.2089
   69SLPC   C26 5878   4.618   0.404  10.277 -0.2987 -0.3174  0.9525
   69SLPC   H6R 5879   4.530   0.471  10.281 -0.7915 -0.9826  1.4343
   69SLPC   H6S 5880   4.586   0.304  10.241  0.5215 -0.4261  0.4906
   69SLPC   C27 5881   4.719   0.477  10.183  0.4541  0.2434  0.2102
   69SLPC   H7R 5882   4.820   0.432  10.183 -0.6869 -2.5033  0.6384
   69SLPC   H7S 5883   4.736   0.580  10.223 -1.4735  1.2928 -1.4434
   69SLPC   C28 5884   4.659   0.468  10.035 -0.2048 -0.2001 -0.3684
   69SLPC   H8R 5885   4.551   0.484  10.053 -0.3156  1.1849 -2.0167
   69SLPC   H8S 5886   4.676   0.362  10.007 -1.4329  0.1223 -2.5590
   69SLPC   C29 5887   4.716   0.574   9.948  0.2570 -0.1995 -0.1126
   69SLPC   H9R 5888   4.670   0.672   9.967 -1.7421 -1.3456  1.4326
   69SLPC  C210 5889   4.790   0.566   9.842  0.5120  0.7335  0.8663
   69SLPC  H10R 5890   4.827   0.662   9.803 -0.5178  1.1134  0.7886
   69SLPC  C211 5891   4.848   0.435   9.779 -0.3888 -0.1143 -0.6637
   69SLPC  H11R 5892   4.780   0.397   9.700  0.2409 -1.5707 -0.5344
   69SLPC  H11S 5893   4.857   0.358   9.858  0.0544  0.8807  0.2913
   69SLPC  C212 5894   4.974   0.466   9.715 -0.0613  0.8157 -0.2752
   69SLPC  H12R 5895   5.059   0.472   9.784 -0.7865  2.1216  0.5350
   69SLPC  C213 5896   4.991   0.489   9.581  0.3066  0.0962  0.4747
   69SLPC  H13R 5897   5.093   0.504   9.543  0.9704 -0.9663  1.7333
   69SLPC  C214 5898   4.886   0.483   9.472  0.2292  0.3895 -0.0128
   69SLPC  H14R 5899   4.790   0.535   9.492  0.3095  1.8945 -2.9302
   69SLPC  H14S 5900   4.868   0.378   9.443  0.3958  0.5104 -0.5742
   69SLPC  C215 5901   4.921   0.556   9.339  0.2302 -0.0446 -0.0226
   69SLPC  H15R 5902   5.008   0.520   9.280  0.8321  0.6883  0.3925
   69SLPC  H15S 5903   4.960   0.659   9.354 -1.5005  0.6652 -0.1831
   69SLPC  C216 5904   4.806   0.574   9.237  0.0580 -0.4508  0.0381
   69SLPC  H16R 5905   4.844   0.619   9.143  0.0772 -1.6384 -0.5447
   69SLPC  H16S 5906   4.717   0.619   9.285  1.1989 -1.2485  3.1187
   69SLPC  C217 5907   4.755   0.436   9.195  0.2606 -0.1781 -0.2087
   69SLPC  H17R 5908   4.711   0.390   9.287 -0.8682  0.5307 -0.3751
   69SLPC  H17S 5909   4.842   0.374   9.167 -0.5930 -0.9669 -1.1929
   69SLPC  C218 5910   4.650   0.445   9.084 -0.1580 -0.0261 -0.3330
   69SLPC  H18R 5911   4.619   0.344   9.050 -1.0034  0.5444 -1.2870
   69SLPC  H18S 5912   4.700   0.494   8.998  0.3055 -1.5892 -0.9940
   69SLPC  H18T 5913   4.565   0.506   9.122 -0.4088 -0.5409 -0.0634
   69SLPC   C33 5914   4.451   0.925  10.188  0.3959 -0.6063 -0.1098
   69SLPC   H3X 5915   4.502   1.018  10.223  1.6306 -1.1111 -0.5303
   69SLPC   H3Y 5916   4.351   0.941  10.234  0.7289 -0.2701  0.5170
   69SLPC   C34 5917   4.459   0.929  10.035  0.0900 -0.0399 -0.5507
   69SLPC   H4X 5918   4.533   0.852  10.007  0.5092  0.0303  0.3593
   69SLPC   H4Y 5919   4.490   1.032  10.008 -1.5017  1.7047  3.5334
   69SLPC   C35 5920   4.321   0.904   9.970  0.0015 -0.1782 -0.3824
   69SLPC   H5X 5921   4.249   0.975  10.016 -0.2724 -0.4581 -0.3751
   69SLPC   H5Y 5922   4.287   0.804  10.004 -1.5444 -1.0369 -3.9931
   69SLPC   C36 5923   4.325   0.927   9.816 -0.3835  0.8120  0.7211
   69SLPC   H6X 5924   4.394   1.012   9.799  1.0588 -0.2815  0.8917
   69SLPC   H6Y 5925   4.230   0.959   9.770  0.5634  0.5610 -1.5609
   69SLPC   C37 5926   4.376   0.807   9.736 -0.5718  0.2836  0.2024
   69SLPC   H7X 5927   4.307   0.721   9.748  0.2368 -0.3831  0.2151
   69SLPC   H7Y 5928   4.466   0.767   9.788 -2.4322  1.1950  4.5461
   69SLPC   C38 5929   4.383   0.827   9.581 -0.0675 -0.3217  0.0680
   69SLPC   H8X 5930   4.292   0.872   9.535  0.4220  3.9673  2.7283
   69SLPC   H8Y 5931   4.406   0.736   9.521 -3.4257  1.2595 -4.1754
   69SLPC   C39 5932   4.503   0.919   9.544  1.1179  0.3529  0.2245
   69SLPC   H9X 5933   4.573   0.912   9.630 -1.1523 -0.0449  2.1561
   69SLPC   H9Y 5934   4.470   1.024   9.559 -2.6356 -0.3910 -1.6200
   69SLPC  C310 5935   4.569   0.901   9.412  0.3241  0.1720 -0.7532
   69SLPC  H10X 5936   4.609   0.800   9.389  1.9281  1.0171 -1.8838
   69SLPC  H10Y 5937   4.651   0.976   9.411  0.7422 -0.2012  1.3756
   69SLPC  C311 5938   4.488   0.936   9.286  0.1459 -0.1595 -0.4398
   69SLPC  H11X 5939   4.453   1.041   9.280  0.8469 -0.0086 -2.8822
   69SLPC  H11Y 5940   4.406   0.864   9.308  1.8790 -1.7377  1.1863
   69SLPC  C312 5941   4.557   0.892   9.163 -0.1011 -0.4077 -0.0481
   69SLPC  H12X 5942   4.478   0.893   9.085 -0.2537 -1.7877  0.0725
   69SLPC  H12Y 5943   4.597   0.789   9.166  0.1224 -0.3007  1.2122
   69SLPC  C313 5944   4.683   0.966   9.134  0.2904 -0.3110  0.5695
   69SLPC  H13X 5945   4.757   0.952   9.216 -0.3017 -1.2783  0.9611
   69SLPC  H13Y 5946   4.651   1.072   9.131  0.0901 -0.3430 -3.3188
   69SLPC  C314 5947   4.740   0.917   9.005  0.4769 -0.6475 -0.1833
   69SLPC  H14X 5948   4.674   0.935   8.917  2.5306  2.8599 -1.1854
   69SLPC  H14Y 5949   4.754   0.807   9.018  0.1958 -0.5372  1.1687
   69SLPC  C315 5950   4.880   0.979   8.980 -0.2012  0.0925  0.3312
   69SLPC  H15X 5951   4.948   0.931   9.053 -1.2895  1.5792  2.4214
   69SLPC  H15Y 5952   4.893   1.085   9.011  0.5444 -0.0181  0.4111
   69SLPC  C316 5953   4.927   0.966   8.828 -0.4476 -0.3330 -0.2163
   69SLPC  H16X 5954   5.037   0.983   8.820 -0.0301 -2.1985  0.8768
   69SLPC  H16Y 5955   4.880   1.043   8.763  2.9509  2.0849 -0.1131
   69SLPC  C317 5956   4.901   0.827   8.783 -0.3584  0.2934 -0.0953
   69SLPC  H17X 5957   4.794   0.797   8.774 -0.1522 -0.7584  0.7664
   69SLPC  H17Y 5958   4.940   0.748   8.851  3.9383  1.6871 -0.6221
   69SLPC  C318 5959   4.956   0.806   8.640  0.7035  0.1355  0.0744
   69SLPC  H18X 5960   4.922   0.709   8.597  0.7610 -0.0288  0.3962
   69SLPC  H18Y 5961   5.066   0.816   8.632  1.0125 -2.9836 -0.9459
   69SLPC  H18Z 5962   4.921   0.887   8.572  1.1368 -0.7476 -1.2519
   70SLPC     N 5963   5.318   3.032  10.812  0.0702 -0.0182 -0.0242
   70SLPC   C13 5964   5.195   2.976  10.741 -0.8638  0.0991 -0.5818
   70SLPC  H13A 5965   5.145   2.909  10.810  1.0213 -0.3684  0.4291
   70SLPC  H13B 5966   5.128   3.058  10.724 -0.9089  0.0621 -0.5813
   70SLPC  H13C 5967   5.226   2.932  10.647  1.4349 -0.5919  0.4010
   70SLPC   C14 5968   5.421   2.920  10.839  0.6781 -0.8254  0.2582
   70SLPC  H14A 5969   5.452   2.889  10.740  0.8263  1.0295 -0.3049
   70SLPC  H14B 5970   5.507   2.964  10.888  1.2937 -2.5520  0.8209
   70SLPC  H14C 5971   5.376   2.841  10.896  1.8377  0.8748  3.7835
   70SLPC   C15 5972   5.266   3.094  10.936  0.2028  0.4552 -0.2933
   70SLPC  H15A 5973   5.202   3.022  10.985  0.3814  1.1656  1.0310
   70SLPC  H15B 5974   5.344   3.137  10.997  1.8233 -2.7092  0.0442
   70SLPC  H15C 5975   5.197   3.173  10.911 -1.5853  0.3633  3.6038
   70SLPC   C12 5976   5.379   3.140  10.726 -0.1025 -0.0682  0.1135
   70SLPC  H12A 5977   5.459   3.184  10.784  0.1511 -0.0982 -0.2064
   70SLPC  H12B 5978   5.309   3.221  10.715 -0.7427 -0.6968 -0.5826
   70SLPC   C11 5979   5.428   3.099  10.588  0.2192 -0.1526  0.1695
   70SLPC  H11A 5980   5.435   3.188  10.521  0.1138  0.2613  0.7050
   70SLPC  H11B 5981   5.353   3.035  10.536  0.7388  1.4552 -2.8220
   70SLPC     P 5982   5.689   3.114  10.584  0.2154  0.1897  0.7010
   70SLPC   O13 5983   5.663   3.256  10.606  0.3238  0.0547 -0.2810
   70SLPC   O14 5984   5.789   3.046  10.669  0.2912  0.0280  0.0630
   70SLPC   O12 5985   5.558   3.038  10.594 -0.1683  0.0084 -0.5042
   70SLPC   O11 5986   5.735   3.103  10.435  0.2268 -0.5208  0.9017
   70SLPC    C1 5987   5.670   3.169  10.326  0.1041  0.5978  0.6380
   70SLPC    HA 5988   5.621   3.096  10.258 -0.7629 -1.2165  3.0614
   70SLPC    HB 5989   5.591   3.240  10.360 -0.7957 -1.4666  3.2134
   70SLPC    C2 5990   5.770   3.263  10.247 -0.2685 -0.1868 -0.0532
   70SLPC    HS 5991   5.827   3.325  10.319 -0.3651 -0.6758  0.4482
   70SLPC   O21 5992   5.711   3.336  10.137  0.5288 -0.0990  0.5014
   70SLPC   C21 5993   5.771   3.443  10.088 -0.0249  0.4795  0.0663
   70SLPC   O22 5994   5.870   3.503  10.137  0.6750 -0.7031 -0.9939
   70SLPC   C22 5995   5.697   3.485   9.961  0.2193  0.0825  0.3564
   70SLPC   H2R 5996   5.599   3.524   9.997  0.4567 -0.2354  1.3972
   70SLPC   H2S 5997   5.744   3.571   9.909 -2.7456  0.7694 -1.3957
   70SLPC    C3 5998   5.882   3.167  10.190 -0.0651 -0.5444  0.0431
   70SLPC    HX 5999   5.835   3.089  10.126 -0.7760 -0.0271 -0.0798
   70SLPC    HY 6000   5.940   3.120  10.272  1.3697  1.9202  0.5568
   70SLPC   O31 6001   5.973   3.232  10.102  0.1406  0.5911 -0.3563
   70SLPC   C31 6002   6.073   3.291  10.167  0.2061 -0.5956 -0.4915
   70SLPC   O32 6003   6.086   3.293  10.287  0.1191  0.4079  0.0103
   70SLPC   C32 6004   6.152   3.381  10.067  0.2185  0.2625  0.4884
   70SLPC   H2X 6005   6.155   3.484  10.110  1.0041  1.1354 -1.5513
   70SLPC   H2Y 6006   6.098   3.391   9.971 -2.2769 -1.0156  1.6597
   70SLPC   C23 6007   5.681   3.367   9.863 -0.1543  0.1436  0.3705
   70SLPC   H3R 6008   5.592   3.394   9.802 -0.6146  0.3420  1.1123
   70SLPC   H3S 6009   5.646   3.276   9.915  0.0808  1.0521  2.1816
   70SLPC   C24 6010   5.806   3.356   9.773  0.2946 -0.3604  0.0164
   70SLPC   H4R 6011   5.874   3.298   9.838 -0.4174 -0.4845  0.6576
   70SLPC   H4S 6012   5.856   3.454   9.754  3.7216 -2.0124 -0.1768
   70SLPC   C25 6013   5.777   3.279   9.649 -0.0155  0.7078  0.0282
   70SLPC   H5R 6014   5.694   3.327   9.592 -1.3087 -0.6553  0.6856
   70SLPC   H5S 6015   5.744   3.177   9.679  1.5274  0.6792  1.7552
   70SLPC   C26 6016   5.904   3.259   9.554  0.3175 -0.3221  0.3747
   70SLPC   H6R 6017   5.979   3.206   9.615  0.7410  1.1229  1.1585
   70SLPC   H6S 6018   5.938   3.362   9.530  0.4846 -0.2606  0.8795
   70SLPC   C27 6019   5.860   3.184   9.428  0.2558  0.2598  0.0992
   70SLPC   H7R 6020   5.790   3.248   9.371  0.6929  1.1344  0.5148
   70SLPC   H7S 6021   5.807   3.091   9.457  1.4169 -0.2293  0.7057
   70SLPC   C28 6022   5.979   3.151   9.340  0.1228  0.3093 -0.3546
   70SLPC   H8R 6023   6.022   3.054   9.373 -1.7995 -0.3880  0.2699
   70SLPC   H8S 6024   6.046   3.240   9.344 -0.6714  0.9244 -0.4594
   70SLPC   C29 6025   5.933   3.129   9.197  0.0347 -0.0846  0.1779
   70SLPC   H9R 6026   5.848   3.059   9.197 -0.2178  0.2116  0.5329
   70SLPC  C210 6027   5.987   3.172   9.083  0.1796  0.0148 -0.4324
   70SLPC  H10R 6028   5.930   3.136   8.996 -0.1662 -1.3995  0.3495
   70SLPC  C211 6029   6.107   3.268   9.068  0.4005 -0.1891  0.2806
   70SLPC  H11R 6030   6.128   3.333   9.156  0.6741  1.3962 -0.9147
   70SLPC  H11S 6031   6.090   3.332   8.979  0.5673  2.0157  1.7576
   70SLPC  C212 6032   6.238   3.199   9.041  0.1331 -0.4146  0.1183
   70SLPC  H12R 6033   6.258   3.111   9.105  1.2116 -0.9117 -0.8644
   70SLPC  C213 6034   6.326   3.236   8.945  0.0180 -0.8512 -0.3095
   70SLPC  H13R 6035   6.421   3.181   8.939  0.5800  0.1490 -0.7911
   70SLPC  C214 6036   6.325   3.355   8.852 -0.0959  0.6183  0.1199
   70SLPC  H14R 6037   6.417   3.415   8.872  0.0188 -0.0067  1.6076
   70SLPC  H14S 6038   6.245   3.425   8.885  0.7094  1.5272  0.1985
   70SLPC  C215 6039   6.294   3.298   8.706  0.0606 -0.0962 -0.1754
   70SLPC  H15R 6040   6.354   3.210   8.672 -1.7643 -1.3062 -0.3953
   70SLPC  H15S 6041   6.322   3.376   8.631 -1.2401 -0.8143 -1.4590
   70SLPC  C216 6042   6.144   3.257   8.682 -0.3930  0.0664 -0.3646
   70SLPC  H16R 6043   6.073   3.331   8.724 -1.4104 -2.0720  1.8868
   70SLPC  H16S 6044   6.129   3.164   8.740 -1.3347 -1.8110 -3.3605
   70SLPC  C217 6045   6.102   3.220   8.535  0.2498 -0.1994  0.1081
   70SLPC  H17R 6046   6.162   3.130   8.508  1.2426  0.8115 -1.2329
   70SLPC  H17S 6047   6.141   3.306   8.477  1.2052 -1.7637 -1.7126
   70SLPC  C218 6048   5.954   3.203   8.498 -0.4669  0.7203  0.2341
   70SLPC  H18R 6049   5.905   3.303   8.504  1.4773  1.6674  1.3265
   70SLPC  H18S 6050   5.903   3.138   8.572 -0.7531  1.8060  1.0234
   70SLPC  H18T 6051   5.948   3.149   8.401  1.2668 -0.7182  0.8854
   70SLPC   C33 6052   6.288   3.325  10.048  0.0988 -0.1510  0.1985
   70SLPC   H3X 6053   6.285   3.217  10.022  1.0934 -0.6223  1.9512
   70SLPC   H3Y 6054   6.355   3.337  10.135 -1.3541  1.0328  1.2160
   70SLPC   C34 6055   6.362   3.381   9.929 -0.0748  0.1159  0.0993
   70SLPC   H4X 6056   6.468   3.347   9.935  0.0895  0.7077  0.7880
   70SLPC   H4Y 6057   6.357   3.492   9.929 -0.5965  0.0968 -0.5680
   70SLPC   C35 6058   6.316   3.334   9.791  0.3733  0.1461 -0.4563
   70SLPC   H5X 6059   6.225   3.394   9.772  0.8910  1.2097  0.3097
   70SLPC   H5Y 6060   6.288   3.227   9.802 -0.5294  0.1190 -2.5688
   70SLPC   C36 6061   6.414   3.342   9.674 -0.7709  0.7118 -0.0955
   70SLPC   H6X 6062   6.515   3.311   9.708  1.2959  2.6067 -3.9080
   70SLPC   H6Y 6063   6.415   3.448   9.640  0.0996  1.3236  1.6962
   70SLPC   C37 6064   6.385   3.233   9.565  0.4443  0.5036  0.3867
   70SLPC   H7X 6065   6.280   3.230   9.527  0.1757 -2.0291  1.0956
   70SLPC   H7Y 6066   6.395   3.134   9.614  2.2130  1.5994  2.3898
   70SLPC   C38 6067   6.479   3.230   9.447  0.1792  0.1398  0.0060
   70SLPC   H8X 6068   6.453   3.308   9.373 -0.9923  0.2853  0.5462
   70SLPC   H8Y 6069   6.471   3.134   9.392 -0.5046  0.9794 -1.3974
   70SLPC   C39 6070   6.621   3.255   9.485 -0.0501 -0.0643  0.9214
   70SLPC   H9X 6071   6.640   3.197   9.578 -0.3229 -0.5138  0.6988
   70SLPC   H9Y 6072   6.637   3.361   9.516  2.7403 -0.1196 -0.0469
   70SLPC  C310 6073   6.720   3.218   9.373 -0.2690 -0.1847 -0.2282
   70SLPC  H10X 6074   6.707   3.108   9.376  0.7178 -0.2851  1.8825
   70SLPC  H10Y 6075   6.826   3.228   9.405 -0.5156 -3.2740  1.9966
   70SLPC  C311 6076   6.710   3.284   9.235 -0.1067  0.4048  0.6040
   70SLPC  H11X 6077   6.688   3.392   9.243  0.1690  0.3251  3.7769
   70SLPC  H11Y 6078   6.626   3.236   9.180  0.4131  1.7482 -1.4715
   70SLPC  C312 6079   6.835   3.275   9.144 -0.3170 -0.5316 -0.1184
   70SLPC  H12X 6080   6.866   3.169   9.131  0.6100 -0.0489 -2.2955
   70SLPC  H12Y 6081   6.909   3.331   9.205  0.3777 -0.4317 -1.0256
   70SLPC  C313 6082   6.829   3.347   9.010 -0.2980 -0.4887  0.5364
   70SLPC  H13X 6083   6.929   3.367   8.965  0.7985 -2.2211  2.0545
   70SLPC  H13Y 6084   6.787   3.449   9.022 -2.7618 -1.3938  0.1252
   70SLPC  C314 6085   6.747   3.267   8.910 -0.1430  0.0094 -0.4311
   70SLPC  H14X 6086   6.642   3.281   8.943  0.4774 -0.1570  1.7700
   70SLPC  H14Y 6087   6.777   3.161   8.920  2.9129  0.5910 -2.2054
   70SLPC  C315 6088   6.765   3.309   8.770  0.5736 -0.2175  0.1375
   70SLPC  H15X 6089   6.680   3.258   8.720  0.0195  1.0058 -0.2012
   70SLPC  H15Y 6090   6.855   3.274   8.714  1.0883  0.8472  0.2687
   70SLPC  C316 6091   6.746   3.464   8.740  0.3587 -0.1093 -0.6072
   70SLPC  H16X 6092   6.848   3.506   8.733  0.7966 -1.1765 -0.8379
   70SLPC  H16Y 6093   6.686   3.516   8.818 -2.0468 -2.0538 -1.0386
   70SLPC  C317 6094   6.684   3.499   8.608  0.6003  0.4377 -0.5849
   70SLPC  H17X 6095   6.649   3.605   8.609 -0.7963  0.0146 -1.5756
   70SLPC  H17Y 6096   6.590   3.440   8.600 -0.8566  2.5213  0.1341
   70SLPC  C318 6097   6.772   3.475   8.490 -0.5381  0.0737  0.5125
   70SLPC  H18X 6098   6.773   3.368   8.461 -1.3198  0.3071 -0.4126
   70SLPC  H18Y 6099   6.874   3.516   8.506  0.2151 -0.6134 -2.0545
   70SLPC  H18Z 6100   6.735   3.530   8.401 -0.0784 -0.5136 -0.0458
   71SLPC     N 6101   5.126   3.987  10.898 -0.5807  0.5950 -0.5450
   71SLPC   C13 6102   5.109   4.106  10.992 -0.4905 -0.1815  0.0757
   71SLPC  H13A 6103   5.140   4.202  10.955  1.4508 -0.9731 -0.4537
   71SLPC  H13B 6104   5.003   4.112  11.015 -0.1235 -0.3724  1.9934
   71SLPC  H13C 6105   5.153   4.094  11.090 -1.0892  1.0092  0.5135
   71SLPC   C14 6106   5.276   3.993  10.871  0.0093  0.6697 -0.0624
   71SLPC  H14A 6107   5.294   4.084  10.816 -1.6900 -0.3628 -2.4989
   71SLPC  H14B 6108   5.318   3.989  10.971 -0.6085 -2.6845  0.1613
   71SLPC  H14C 6109   5.309   3.914  10.806 -1.1254  1.1091 -1.2294
   71SLPC   C15 6110   5.049   4.002  10.774  0.2733  0.8095  0.5682
   71SLPC  H15A 6111   5.027   4.105  10.748 -1.2350  0.0690 -1.2260
   71SLPC  H15B 6112   5.112   3.962  10.696  1.0693  1.7524  0.7117
   71SLPC  H15C 6113   4.948   3.967  10.784  0.0645  1.7415  2.0770
   71SLPC   C12 6114   5.084   3.858  10.963  0.1964  0.0739  0.7118
   71SLPC  H12A 6115   4.976   3.858  10.974 -0.0420 -0.6760 -1.2059
   71SLPC  H12B 6116   5.128   3.856  11.062 -1.5962 -0.4083  1.5468
   71SLPC   C11 6117   5.107   3.724  10.882 -0.1098  0.1629 -0.0565
   71SLPC  H11A 6118   5.049   3.723  10.788 -0.7487  2.1656  0.2638
   71SLPC  H11B 6119   5.078   3.645  10.954  1.5001  0.0881  0.5561
   71SLPC     P 6120   5.297   3.595  10.754  0.2267 -0.2172 -0.2358
   71SLPC   O13 6121   5.441   3.605  10.728 -0.4751  0.0523 -0.1034
   71SLPC   O14 6122   5.244   3.463  10.807 -0.1633 -0.0799 -0.1958
   71SLPC   O12 6123   5.248   3.710  10.856  0.0396  0.2848 -0.0088
   71SLPC   O11 6124   5.223   3.625  10.623  0.1367 -0.1788  0.9516
   71SLPC    C1 6125   5.261   3.741  10.551  0.1819 -0.4640  0.3828
   71SLPC    HA 6126   5.269   3.831  10.616  3.0085 -1.5067  1.6373
   71SLPC    HB 6127   5.363   3.737  10.508  0.0022  0.8351 -0.2003
   71SLPC    C2 6128   5.158   3.776  10.441 -0.5099 -0.1017  0.1856
   71SLPC    HS 6129   5.073   3.815  10.502 -0.6509 -3.2598  2.2319
   71SLPC   O21 6130   5.128   3.654  10.373  0.4552 -0.3101 -0.0326
   71SLPC   C21 6131   5.014   3.648  10.307  0.2528 -0.4668  0.2044
   71SLPC   O22 6132   4.926   3.732  10.325  0.1382 -0.4125  0.9404
   71SLPC   C22 6133   4.995   3.528  10.217 -0.2308 -0.6094  0.4929
   71SLPC   H2R 6134   5.093   3.493  10.178 -0.0395 -0.2241  0.6152
   71SLPC   H2S 6135   4.953   3.438  10.267  0.3226  0.0550  2.2257
   71SLPC    C3 6136   5.218   3.877  10.341 -0.5193 -0.0307  0.2427
   71SLPC    HX 6137   5.304   3.822  10.298  1.7960  1.8374  2.1998
   71SLPC    HY 6138   5.261   3.969  10.387 -1.1513  0.9396 -1.0504
   71SLPC   O31 6139   5.122   3.919  10.243  0.4300  0.4731  0.1602
   71SLPC   C31 6140   5.049   4.025  10.278  0.0563  0.0733  0.1461
   71SLPC   O32 6141   5.057   4.074  10.390 -0.7170 -0.3326 -0.0873
   71SLPC   C32 6142   4.942   4.051  10.165 -0.4255 -0.6755  0.4691
   71SLPC   H2X 6143   4.850   4.081  10.221  0.0265 -0.8626  1.3357
   71SLPC   H2Y 6144   4.914   3.952  10.123 -1.2143  1.1671 -3.8644
   71SLPC   C23 6145   4.899   3.572  10.100  0.3216 -0.1410  0.1252
   71SLPC   H3R 6146   4.817   3.636  10.139  0.7711  0.7053 -0.2809
   71SLPC   H3S 6147   4.853   3.486  10.047 -0.1745 -1.0405  1.9342
   71SLPC   C24 6148   4.974   3.666  10.001  0.2705 -0.4715 -0.4110
   71SLPC   H4R 6149   5.065   3.709  10.048  0.3702  0.2760 -1.2747
   71SLPC   H4S 6150   4.903   3.749   9.979  1.2412  0.2718 -0.7835
   71SLPC   C25 6151   5.003   3.592   9.871 -0.9854  0.0904  0.0389
   71SLPC   H5R 6152   4.944   3.499   9.859  1.7525 -1.7331 -0.1083
   71SLPC   H5S 6153   5.102   3.543   9.872 -0.5389  1.0003  1.0687
   71SLPC   C26 6154   5.000   3.687   9.749  0.3273  1.2213 -0.1168
   71SLPC   H6R 6155   5.058   3.780   9.770 -0.3849  2.1665 -2.0776
   71SLPC   H6S 6156   4.890   3.699   9.741 -0.2264 -1.8208  1.3651
   71SLPC   C27 6157   5.045   3.621   9.619  0.0910 -0.4855 -0.4001
   71SLPC   H7R 6158   5.015   3.514   9.613 -0.4995 -0.3251 -0.4659
   71SLPC   H7S 6159   5.154   3.612   9.635  0.0189  2.5008  3.0523
   71SLPC   C28 6160   5.016   3.702   9.492  0.1200  0.3961  0.9261
   71SLPC   H8R 6161   4.908   3.715   9.473  0.1054  0.9211  1.3630
   71SLPC   H8S 6162   5.045   3.628   9.414 -1.5992  1.0215 -0.3573
   71SLPC   C29 6163   5.105   3.816   9.480 -0.8915 -0.1102  0.2501
   71SLPC   H9R 6164   5.114   3.870   9.575 -1.6030  1.9022 -0.7816
   71SLPC  C210 6165   5.170   3.854   9.369 -0.1060 -0.1536  0.1463
   71SLPC  H10R 6166   5.238   3.939   9.382 -2.2033  1.3888  1.7924
   71SLPC  C211 6167   5.156   3.789   9.236 -0.2570 -0.1476  0.0910
   71SLPC  H11R 6168   5.095   3.858   9.172 -0.2067 -0.8129 -0.6830
   71SLPC  H11S 6169   5.104   3.691   9.243 -0.3088 -0.1207  0.0875
   71SLPC  C212 6170   5.279   3.760   9.164 -0.3748  0.1606  0.0537
   71SLPC  H12R 6171   5.378   3.755   9.212 -0.2765  1.7004  0.0374
   71SLPC  C213 6172   5.292   3.760   9.027  0.6642 -0.1336 -0.0887
   71SLPC  H13R 6173   5.390   3.762   8.977  0.8205  0.4196  0.2273
   71SLPC  C214 6174   5.173   3.789   8.936  0.0031  0.3608  0.5660
   71SLPC  H14R 6175   5.120   3.880   8.970 -2.9952 -1.3297  0.7206
   71SLPC  H14S 6176   5.100   3.706   8.936 -1.1640  1.3462 -0.5287
   71SLPC  C215 6177   5.221   3.808   8.789  0.2213 -0.9561  0.2221
   71SLPC  H15R 6178   5.249   3.713   8.739  1.6402 -0.1361 -0.6208
   71SLPC  H15S 6179   5.308   3.874   8.768 -0.4031  0.1201  0.8996
   71SLPC  C216 6180   5.110   3.876   8.712 -0.1724 -0.4185  0.2957
   71SLPC  H16R 6181   5.078   3.971   8.758 -0.6026 -1.5277  2.4232
   71SLPC  H16S 6182   5.026   3.804   8.714 -1.3369  0.9077  1.7406
   71SLPC  C217 6183   5.146   3.900   8.562 -0.2919 -0.3131 -0.2019
   71SLPC  H17R 6184   5.179   3.803   8.520 -1.3540 -0.7117 -0.1568
   71SLPC  H17S 6185   5.235   3.967   8.568  1.3285 -2.1619 -2.1394
   71SLPC  C218 6186   5.027   3.945   8.475  0.4596  0.2903  0.0974
   71SLPC  H18R 6187   4.959   3.858   8.468 -0.6244  1.0762  0.5157
   71SLPC  H18S 6188   5.063   3.988   8.379  0.1973  0.2236 -0.0296
   71SLPC  H18T 6189   4.958   4.010   8.534 -1.3065  0.0034 -1.5570
   71SLPC   C33 6190   4.997   4.157  10.064  0.0615 -0.2411  0.0287
   71SLPC   H3X 6191   5.065   4.228  10.117  0.7258 -1.2372  0.5524
   71SLPC   H3Y 6192   4.912   4.220  10.032 -0.0882  0.9062  2.4813
   71SLPC   C34 6193   5.061   4.092   9.947  0.0240  0.1668  0.2141
   71SLPC   H4X 6194   4.990   4.016   9.907  0.9707 -1.1028  0.8718
   71SLPC   H4Y 6195   5.154   4.038   9.974  0.4832  0.3053 -1.0403
   71SLPC   C35 6196   5.099   4.197   9.839 -0.1000  0.9006  0.5652
   71SLPC   H5X 6197   5.135   4.133   9.757 -0.2531  0.9990  0.4209
   71SLPC   H5Y 6198   5.185   4.252   9.882 -0.3095  2.5521 -1.0265
   71SLPC   C36 6199   4.989   4.292   9.793 -0.4019  0.3902 -0.3459
   71SLPC   H6X 6200   4.977   4.362   9.878 -0.6463  1.7413 -1.4453
   71SLPC   H6Y 6201   4.891   4.241   9.788 -0.3303  0.3231 -1.4725
   71SLPC   C37 6202   5.012   4.362   9.661 -0.1977 -0.1496 -0.0413
   71SLPC   H7X 6203   5.105   4.424   9.664  0.5989 -1.2438 -0.9877
   71SLPC   H7Y 6204   4.925   4.427   9.641  0.1157  0.2734 -0.0441
   71SLPC   C38 6205   5.029   4.270   9.542 -0.9810 -0.0173 -0.5035
   71SLPC   H8X 6206   5.130   4.228   9.562 -1.0308 -1.0566 -2.2181
   71SLPC   H8Y 6207   5.031   4.328   9.448 -0.0488 -0.2960 -0.6720
   71SLPC   C39 6208   4.938   4.140   9.527 -0.2898  0.2686  0.5297
   71SLPC   H9X 6209   4.835   4.160   9.564  0.1023  3.3824  0.2174
   71SLPC   H9Y 6210   4.979   4.056   9.587  3.4261  0.0394 -1.9718
   71SLPC  C310 6211   4.926   4.086   9.378  0.6335  0.8321  0.6364
   71SLPC  H10X 6212   4.885   3.984   9.388  1.5103  0.5824  1.8706
   71SLPC  H10Y 6213   5.022   4.074   9.323  0.3438  0.7374  0.1376
   71SLPC  C311 6214   4.834   4.171   9.288 -0.8802 -0.8891 -0.1209
   71SLPC  H11X 6215   4.884   4.269   9.274  0.8793 -1.7318 -0.0187
   71SLPC  H11Y 6216   4.743   4.200   9.345  0.7971 -1.4583  3.0858
   71SLPC  C312 6217   4.793   4.108   9.153  0.4450 -0.6972  0.2043
   71SLPC  H12X 6218   4.739   4.016   9.188  1.4341 -1.2050  0.4208
   71SLPC  H12Y 6219   4.890   4.085   9.106  0.6849  1.5425 -0.5008
   71SLPC  C313 6220   4.701   4.200   9.066  0.6283 -0.5764  0.2349
   71SLPC  H13X 6221   4.758   4.284   9.022  1.9618 -1.8243 -0.4659
   71SLPC  H13Y 6222   4.628   4.243   9.139  1.7149 -0.7557  1.4719
   71SLPC  C314 6223   4.619   4.129   8.955 -0.0915  0.6443  0.0969
   71SLPC  H14X 6224   4.528   4.099   9.011  0.8270  2.0708  2.5003
   71SLPC  H14Y 6225   4.662   4.032   8.920 -1.5679  0.6069 -1.8173
   71SLPC  C315 6226   4.591   4.213   8.829  0.0181 -0.4222 -0.6677
   71SLPC  H15X 6227   4.683   4.219   8.768  0.3171  0.7321 -0.1225
   71SLPC  H15Y 6228   4.572   4.314   8.872  0.4718 -0.3683 -0.5893
   71SLPC  C316 6229   4.474   4.145   8.750 -0.0759 -0.3000 -0.4339
   71SLPC  H16X 6230   4.386   4.128   8.815  0.0638  0.9904  0.1046
   71SLPC  H16Y 6231   4.504   4.042   8.720 -0.6551 -0.4906 -0.3631
   71SLPC  C317 6232   4.429   4.221   8.626  0.5321 -0.1997  0.8821
   71SLPC  H17X 6233   4.377   4.156   8.553 -0.8299  0.2572  1.4141
   71SLPC  H17Y 6234   4.517   4.265   8.574 -1.8985  1.8364 -1.8403
   71SLPC  C318 6235   4.327   4.325   8.650  0.4464  0.2700 -0.3660
   71SLPC  H18X 6236   4.233   4.283   8.692  0.6142 -0.5291 -0.7738
   71SLPC  H18Y 6237   4.310   4.376   8.553  1.8143  0.3592 -0.5801
   71SLPC  H18Z 6238   4.356   4.399   8.728 -0.8518  1.0820 -0.6099
   72SLPC     N 6239   5.300   6.234  10.993 -0.4138 -0.3080 -0.1418
   72SLPC   C13 6240   5.427   6.190  10.923 -0.0298 -0.6741  0.2575
   72SLPC  H13A 6241   5.517   6.240  10.954 -0.7137  0.9510 -0.2209
   72SLPC  H13B 6242   5.448   6.085  10.935 -1.4157 -0.7912  2.1879
   72SLPC  H13C 6243   5.418   6.226  10.821 -2.7904  0.9741  0.9810
   72SLPC   C14 6244   5.310   6.185  11.134 -0.3244 -0.4362  0.6217
   72SLPC  H14A 6245   5.216   6.195  11.186  0.1934 -0.1973  1.5389
   72SLPC  H14B 6246   5.353   6.087  11.125  0.4446 -0.0384 -0.2368
   72SLPC  H14C 6247   5.385   6.245  11.186  0.6654  0.8318 -2.0689
   72SLPC   C15 6248   5.185   6.162  10.928  0.1002  0.6459  0.4185
   72SLPC  H15A 6249   5.091   6.209  10.951 -0.7105 -1.2942  1.2020
   72SLPC  H15B 6250   5.185   6.178  10.822 -0.6939  0.4369  0.3814
   72SLPC  H15C 6251   5.186   6.057  10.952  0.6482  0.5005 -0.2053
   72SLPC   C12 6252   5.293   6.381  10.982  0.0084 -0.2559  0.2817
   72SLPC  H12A 6253   5.380   6.425  11.028  0.7192 -1.6720  0.3400
   72SLPC  H12B 6254   5.212   6.427  11.037 -0.6498  2.0218 -2.3371
   72SLPC   C11 6255   5.268   6.436  10.839 -0.0273 -0.6498  0.7716
   72SLPC  H11A 6256   5.226   6.539  10.836 -2.5963 -1.6285  0.6134
   72SLPC  H11B 6257   5.185   6.373  10.800  1.5538 -1.9736 -0.6201
   72SLPC     P 6258   5.492   6.521  10.750 -0.4574  0.1646 -0.1502
   72SLPC   O13 6259   5.521   6.557  10.889  0.7083 -0.5848 -0.2856
   72SLPC   O14 6260   5.602   6.475  10.669 -0.0070  0.3798  0.1623
   72SLPC   O12 6261   5.382   6.416  10.744 -0.1412 -0.9304 -0.4079
   72SLPC   O11 6262   5.435   6.650  10.687 -0.0487 -0.6799 -0.0930
   72SLPC    C1 6263   5.417   6.667  10.552  0.2011 -0.7524 -0.7520
   72SLPC    HA 6264   5.472   6.750  10.503  0.0243 -0.6750 -0.8220
   72SLPC    HB 6265   5.444   6.578  10.491  2.5425  0.8487 -2.2176
   72SLPC    C2 6266   5.263   6.686  10.518 -0.1294 -0.7774  0.7855
   72SLPC    HS 6267   5.205   6.602  10.562 -0.9169 -0.4244  0.4240
   72SLPC   O21 6268   5.256   6.702  10.372  0.0364 -0.0371  0.7242
   72SLPC   C21 6269   5.193   6.600  10.309  0.2985  0.0236 -0.1423
   72SLPC   O22 6270   5.135   6.507  10.359 -0.2453 -0.1397  0.0063
   72SLPC   C22 6271   5.186   6.626  10.158  0.1124 -0.2788 -1.0818
   72SLPC   H2R 6272   5.162   6.734  10.147 -3.9482 -0.7951  0.8113
   72SLPC   H2S 6273   5.282   6.595  10.111 -0.6223 -0.9223 -2.2030
   72SLPC    C3 6274   5.212   6.819  10.576  0.8913  0.6759  1.2116
   72SLPC    HX 6275   5.283   6.887  10.524  0.5169  0.0308 -0.2031
   72SLPC    HY 6276   5.231   6.818  10.685 -1.0060 -1.0895  1.5872
   72SLPC   O31 6277   5.076   6.845  10.537  0.5304  0.4365 -0.8000
   72SLPC   C31 6278   4.990   6.789  10.616 -0.5738  0.3647 -0.3722
   72SLPC   O32 6279   5.012   6.722  10.719 -0.1914  0.1627 -0.1270
   72SLPC   C32 6280   4.862   6.855  10.590  0.6963  0.8979 -0.5971
   72SLPC   H2X 6281   4.874   6.937  10.516  0.3452 -0.1466 -1.8498
   72SLPC   H2Y 6282   4.843   6.901  10.690  1.0988  0.7366 -0.4432
   72SLPC   C23 6283   5.093   6.537  10.081  0.6675 -0.0860 -0.3371
   72SLPC   H3R 6284   4.985   6.562  10.087  0.2026 -1.6604 -1.6287
   72SLPC   H3S 6285   5.104   6.429  10.102 -0.3026 -0.8603 -3.2900
   72SLPC   C24 6286   5.133   6.549   9.927 -0.3942  0.6050  0.2833
   72SLPC   H4R 6287   5.240   6.519   9.924 -0.4872  0.3224 -0.2137
   72SLPC   H4S 6288   5.129   6.656   9.897 -0.7434  0.6288  0.4061
   72SLPC   C25 6289   5.059   6.454   9.837  0.9718 -0.0043  0.2196
   72SLPC   H5R 6290   4.952   6.480   9.851 -0.2374 -4.1701  0.0276
   72SLPC   H5S 6291   5.072   6.354   9.884  1.4913  0.1582  0.4312
   72SLPC   C26 6292   5.078   6.456   9.680  0.2552 -0.0328 -0.4748
   72SLPC   H6R 6293   5.174   6.400   9.669 -0.1188 -0.4016 -2.1214
   72SLPC   H6S 6294   5.073   6.552   9.625  0.6867  0.4766  0.3472
   72SLPC   C27 6295   4.965   6.379   9.625 -0.0250  0.2931  0.5874
   72SLPC   H7R 6296   4.958   6.418   9.521 -0.9047  0.7004  0.7867
   72SLPC   H7S 6297   4.872   6.406   9.680 -0.7768 -1.5985  0.3309
   72SLPC   C28 6298   4.982   6.228   9.619  0.1457  0.6196  0.5876
   72SLPC   H8R 6299   4.894   6.190   9.563  2.4494 -0.7454 -2.3624
   72SLPC   H8S 6300   5.001   6.187   9.721 -0.2131  1.1465  0.8745
   72SLPC   C29 6301   5.094   6.184   9.530 -0.6282 -0.2184  0.1633
   72SLPC   H9R 6302   5.186   6.214   9.582 -0.2785  0.5785 -0.8722
   72SLPC  C210 6303   5.099   6.136   9.401  0.3487 -0.0859 -0.2082
   72SLPC  H10R 6304   5.194   6.113   9.349  1.0260  1.6402  0.2080
   72SLPC  C211 6305   4.984   6.093   9.307  0.1946  0.6856 -0.8396
   72SLPC  H11R 6306   4.894   6.082   9.371 -0.9607  2.8920 -1.9655
   72SLPC  H11S 6307   5.001   5.998   9.252  0.4596  0.5561 -0.5369
   72SLPC  C212 6308   4.963   6.205   9.204  0.2544 -0.0086 -0.3681
   72SLPC  H12R 6309   4.970   6.306   9.246 -1.7862  0.2742 -0.6220
   72SLPC  C213 6310   4.928   6.202   9.071 -0.4877 -0.3034  0.5948
   72SLPC  H13R 6311   4.925   6.289   9.004 -1.6950 -0.1113  0.8646
   72SLPC  C214 6312   4.903   6.074   8.994  0.4763 -0.2561  0.7928
   72SLPC  H14R 6313   4.805   6.080   8.944  1.0178 -1.0029 -0.4069
   72SLPC  H14S 6314   4.912   5.985   9.061  0.3028 -0.0532  1.0873
   72SLPC  C215 6315   5.007   6.040   8.884 -0.7869 -0.1704  0.5987
   72SLPC  H15R 6316   4.993   5.937   8.846  2.0379  0.7828 -3.7883
   72SLPC  H15S 6317   5.107   6.046   8.932  0.8792 -1.8812 -2.3502
   72SLPC  C216 6318   5.002   6.138   8.768  0.0611 -0.1451  0.8895
   72SLPC  H16R 6319   5.061   6.227   8.798 -0.5728  0.9441 -0.9542
   72SLPC  H16S 6320   4.901   6.175   8.743  0.5637  0.3478 -0.5498
   72SLPC  C217 6321   5.042   6.077   8.635  0.1480 -0.8313 -0.2161
   72SLPC  H17R 6322   4.981   5.989   8.606 -2.7003  0.3125  1.8655
   72SLPC  H17S 6323   5.146   6.041   8.653  1.1691  0.5630 -2.7288
   72SLPC  C218 6324   5.018   6.164   8.509  0.2939  0.4433  1.3503
   72SLPC  H18R 6325   5.075   6.260   8.509  1.7004 -0.3731  0.5119
   72SLPC  H18S 6326   4.909   6.183   8.505  0.4259  1.1317  0.5808
   72SLPC  H18T 6327   5.049   6.111   8.417 -0.0858 -1.2557  2.1656
   72SLPC   C33 6328   4.745   6.753  10.556 -0.5432  0.4070  0.1558
   72SLPC   H3X 6329   4.642   6.791  10.575 -0.9682 -0.9174  0.6595
   72SLPC   H3Y 6330   4.752   6.676  10.636  1.9921  0.4282  0.0311
   72SLPC   C34 6331   4.754   6.708  10.406  0.1056 -0.6052  0.0174
   72SLPC   H4X 6332   4.667   6.643  10.383 -0.3461  0.2978 -0.9415
   72SLPC   H4Y 6333   4.844   6.647  10.387  0.1033 -0.1126 -1.7338
   72SLPC   C35 6334   4.739   6.820  10.303 -0.2025  0.0984 -0.3127
   72SLPC   H5X 6335   4.811   6.902  10.322 -0.3018 -0.0317  0.6657
   72SLPC   H5Y 6336   4.636   6.861  10.302 -0.4087 -0.3323  0.8767
   72SLPC   C36 6337   4.783   6.761  10.163  0.3867  0.4283 -0.4448
   72SLPC   H6X 6338   4.723   6.670  10.141  0.8817 -0.5100  1.7988
   72SLPC   H6Y 6339   4.891   6.735  10.165  0.3271 -0.0680 -1.9333
   72SLPC   C37 6340   4.753   6.857  10.041 -0.3459  0.1005  0.0537
   72SLPC   H7X 6341   4.824   6.942  10.040  1.0280 -1.0237 -0.2199
   72SLPC   H7Y 6342   4.648   6.892  10.057 -0.1755  0.1016  1.2008
   72SLPC   C38 6343   4.769   6.787   9.902 -0.0932  0.1220 -0.6396
   72SLPC   H8X 6344   4.697   6.703   9.897  1.2977 -1.0728 -1.1381
   72SLPC   H8Y 6345   4.867   6.736   9.890  1.4800  2.8481 -0.3109
   72SLPC   C39 6346   4.735   6.874   9.780 -0.1825 -0.1476 -0.3653
   72SLPC   H9X 6347   4.807   6.958   9.771  1.3500 -1.5195 -1.3869
   72SLPC   H9Y 6348   4.634   6.918   9.791 -0.3244 -0.9538  2.5721
   72SLPC  C310 6349   4.750   6.785   9.647 -0.5420 -0.4817 -0.4762
   72SLPC  H10X 6350   4.676   6.702   9.638  0.2253 -1.0856 -1.3456
   72SLPC  H10Y 6351   4.853   6.744   9.639 -0.5078 -0.0614 -2.8257
   72SLPC  C311 6352   4.734   6.858   9.513  0.7118  0.1946  0.2445
   72SLPC  H11X 6353   4.806   6.943   9.517  2.7203 -1.4807  2.2682
   72SLPC  H11Y 6354   4.631   6.897   9.496  0.3240 -0.5764  0.7830
   72SLPC  C312 6355   4.764   6.771   9.389 -0.4080  0.5800  0.6708
   72SLPC  H12X 6356   4.679   6.702   9.369  1.8348 -1.5296 -2.7640
   72SLPC  H12Y 6357   4.860   6.721   9.413  0.4038  1.5199 -0.4821
   72SLPC  C313 6358   4.788   6.856   9.266 -0.0821  0.1394 -0.4219
   72SLPC  H13X 6359   4.889   6.900   9.273 -0.6423  1.2287  1.3512
   72SLPC  H13Y 6360   4.708   6.934   9.262  1.2957  1.6645  0.8427
   72SLPC  C314 6361   4.772   6.780   9.128  0.3315 -0.9839  0.1438
   72SLPC  H14X 6362   4.766   6.854   9.045 -4.8018 -1.6378 -0.4334
   72SLPC  H14Y 6363   4.682   6.715   9.119  0.2990 -0.8657 -0.4234
   72SLPC  C315 6364   4.895   6.682   9.104  0.1822 -0.1024  0.2768
   72SLPC  H15X 6365   4.937   6.653   9.202  1.2027  0.5114  0.0347
   72SLPC  H15Y 6366   4.964   6.737   9.035  1.0556 -0.2878  0.9837
   72SLPC  C316 6367   4.853   6.555   9.024 -0.1610 -0.5841 -0.0278
   72SLPC  H16X 6368   4.780   6.501   9.088 -2.5720  0.1175 -2.0467
   72SLPC  H16Y 6369   4.939   6.488   9.000 -1.8641 -2.8849 -0.0314
   72SLPC  C317 6370   4.791   6.593   8.886 -0.5818  0.4249  0.2169
   72SLPC  H17X 6371   4.860   6.673   8.849  0.6286 -0.0730  1.3257
   72SLPC  H17Y 6372   4.689   6.636   8.897 -0.0867  1.1861  2.1686
   72SLPC  C318 6373   4.793   6.475   8.788 -0.3728  0.2867 -0.3007
   72SLPC  H18X 6374   4.894   6.443   8.755 -0.8704 -2.7632  0.7699
   72SLPC  H18Y 6375   4.735   6.493   8.695 -2.0420 -3.0376 -0.0554
   72SLPC  H18Z 6376   4.747   6.384   8.832  2.6549 -1.4630 -0.5272
   73SLPC     N 6377   6.661   0.066  11.306 -0.0167  0.1611 -0.6853
   73SLPC   C13 6378   6.601  -0.071  11.304  0.3895  0.1073 -0.3123
   73SLPC  H13A 6379   6.518  -0.084  11.236  1.2000  0.9505 -1.5009
   73SLPC  H13B 6380   6.672  -0.151  11.289  0.8306  0.1536  1.3000
   73SLPC  H13C 6381   6.569  -0.100  11.403  2.6833 -2.5599 -0.2407
   73SLPC   C14 6382   6.802   0.056  11.362 -0.2442 -0.0733 -0.2894
   73SLPC  H14A 6383   6.798   0.022  11.465  1.5255  3.5709  1.1885
   73SLPC  H14B 6384   6.856  -0.017  11.304 -0.7338 -1.2989  0.7555
   73SLPC  H14C 6385   6.845   0.153  11.382  0.7184 -0.7806  1.2446
   73SLPC   C15 6386   6.574   0.156  11.389 -0.5472  0.4362  0.5988
   73SLPC  H15A 6387   6.552   0.112  11.485 -1.2047  2.1772  1.2875
   73SLPC  H15B 6388   6.623   0.253  11.391 -0.1132  0.4138 -3.0360
   73SLPC  H15C 6389   6.481   0.171  11.335  0.3469 -0.6991 -1.3669
   73SLPC   C12 6390   6.676   0.125  11.169  0.0644  0.0640  0.5619
   73SLPC  H12A 6391   6.703   0.229  11.187  0.0740 -0.3679  3.4165
   73SLPC  H12B 6392   6.583   0.122  11.114  0.2989  2.7674 -0.1347
   73SLPC   C11 6393   6.784   0.073  11.068 -0.2934  0.4435 -0.6138
   73SLPC  H11A 6394   6.884   0.088  11.113 -0.4429  1.3499 -0.5632
   73SLPC  H11B 6395   6.772   0.141  10.981  2.2722  1.2979 -0.3752
   73SLPC     P 6396   6.636  -0.099  10.933 -0.1884  0.5773  0.1656
   73SLPC   O13 6397   6.656  -0.241  10.887  0.7308 -0.1187 -0.6552
   73SLPC   O14 6398   6.504  -0.060  10.996 -0.9051  0.1619  0.3752
   73SLPC   O12 6399   6.755  -0.060  11.028  0.2919  0.2910 -0.3105
   73SLPC   O11 6400   6.660  -0.008  10.809 -0.6502 -0.1802 -0.1988
   73SLPC    C1 6401   6.775  -0.037  10.721 -0.1502  0.1103 -0.0854
   73SLPC    HA 6402   6.832   0.059  10.715  0.7181 -0.4640 -1.6454
   73SLPC    HB 6403   6.855  -0.097  10.770  0.8636  1.1530 -0.4023
   73SLPC    C2 6404   6.730  -0.077  10.579  0.1580  0.0208 -0.4726
   73SLPC    HS 6405   6.823  -0.079  10.518 -0.3923 -1.4790 -1.3131
   73SLPC   O21 6406   6.623   0.008  10.526 -0.0991  0.0488 -0.2526
   73SLPC   C21 6407   6.662   0.128  10.503  0.2441  0.1131 -0.2277
   73SLPC   O22 6408   6.778   0.172  10.507 -1.0652  0.1317 -0.0085
   73SLPC   C22 6409   6.546   0.196  10.432 -0.2156 -0.0839 -0.2994
   73SLPC   H2R 6410   6.478   0.129  10.375 -0.5872  1.3148 -1.5686
   73SLPC   H2S 6411   6.479   0.231  10.513 -0.5108  0.4369 -0.7594
   73SLPC    C3 6412   6.675  -0.228  10.578 -0.2099 -0.4534  0.2215
   73SLPC    HX 6413   6.572  -0.225  10.619 -0.3998 -2.5175 -0.0334
   73SLPC    HY 6414   6.740  -0.290  10.643  1.1822  2.0310  1.3542
   73SLPC   O31 6415   6.672  -0.282  10.438 -0.6811  0.3515 -0.5489
   73SLPC   C31 6416   6.789  -0.320  10.391 -0.2900  0.2922  0.7658
   73SLPC   O32 6417   6.896  -0.312  10.454  0.8408 -0.1572 -0.1725
   73SLPC   C32 6418   6.783  -0.359  10.245 -0.2162  0.0079  0.4744
   73SLPC   H2X 6419   6.761  -0.261  10.198  2.7501  0.3464 -0.4022
   73SLPC   H2Y 6420   6.706  -0.436  10.221 -0.7252 -0.0596  2.2011
   73SLPC   C23 6421   6.581   0.303  10.331 -1.0132 -0.6111 -0.2562
   73SLPC   H3R 6422   6.672   0.360  10.359 -0.2138 -1.7787 -0.4181
   73SLPC   H3S 6423   6.511   0.388  10.348  0.9038  1.0088 -0.0216
   73SLPC   C24 6424   6.583   0.255  10.192 -0.2087  0.5845 -0.4856
   73SLPC   H4R 6425   6.481   0.274  10.151 -1.2537  0.0829  1.7056
   73SLPC   H4S 6426   6.597   0.146  10.202  1.0499  0.7942  0.1891
   73SLPC   C25 6427   6.687   0.324  10.110  0.1965 -0.4450 -0.1125
   73SLPC   H5R 6428   6.787   0.322  10.158  0.4254 -1.2259 -0.6195
   73SLPC   H5S 6429   6.663   0.433  10.105  3.8635  0.6549  2.1064
   73SLPC   C26 6430   6.703   0.262   9.969  0.1351  0.2756  0.1710
   73SLPC   H6R 6431   6.601   0.252   9.925  1.0773 -1.8445 -1.7466
   73SLPC   H6S 6432   6.750   0.162   9.982 -0.7213 -0.4880 -2.0424
   73SLPC   C27 6433   6.802   0.335   9.888 -0.3600  0.0129  0.8047
   73SLPC   H7R 6434   6.900   0.353   9.937 -0.0514  1.3766 -0.2706
   73SLPC   H7S 6435   6.771   0.441   9.875 -0.7963 -0.1708  0.3366
   73SLPC   C28 6436   6.818   0.264   9.759 -0.7566  0.3360 -0.0334
   73SLPC   H8R 6437   6.828   0.156   9.784  0.0680  0.3565 -0.2677
   73SLPC   H8S 6438   6.914   0.278   9.704 -0.5335 -1.9559 -0.3219
   73SLPC   C29 6439   6.705   0.298   9.670  0.0181  0.7749 -0.0380
   73SLPC   H9R 6440   6.643   0.387   9.688  1.4058  1.4597  1.6383
   73SLPC  C210 6441   6.692   0.230   9.552 -0.3661 -0.2890  0.0710
   73SLPC  H10R 6442   6.601   0.250   9.494 -0.4667 -2.6438 -0.6882
   73SLPC  C211 6443   6.763   0.117   9.484 -0.3084 -0.3538  0.2307
   73SLPC  H11R 6444   6.691   0.049   9.434 -0.7362 -1.6273  2.4243
   73SLPC  H11S 6445   6.801   0.040   9.555  0.9196 -0.0892 -0.1212
   73SLPC  C212 6446   6.874   0.163   9.394 -0.2028  0.8515 -0.4991
   73SLPC  H12R 6447   6.959   0.193   9.458 -1.3781  2.5582  0.3463
   73SLPC  C213 6448   6.878   0.166   9.262 -0.7648 -0.0664  0.3942
   73SLPC  H13R 6449   6.967   0.201   9.207 -0.8182 -1.5525 -0.6958
   73SLPC  C214 6450   6.766   0.131   9.163 -0.2989 -0.0396  0.1335
   73SLPC  H14R 6451   6.662   0.128   9.200 -0.0178  1.1955  1.1002
   73SLPC  H14S 6452   6.776   0.034   9.109 -1.3812  0.3252 -0.7470
   73SLPC  C215 6453   6.751   0.241   9.055 -0.2219 -0.1460  0.1059
   73SLPC  H15R 6454   6.846   0.253   9.000 -0.9347  1.2735 -0.8629
   73SLPC  H15S 6455   6.738   0.344   9.094  0.1816  1.1492 -2.9530
   73SLPC  C216 6456   6.633   0.196   8.964  0.3748 -0.0876  0.4447
   73SLPC  H16R 6457   6.531   0.210   9.005 -0.4631 -2.5114 -0.5897
   73SLPC  H16S 6458   6.646   0.087   8.947  1.6834 -0.1717  1.7781
   73SLPC  C217 6459   6.650   0.271   8.824  0.3839 -0.3320 -0.0947
   73SLPC  H17R 6460   6.748   0.320   8.841  0.3406 -0.6236  1.0137
   73SLPC  H17S 6461   6.570   0.348   8.818 -0.5612 -1.2593  0.2772
   73SLPC  C218 6462   6.643   0.175   8.697  0.2698 -0.5494 -1.0445
   73SLPC  H18R 6463   6.740   0.123   8.678  1.2404 -0.4735  2.8388
   73SLPC  H18S 6464   6.610   0.232   8.607  0.0017  2.3795  0.7921
   73SLPC  H18T 6465   6.574   0.092   8.719 -0.8008  0.5106 -0.2678
   73SLPC   C33 6466   6.919  -0.415  10.204 -0.7186  0.7016  0.0437
   73SLPC   H3X 6467   6.942  -0.497  10.275 -3.6428  0.7210  1.1795
   73SLPC   H3Y 6468   6.995  -0.335  10.208  0.0768 -0.0339 -0.1623
   73SLPC   C34 6469   6.915  -0.477  10.071  0.2401  0.2400  0.4797
   73SLPC   H4X 6470   6.814  -0.525  10.069 -0.6542  1.8055  2.8661
   73SLPC   H4Y 6471   7.002  -0.545  10.062 -0.3480 -0.6848  1.4739
   73SLPC   C35 6472   6.912  -0.377   9.961  0.6530  0.0752 -0.0410
   73SLPC   H5X 6473   7.010  -0.331   9.938  0.0515  0.3129 -2.4352
   73SLPC   H5Y 6474   6.836  -0.296   9.965 -0.4874 -0.9116 -0.6818
   73SLPC   C36 6475   6.880  -0.454   9.828 -0.2829 -0.4920  0.4153
   73SLPC   H6X 6476   6.773  -0.484   9.827 -0.8282  1.2699  1.4045
   73SLPC   H6Y 6477   6.937  -0.548   9.814  1.4493  0.8459 -2.6241
   73SLPC   C37 6478   6.911  -0.379   9.693  0.4106 -0.1825  0.0837
   73SLPC   H7X 6479   7.020  -0.371   9.677  0.0434  2.2344 -1.7918
   73SLPC   H7Y 6480   6.880  -0.274   9.712 -0.1954 -0.5005  0.9328
   73SLPC   C38 6481   6.834  -0.418   9.571 -0.2579 -0.8139  0.3088
   73SLPC   H8X 6482   6.855  -0.335   9.500 -2.4426 -2.0245 -1.9228
   73SLPC   H8Y 6483   6.725  -0.435   9.580 -0.3083 -1.3467 -0.9846
   73SLPC   C39 6484   6.878  -0.560   9.525 -0.4184 -0.2831  0.0042
   73SLPC   H9X 6485   6.865  -0.631   9.609 -4.7453 -0.5447 -0.6889
   73SLPC   H9Y 6486   6.985  -0.550   9.496 -1.2386 -0.5580 -3.4829
   73SLPC  C310 6487   6.801  -0.607   9.402 -0.4387 -0.2169  0.2324
   73SLPC  H10X 6488   6.808  -0.525   9.327 -0.0177 -0.1581  0.3332
   73SLPC  H10Y 6489   6.694  -0.608   9.433 -0.8150 -0.8937 -1.0168
   73SLPC  C311 6490   6.848  -0.742   9.345 -0.4010  0.3830  0.2922
   73SLPC  H11X 6491   6.771  -0.822   9.356 -0.6141  0.7109  1.3863
   73SLPC  H11Y 6492   6.926  -0.780   9.415 -1.9908  0.4451  2.1846
   73SLPC  C312 6493   6.913  -0.748   9.205 -0.7587 -0.5000 -0.2734
   73SLPC  H12X 6494   6.954  -0.850   9.193  0.3312  0.0496 -1.5627
   73SLPC  H12Y 6495   6.995  -0.675   9.186  0.0120 -1.3915 -0.4381
   73SLPC  C313 6496   6.801  -0.731   9.097  0.7043 -0.4784  0.0334
   73SLPC  H13X 6497   6.751  -0.633   9.110 -0.3080 -1.0936  0.8917
   73SLPC  H13Y 6498   6.722  -0.802   9.131 -0.6867  2.5609  3.8659
   73SLPC  C314 6499   6.847  -0.755   8.953 -0.2049 -0.7035  0.5191
   73SLPC  H14X 6500   6.903  -0.848   8.931  0.4742 -0.3869  0.8799
   73SLPC  H14Y 6501   6.929  -0.683   8.932  0.8285 -1.3351  2.1781
   73SLPC  C315 6502   6.729  -0.758   8.859 -0.4570 -0.0942 -0.0146
   73SLPC  H15X 6503   6.669  -0.665   8.871  0.5132  0.4125  1.0218
   73SLPC  H15Y 6504   6.660  -0.840   8.891 -0.1651 -0.5951 -0.6447
   73SLPC  C316 6505   6.744  -0.775   8.705 -0.0405 -0.1236 -0.3036
   73SLPC  H16X 6506   6.782  -0.880   8.706 -1.9714 -0.8951 -1.6202
   73SLPC  H16Y 6507   6.821  -0.704   8.666  1.3229 -0.1470  2.1344
   73SLPC  C317 6508   6.617  -0.776   8.621  0.0974  0.6542 -0.4229
   73SLPC  H17X 6509   6.547  -0.837   8.681  1.7854  1.0966  2.1228
   73SLPC  H17Y 6510   6.627  -0.827   8.522 -1.6241 -2.2151  0.7547
   73SLPC  C318 6511   6.563  -0.636   8.622 -0.1461  0.6446 -0.2079
   73SLPC  H18X 6512   6.491  -0.627   8.538 -0.7925  2.2913  0.4745
   73SLPC  H18Y 6513   6.633  -0.551   8.607  0.4246  0.0696 -0.9132
   73SLPC  H18Z 6514   6.497  -0.628   8.711 -1.7111 -1.1822 -1.1283
   74SLPC     N 6515   1.366   5.969  11.024  0.4877  0.6405  0.3744
   74SLPC   C13 6516   1.357   6.068  11.135 -0.1621 -0.8196  0.0018
   74SLPC  H13A 6517   1.453   6.111  11.163 -1.0005 -1.0528  3.8364
   74SLPC  H13B 6518   1.297   6.147  11.094 -0.2809 -0.8268  0.1611
   74SLPC  H13C 6519   1.324   6.025  11.229  0.9943 -0.7304  0.4721
   74SLPC   C14 6520   1.227   5.910  11.001 -0.4188 -0.3616  0.2325
   74SLPC  H14A 6521   1.148   5.981  10.980 -0.0893  0.3539  1.3391
   74SLPC  H14B 6522   1.231   5.830  10.929 -0.2918 -0.0075 -0.1584
   74SLPC  H14C 6523   1.198   5.856  11.090  0.3039  0.2236  0.8318
   74SLPC   C15 6524   1.458   5.856  11.076  0.3207 -0.1289  0.9193
   74SLPC  H15A 6525   1.477   5.784  10.998 -1.8898  0.4234 -0.2169
   74SLPC  H15B 6526   1.543   5.913  11.113 -0.7470  2.1434  0.0430
   74SLPC  H15C 6527   1.411   5.816  11.165 -0.0178  2.2598  1.8869
   74SLPC   C12 6528   1.417   6.030  10.898  0.3150  0.1692 -0.1677
   74SLPC  H12A 6529   1.357   6.111  10.859 -0.5196 -0.1457  0.4246
   74SLPC  H12B 6530   1.400   5.959  10.818 -0.8847 -1.4409  1.4280
   74SLPC   C11 6531   1.570   6.082  10.889  0.8347  0.3305  0.1732
   74SLPC  H11A 6532   1.583   6.143  10.981  3.9007  0.2039 -0.0768
   74SLPC  H11B 6533   1.563   6.146  10.799 -1.9200  4.4167  2.9767
   74SLPC     P 6534   1.673   5.876  10.776 -0.2588 -0.7040 -0.4672
   74SLPC   O13 6535   1.795   5.906  10.703 -0.1268 -0.5831 -0.3231
   74SLPC   O14 6536   1.665   5.743  10.840  0.5681 -0.5210  0.3252
   74SLPC   O12 6537   1.671   5.981  10.896  0.0337  0.0334 -0.4473
   74SLPC   O11 6538   1.539   5.904  10.696  0.2894  0.0380  0.0030
   74SLPC    C1 6539   1.457   5.802  10.642  0.0452 -0.6201  0.7188
   74SLPC    HA 6540   1.451   5.708  10.701 -2.3278 -0.9529  0.0416
   74SLPC    HB 6541   1.351   5.832  10.630  0.1130 -0.1602  1.2167
   74SLPC    C2 6542   1.519   5.756  10.502  0.0117  1.1972 -0.1266
   74SLPC    HS 6543   1.630   5.750  10.500  0.0192  0.9972  0.7944
   74SLPC   O21 6544   1.471   5.837  10.401  0.5098 -0.1666 -0.4340
   74SLPC   C21 6545   1.547   5.884  10.305  0.2256  0.3537 -0.3909
   74SLPC   O22 6546   1.665   5.851  10.295  0.5651 -0.4034  0.0125
   74SLPC   C22 6547   1.458   5.953  10.192  0.3274  0.2330  0.6635
   74SLPC   H2R 6548   1.405   5.869  10.141  2.4712  0.4405 -2.1554
   74SLPC   H2S 6549   1.384   6.024  10.234  1.4568  1.8537 -0.0055
   74SLPC    C3 6550   1.471   5.611  10.475 -0.3334 -0.0440 -0.0086
   74SLPC    HX 6551   1.361   5.603  10.488 -0.8468  3.5856 -1.2085
   74SLPC    HY 6552   1.519   5.543  10.549 -0.3349 -0.5513 -0.4666
   74SLPC   O31 6553   1.524   5.575  10.346  0.5824  0.6393 -0.4021
   74SLPC   C31 6554   1.427   5.541  10.258 -0.0985 -0.4087 -0.1773
   74SLPC   O32 6555   1.308   5.566  10.264  0.4593  0.5470 -0.4040
   74SLPC   C32 6556   1.492   5.474  10.130  0.6768 -0.3281 -0.0768
   74SLPC   H2X 6557   1.434   5.379  10.122 -0.7579  0.6977 -3.5333
   74SLPC   H2Y 6558   1.598   5.452  10.155  0.7502  2.2073  2.2770
   74SLPC   C23 6559   1.544   6.029  10.087  0.0453 -0.0878  0.0084
   74SLPC   H3R 6560   1.470   6.068  10.014  0.9427  1.5193 -0.0685
   74SLPC   H3S 6561   1.606   5.951  10.038  1.6954  0.8209  0.6154
   74SLPC   C24 6562   1.629   6.133  10.145 -0.3769  0.2169 -0.2632
   74SLPC   H4R 6563   1.709   6.089  10.209 -1.0626 -3.6662 -1.8292
   74SLPC   H4S 6564   1.573   6.207  10.207 -0.7602  0.8994 -1.3968
   74SLPC   C25 6565   1.709   6.222  10.044 -0.3397  0.4715  0.0598
   74SLPC   H5R 6566   1.632   6.276   9.985 -0.8597  2.0110  2.0385
   74SLPC   H5S 6567   1.772   6.161   9.976 -0.4528  0.2996  0.1078
   74SLPC   C26 6568   1.789   6.326  10.115  0.3182 -0.3998 -0.6516
   74SLPC   H6R 6569   1.861   6.270  10.178 -0.7005 -2.5012 -1.2542
   74SLPC   H6S 6570   1.720   6.387  10.177  0.4445 -2.2121  1.3927
   74SLPC   C27 6571   1.878   6.415  10.021  0.7939 -0.4125 -0.1561
   74SLPC   H7R 6572   1.955   6.356   9.969  1.0733 -0.2995  0.1278
   74SLPC   H7S 6573   1.931   6.485  10.089 -2.0483  0.3675  1.4615
   74SLPC   C28 6574   1.800   6.493   9.908  0.1069  0.9620  0.4332
   74SLPC   H8R 6575   1.709   6.553   9.930 -0.4990  0.6176 -1.0200
   74SLPC   H8S 6576   1.764   6.420   9.832  1.7388  0.0154  0.5184
   74SLPC   C29 6577   1.894   6.589   9.837  0.3291  0.7626  0.0408
   74SLPC   H9R 6578   1.978   6.630   9.895  0.4351  1.1147 -0.3556
   74SLPC  C210 6579   1.890   6.615   9.704  0.2590  0.1044  0.7561
   74SLPC  H10R 6580   1.957   6.694   9.669  0.1424 -0.3683 -0.5822
   74SLPC  C211 6581   1.777   6.561   9.608 -0.1026  0.1614 -0.0341
   74SLPC  H11R 6582   1.737   6.646   9.548 -1.8041 -0.0964  0.6854
   74SLPC  H11S 6583   1.683   6.521   9.651 -0.0436 -0.8822 -0.8455
   74SLPC  C212 6584   1.816   6.447   9.512 -0.1923  0.0462 -0.0381
   74SLPC  H12R 6585   1.893   6.373   9.540 -0.6530  0.1687  1.6860
   74SLPC  C213 6586   1.787   6.427   9.380  0.2302 -0.4917 -0.5418
   74SLPC  H13R 6587   1.822   6.329   9.344  0.5572 -0.0579 -1.4265
   74SLPC  C214 6588   1.697   6.525   9.298  0.6022 -0.1171  0.0238
   74SLPC  H14R 6589   1.659   6.613   9.355  0.5710 -0.8119  1.1267
   74SLPC  H14S 6590   1.607   6.460   9.291 -0.2526  1.1833 -1.7770
   74SLPC  C215 6591   1.758   6.572   9.170  0.2005 -0.7279  0.3008
   74SLPC  H15R 6592   1.695   6.648   9.120  1.0306  0.8608  1.5740
   74SLPC  H15S 6593   1.777   6.493   9.094 -0.9304  0.2477 -1.0473
   74SLPC  C216 6594   1.880   6.660   9.190 -0.2577 -0.2256  0.1509
   74SLPC  H16R 6595   1.955   6.594   9.239 -1.2637 -1.4721  0.0532
   74SLPC  H16S 6596   1.854   6.735   9.268 -2.0490  0.7268 -1.2883
   74SLPC  C217 6597   1.945   6.734   9.074 -0.6684  0.2002  0.0225
   74SLPC  H17R 6598   1.971   6.678   8.982  1.6115  1.0524  0.1070
   74SLPC  H17S 6599   2.039   6.774   9.118  0.4092 -0.6566 -1.4270
   74SLPC  C218 6600   1.855   6.852   9.032 -0.0084 -0.2950 -0.6820
   74SLPC  H18R 6601   1.914   6.924   8.971  1.6205 -0.6946  0.3536
   74SLPC  H18S 6602   1.822   6.903   9.125  3.1030 -0.7583  0.8296
   74SLPC  H18T 6603   1.774   6.818   8.965 -0.2795 -0.2715 -0.3660
   74SLPC   C33 6604   1.470   5.558  10.001  0.1868  0.4942 -0.3815
   74SLPC   H3X 6605   1.378   5.617  10.020  0.5043  1.6037 -2.0562
   74SLPC   H3Y 6606   1.440   5.472   9.937 -0.7711  0.0133  0.6752
   74SLPC   C34 6607   1.583   5.629   9.936 -0.1459 -0.3774 -0.6071
   74SLPC   H4X 6608   1.665   5.567   9.894  0.7936 -0.7458  1.6667
   74SLPC   H4Y 6609   1.608   5.706  10.011 -1.1848 -0.0355 -0.6023
   74SLPC   C35 6610   1.524   5.711   9.824 -0.0995 -0.3721 -0.4260
   74SLPC   H5X 6611   1.442   5.783   9.844  2.1157  2.5414 -1.2038
   74SLPC   H5Y 6612   1.496   5.637   9.746  2.5070 -0.4836 -1.3679
   74SLPC   C36 6613   1.636   5.793   9.761 -0.6758 -0.3642 -0.4786
   74SLPC   H6X 6614   1.713   5.719   9.731 -1.8698 -1.8527  0.0131
   74SLPC   H6Y 6615   1.679   5.868   9.831  4.0406 -2.7144 -0.4178
   74SLPC   C37 6616   1.599   5.862   9.629  0.2857 -0.1000 -0.7317
   74SLPC   H7X 6617   1.673   5.942   9.606  1.0569 -0.6071 -0.0636
   74SLPC   H7Y 6618   1.508   5.923   9.644  0.2694 -0.6611  1.9544
   74SLPC   C38 6619   1.580   5.778   9.504 -0.2501 -0.4806  0.0105
   74SLPC   H8X 6620   1.490   5.716   9.521 -1.7977  1.3257 -1.2437
   74SLPC   H8Y 6621   1.652   5.695   9.482 -1.3170 -2.0079  1.8753
   74SLPC   C39 6622   1.546   5.869   9.393  0.9188 -0.0570  0.2973
   74SLPC   H9X 6623   1.461   5.939   9.411  0.5306  0.5632 -3.2466
   74SLPC   H9Y 6624   1.512   5.794   9.319  0.2649 -0.9739  1.4943
   74SLPC  C310 6625   1.662   5.947   9.338 -0.0885 -0.0217 -0.0508
   74SLPC  H10X 6626   1.727   5.870   9.292 -0.4959  0.1557 -0.9500
   74SLPC  H10Y 6627   1.725   5.992   9.418 -1.0608  1.2150  0.0507
   74SLPC  C311 6628   1.624   6.053   9.230  0.3768  0.1724 -0.1335
   74SLPC  H11X 6629   1.586   6.139   9.289  1.1812 -0.1329  0.8612
   74SLPC  H11Y 6630   1.539   6.015   9.169 -0.7137 -1.5955  2.2997
   74SLPC  C312 6631   1.752   6.101   9.160  0.0139 -0.4248  0.5281
   74SLPC  H12X 6632   1.795   6.017   9.102 -0.4216 -1.2374  1.3487
   74SLPC  H12Y 6633   1.829   6.139   9.230  1.6753  2.1550 -2.4361
   74SLPC  C313 6634   1.741   6.218   9.061  0.4046 -0.1768 -0.9350
   74SLPC  H13X 6635   1.730   6.305   9.130  2.6186 -0.1699 -0.5146
   74SLPC  H13Y 6636   1.659   6.206   8.987  1.3411 -0.5071 -1.9348
   74SLPC  C314 6637   1.876   6.258   8.995  0.5437 -0.2031  0.4563
   74SLPC  H14X 6638   1.945   6.278   9.079  0.0310 -0.1081  0.8561
   74SLPC  H14Y 6639   1.858   6.356   8.946 -3.2843  0.3869  2.7031
   74SLPC  C315 6640   1.934   6.152   8.890 -0.6189  0.6890 -0.1655
   74SLPC  H15X 6641   1.872   6.162   8.799 -0.3576  1.3017 -0.2792
   74SLPC  H15Y 6642   1.908   6.048   8.921 -0.0011  0.1857 -1.2733
   74SLPC  C316 6643   2.081   6.183   8.856 -0.5500 -0.1332 -0.3237
   74SLPC  H16X 6644   2.139   6.201   8.949 -0.8477 -0.8211  0.0058
   74SLPC  H16Y 6645   2.072   6.275   8.794  1.8496  1.0137  0.8985
   74SLPC  C317 6646   2.153   6.068   8.776  0.2399 -0.4003  0.1025
   74SLPC  H17X 6647   2.157   5.981   8.844 -0.3179 -0.3367  0.2250
   74SLPC  H17Y 6648   2.258   6.090   8.746  0.2432 -1.1081 -0.4214
   74SLPC  C318 6649   2.073   6.019   8.659  0.2833 -0.3437 -0.3191
   74SLPC  H18X 6650   2.132   5.933   8.622  3.9600  2.3069 -1.1686
   74SLPC  H18Y 6651   2.086   6.098   8.582  1.2773  0.0419  0.2124
   74SLPC  H18Z 6652   1.967   5.999   8.685 -0.2140  1.0397 -1.1842
   75SLPC     N 6653   6.222   2.568   6.095  0.2925  0.2646 -0.1025
   75SLPC   C13 6654   6.184   2.698   6.040 -0.2487 -0.5548 -0.6077
   75SLPC  H13A 6655   6.109   2.737   6.106  0.4985 -2.0989  1.2604
   75SLPC  H13B 6656   6.267   2.764   6.057  0.9551 -1.8392 -1.2661
   75SLPC  H13C 6657   6.149   2.699   5.938 -0.3643 -1.6508 -0.5923
   75SLPC   C14 6658   6.273   2.594   6.229 -0.0641  0.3067  0.1405
   75SLPC  H14A 6659   6.323   2.515   6.283 -0.2437 -1.2135 -1.8456
   75SLPC  H14B 6660   6.340   2.679   6.226 -0.4067  0.5366 -1.4170
   75SLPC  H14C 6661   6.193   2.624   6.295  0.4121 -0.3248  1.0391
   75SLPC   C15 6662   6.337   2.526   6.015 -0.4757 -0.1849  0.3178
   75SLPC  H15A 6663   6.368   2.429   6.052 -1.0241 -0.9129 -1.0856
   75SLPC  H15B 6664   6.304   2.506   5.914 -1.1391  0.2242  0.4434
   75SLPC  H15C 6665   6.413   2.601   6.029 -0.8752  0.4605 -0.8466
   75SLPC   C12 6666   6.112   2.469   6.098  0.2702  0.3945 -0.1946
   75SLPC  H12A 6667   6.164   2.376   6.117 -0.9793 -0.1128  0.8579
   75SLPC  H12B 6668   6.070   2.447   6.001 -0.3115 -1.0699  0.3534
   75SLPC   C11 6669   5.987   2.495   6.187 -0.4641 -0.1300 -0.7038
   75SLPC  H11A 6670   5.906   2.421   6.169 -0.1212 -0.7822  0.3064
   75SLPC  H11B 6671   5.943   2.590   6.150 -0.4030 -0.4723 -1.7063
   75SLPC     P 6672   5.907   2.550   6.427  0.1479  0.0946  0.2975
   75SLPC   O13 6673   5.774   2.573   6.364 -0.4918  0.1233  0.2343
   75SLPC   O14 6674   5.907   2.457   6.544 -0.2587 -0.1624 -0.0410
   75SLPC   O12 6675   6.021   2.498   6.329  0.5386 -0.2816  0.5383
   75SLPC   O11 6676   5.969   2.688   6.476  0.8833  0.1863 -0.0631
   75SLPC    C1 6677   6.079   2.682   6.565 -0.7036  0.4690 -0.0765
   75SLPC    HA 6678   6.107   2.582   6.605 -1.5494 -0.1087 -0.9014
   75SLPC    HB 6679   6.160   2.709   6.494 -0.6550 -4.1303 -2.0882
   75SLPC    C2 6680   6.070   2.774   6.695  0.6854 -0.1323  0.5190
   75SLPC    HS 6681   6.172   2.798   6.734  0.3790  3.3374 -0.4678
   75SLPC   O21 6682   5.981   2.718   6.801 -0.4307  0.0291  0.2083
   75SLPC   C21 6683   6.039   2.612   6.867 -0.3058  0.6788  0.1386
   75SLPC   O22 6684   6.156   2.574   6.853 -0.1104 -0.9542  0.2513
   75SLPC   C22 6685   5.936   2.548   6.957 -0.5768  0.9104 -0.6453
   75SLPC   H2R 6686   5.878   2.635   6.995 -1.2252 -0.3820  1.4543
   75SLPC   H2S 6687   5.881   2.479   6.890 -0.1235  0.3408 -0.4422
   75SLPC    C3 6688   5.998   2.910   6.661 -0.4634  0.4006  0.7644
   75SLPC    HX 6689   5.892   2.881   6.642  0.3539 -1.5170 -1.4570
   75SLPC    HY 6690   6.049   2.939   6.566 -1.3088  0.7889  0.4127
   75SLPC   O31 6691   6.017   3.009   6.764  0.0871 -1.0459  0.0158
   75SLPC   C31 6692   5.962   3.129   6.740 -0.0658  0.4224 -0.0692
   75SLPC   O32 6693   5.906   3.154   6.635  0.2587  0.4154 -0.1213
   75SLPC   C32 6694   5.988   3.216   6.848  0.0811 -0.6668 -0.1818
   75SLPC   H2X 6695   5.985   3.322   6.813  1.2295 -0.9595 -1.1947
   75SLPC   H2Y 6696   6.090   3.200   6.889 -0.1862 -0.6614  0.5118
   75SLPC   C23 6697   6.004   2.476   7.077 -0.3830  0.3061 -0.3760
   75SLPC   H3R 6698   6.075   2.396   7.046  0.0800 -0.1327  1.6502
   75SLPC   H3S 6699   5.929   2.422   7.139 -0.3849  1.7392  0.9165
   75SLPC   C24 6700   6.082   2.576   7.170 -0.3081  0.8040  0.5505
   75SLPC   H4R 6701   6.019   2.655   7.215 -0.8532 -0.7488  2.6576
   75SLPC   H4S 6702   6.152   2.634   7.106 -0.9157  0.4062 -0.4977
   75SLPC   C25 6703   6.153   2.502   7.281 -0.0139  0.5493  0.2488
   75SLPC   H5R 6704   6.224   2.426   7.242  0.2175  0.5936  0.5778
   75SLPC   H5S 6705   6.080   2.441   7.339  0.1316  1.5055  1.4941
   75SLPC   C26 6706   6.239   2.594   7.362 -0.1855  0.6271  0.8740
   75SLPC   H6R 6707   6.171   2.661   7.420 -1.2520 -0.8671  1.4110
   75SLPC   H6S 6708   6.300   2.658   7.295  0.7898  0.2545  1.3905
   75SLPC   C27 6709   6.334   2.528   7.462 -0.1964  1.0786 -0.7323
   75SLPC   H7R 6710   6.388   2.441   7.421 -2.8383  0.2800 -2.8285
   75SLPC   H7S 6711   6.264   2.481   7.534 -0.5366  2.2306 -0.2853
   75SLPC   C28 6712   6.430   2.630   7.534 -0.2152 -0.2914  0.1604
   75SLPC   H8R 6713   6.431   2.597   7.640  1.3174 -0.9886 -0.0436
   75SLPC   H8S 6714   6.385   2.731   7.542 -3.2198 -1.6543  2.1169
   75SLPC   C29 6715   6.571   2.632   7.475  0.3438  0.1110  0.8034
   75SLPC   H9R 6716   6.627   2.539   7.490 -0.8487 -0.6314  0.7452
   75SLPC  C210 6717   6.629   2.743   7.423  0.2326  0.3473  0.9799
   75SLPC  H10R 6718   6.731   2.729   7.384 -0.5942 -1.0753 -0.8676
   75SLPC  C211 6719   6.568   2.879   7.399  0.1164  1.2085 -0.8450
   75SLPC  H11R 6720   6.523   2.904   7.497 -1.7615 -0.8824 -1.1163
   75SLPC  H11S 6721   6.486   2.860   7.327  0.5334 -0.1958 -0.9659
   75SLPC  C212 6722   6.660   2.997   7.350 -0.2715  0.1781 -0.0479
   75SLPC  H12R 6723   6.739   2.976   7.277 -1.3214  0.2043 -1.2421
   75SLPC  C213 6724   6.660   3.119   7.403  0.0973  0.1649 -0.5765
   75SLPC  H13R 6725   6.738   3.194   7.382  1.3660 -1.7867 -3.4773
   75SLPC  C214 6726   6.566   3.159   7.508  0.0793  0.9010 -0.4451
   75SLPC  H14R 6727   6.463   3.133   7.473  0.7449 -0.2140 -1.6755
   75SLPC  H14S 6728   6.576   3.269   7.521 -0.8633  0.8738  0.6996
   75SLPC  C215 6729   6.600   3.112   7.646 -0.0529 -0.1517 -0.1794
   75SLPC  H15R 6730   6.681   3.176   7.687 -1.9035  1.3184  1.4082
   75SLPC  H15S 6731   6.612   3.002   7.652  2.8353  0.0489 -0.6743
   75SLPC  C216 6732   6.471   3.159   7.731  0.1620  0.6182  0.1355
   75SLPC  H16R 6733   6.387   3.098   7.691  0.8071 -0.1084 -0.1537
   75SLPC  H16S 6734   6.435   3.261   7.708 -0.1883  0.2261 -1.1369
   75SLPC  C217 6735   6.470   3.132   7.881  0.3357  0.3247  0.1095
   75SLPC  H17R 6736   6.379   3.179   7.925 -0.9336 -0.2194 -1.8488
   75SLPC  H17S 6737   6.550   3.198   7.922 -1.8564  2.6855  0.9289
   75SLPC  C218 6738   6.478   2.985   7.927 -0.0922 -0.0873 -0.3538
   75SLPC  H18R 6739   6.553   2.934   7.863 -0.3316 -0.6752 -0.1738
   75SLPC  H18S 6740   6.383   2.931   7.907  0.0825 -1.7567  2.6734
   75SLPC  H18T 6741   6.502   2.968   8.034 -0.1769 -2.4649 -0.6458
   75SLPC   C33 6742   5.877   3.211   6.964  0.2669 -0.5979  0.4028
   75SLPC   H3X 6743   5.782   3.252   6.924  1.2486 -1.9510 -3.7757
   75SLPC   H3Y 6744   5.862   3.109   7.005 -0.6760  0.3048  2.4344
   75SLPC   C34 6745   5.910   3.307   7.085  0.2634  0.2624  0.3778
   75SLPC   H4X 6746   5.945   3.406   7.048 -0.7964  0.2077 -0.8617
   75SLPC   H4Y 6747   5.989   3.255   7.143  0.2214 -2.9935 -2.2226
   75SLPC   C35 6748   5.794   3.322   7.186  0.3145 -0.5207  0.5369
   75SLPC   H5X 6749   5.765   3.220   7.219 -2.6310  0.9046  2.7320
   75SLPC   H5Y 6750   5.700   3.363   7.144  0.8131  0.9263  0.7851
   75SLPC   C36 6751   5.832   3.401   7.308  0.1553  0.2421 -0.2929
   75SLPC   H6X 6752   5.873   3.502   7.284  1.9128 -0.4660 -0.4289
   75SLPC   H6Y 6753   5.906   3.338   7.361  1.9494 -0.7777 -3.6988
   75SLPC   C37 6754   5.721   3.410   7.417  0.1211  0.4103 -0.6033
   75SLPC   H7X 6755   5.640   3.469   7.369  1.9163  3.1627 -0.5053
   75SLPC   H7Y 6756   5.760   3.482   7.493  0.4215  0.1035 -0.4695
   75SLPC   C38 6757   5.668   3.274   7.482  0.2496 -0.1318  0.0116
   75SLPC   H8X 6758   5.692   3.188   7.416  1.9628 -0.8178  1.4376
   75SLPC   H8Y 6759   5.557   3.281   7.481  0.2587  0.1913 -1.4422
   75SLPC   C39 6760   5.729   3.240   7.617  0.0136  0.0762  0.0825
   75SLPC   H9X 6761   5.840   3.236   7.615  0.0186  0.1860  0.0891
   75SLPC   H9Y 6762   5.696   3.139   7.649 -1.6549  1.0236  1.5582
   75SLPC  C310 6763   5.701   3.342   7.723 -0.4088 -0.2242 -1.0809
   75SLPC  H10X 6764   5.590   3.353   7.720 -0.3220  0.7462 -0.9905
   75SLPC  H10Y 6765   5.737   3.447   7.714  1.9594 -0.5307  2.6806
   75SLPC  C311 6766   5.742   3.296   7.864  0.2440  0.9124 -0.2777
   75SLPC  H11X 6767   5.843   3.250   7.860 -1.5043 -3.2470 -2.2613
   75SLPC  H11Y 6768   5.675   3.217   7.901 -0.4339  1.2883 -0.6759
   75SLPC  C312 6769   5.731   3.406   7.962 -0.1258  0.1035 -0.5666
   75SLPC  H12X 6770   5.645   3.472   7.936  0.8812  0.3841 -3.4389
   75SLPC  H12Y 6771   5.820   3.471   7.955 -0.3419  0.6832  1.3082
   75SLPC  C313 6772   5.710   3.377   8.108 -0.0401  0.2642  0.5545
   75SLPC  H13X 6773   5.793   3.314   8.144 -0.6131 -0.1082  1.2546
   75SLPC  H13Y 6774   5.610   3.329   8.119 -1.3998  2.3317 -1.6403
   75SLPC  C314 6775   5.698   3.508   8.191  0.1490 -0.5180  0.2619
   75SLPC  H14X 6776   5.611   3.559   8.145 -0.3759  0.6307  2.3943
   75SLPC  H14Y 6777   5.794   3.561   8.172  2.5983 -3.3594  3.3780
   75SLPC  C315 6778   5.661   3.484   8.336  0.2225 -0.7932  0.2078
   75SLPC  H15X 6779   5.755   3.444   8.379  0.1158 -0.2207  0.9869
   75SLPC  H15Y 6780   5.587   3.406   8.365 -0.8094 -0.0905 -0.4742
   75SLPC  C316 6781   5.617   3.621   8.406  0.2023  0.1057  0.7856
   75SLPC  H16X 6782   5.529   3.669   8.358  0.0064  0.2107  1.2382
   75SLPC  H16Y 6783   5.711   3.679   8.391  0.5910 -0.0519  2.4065
   75SLPC  C317 6784   5.603   3.608   8.555 -0.0460  0.1554 -0.4574
   75SLPC  H17X 6785   5.703   3.575   8.593 -0.9077  1.3679  3.2905
   75SLPC  H17Y 6786   5.526   3.534   8.584  0.6509 -0.7318 -0.8173
   75SLPC  C318 6787   5.565   3.741   8.629 -0.2451  0.2953  0.1405
   75SLPC  H18X 6788   5.567   3.737   8.740 -0.5114  3.6763  0.3691
   75SLPC  H18Y 6789   5.463   3.771   8.598 -0.0068  1.0634  0.0757
   75SLPC  H18Z 6790   5.633   3.824   8.599  1.4956 -1.2339 -0.3139
   76SLPC     N 6791   1.518   2.626   5.843  0.1516 -0.1772 -0.5553
   76SLPC   C13 6792   1.392   2.585   5.783  0.1041 -0.1842  0.1445
   76SLPC  H13A 6793   1.406   2.572   5.677 -1.3331  1.4877 -0.3031
   76SLPC  H13B 6794   1.362   2.489   5.823  1.1822 -1.7051 -2.4289
   76SLPC  H13C 6795   1.310   2.655   5.793 -0.4871 -0.4321 -2.3486
   76SLPC   C14 6796   1.561   2.759   5.781 -0.1812  0.3598  0.6043
   76SLPC  H14A 6797   1.662   2.792   5.804 -0.5669 -0.4348  3.9906
   76SLPC  H14B 6798   1.546   2.746   5.675 -1.9706  1.6781  0.6475
   76SLPC  H14C 6799   1.495   2.841   5.805 -0.2698  0.1317  1.1399
   76SLPC   C15 6800   1.621   2.522   5.798 -0.7123 -0.5213 -0.2818
   76SLPC  H15A 6801   1.630   2.520   5.690  0.8879 -0.0576 -0.1838
   76SLPC  H15B 6802   1.716   2.543   5.845 -1.3783  1.2681  0.3418
   76SLPC  H15C 6803   1.596   2.422   5.829  2.4225 -1.3290 -0.0275
   76SLPC   C12 6804   1.504   2.640   5.991 -0.3114 -0.1707 -0.5805
   76SLPC  H12A 6805   1.430   2.713   6.020  0.7187  1.0629 -0.9807
   76SLPC  H12B 6806   1.589   2.692   6.033  0.7749 -2.3252  0.0249
   76SLPC   C11 6807   1.485   2.510   6.077 -0.5805 -0.7366  0.4176
   76SLPC  H11A 6808   1.394   2.462   6.037 -0.1071 -0.4952 -1.0135
   76SLPC  H11B 6809   1.452   2.540   6.179  0.1226  0.5898  0.2797
   76SLPC     P 6810   1.735   2.449   6.143  0.0161 -0.3167 -0.0916
   76SLPC   O13 6811   1.828   2.339   6.115  0.2220 -0.4055  0.0930
   76SLPC   O14 6812   1.787   2.581   6.117  0.2899  0.6057  0.8524
   76SLPC   O12 6813   1.596   2.421   6.071 -0.3552 -0.4657 -0.0426
   76SLPC   O11 6814   1.705   2.433   6.296 -0.3824 -0.2594 -0.2250
   76SLPC    C1 6815   1.674   2.548   6.381  0.2674 -0.4493  0.1978
   76SLPC    HA 6816   1.746   2.632   6.374 -1.5836  1.1259 -0.8952
   76SLPC    HB 6817   1.574   2.591   6.361 -0.1922  0.3406  3.5785
   76SLPC    C2 6818   1.673   2.506   6.529  0.3824 -0.4963 -0.4852
   76SLPC    HS 6819   1.636   2.602   6.570  1.0155  0.4706 -2.0835
   76SLPC   O21 6820   1.802   2.468   6.597  0.6498  0.5919 -0.0034
   76SLPC   C21 6821   1.867   2.567   6.654  0.5917 -0.2426 -0.2523
   76SLPC   O22 6822   1.816   2.676   6.665 -0.4249 -0.1256  0.1306
   76SLPC   C22 6823   2.004   2.529   6.711  0.3179  0.1939  0.5159
   76SLPC   H2R 6824   2.020   2.419   6.717 -1.0627  0.0450  3.0421
   76SLPC   H2S 6825   2.082   2.576   6.647 -1.0171  0.2844 -1.0896
   76SLPC    C3 6826   1.582   2.382   6.548 -0.4530 -0.5952 -0.8222
   76SLPC    HX 6827   1.620   2.295   6.491 -0.9256 -0.6203 -1.1022
   76SLPC    HY 6828   1.480   2.401   6.508 -1.0756 -1.9619  0.0294
   76SLPC   O31 6829   1.567   2.358   6.690  0.6952 -0.1955 -0.8460
   76SLPC   C31 6830   1.608   2.237   6.735 -0.1002  0.0063  0.2655
   76SLPC   O32 6831   1.623   2.139   6.667  0.2379  0.0796 -0.0632
   76SLPC   C32 6832   1.636   2.235   6.883 -0.5392  0.0270 -0.4728
   76SLPC   H2X 6833   1.721   2.298   6.918  1.0166 -1.1452 -2.0289
   76SLPC   H2Y 6834   1.667   2.130   6.895  0.1975  0.1879 -0.9335
   76SLPC   C23 6835   2.028   2.582   6.850  0.2421  0.2879 -1.0612
   76SLPC   H3R 6836   2.018   2.692   6.864 -0.7695 -0.1017  2.1822
   76SLPC   H3S 6837   2.138   2.566   6.857 -0.0452 -3.4441 -2.9191
   76SLPC   C24 6838   1.956   2.516   6.969  0.5678  0.7635  0.7384
   76SLPC   H4R 6839   1.946   2.406   6.959  0.1571  0.9761 -2.6290
   76SLPC   H4S 6840   1.849   2.549   6.968  0.2036 -0.3796  0.1820
   76SLPC   C25 6841   2.025   2.567   7.096  0.3785  0.4112 -0.1789
   76SLPC   H5R 6842   2.047   2.676   7.094 -0.0288  0.5031 -2.4983
   76SLPC   H5S 6843   2.120   2.510   7.101 -1.3716 -2.7737 -0.7882
   76SLPC   C26 6844   1.957   2.531   7.224 -0.4961 -0.1529 -0.3949
   76SLPC   H6R 6845   1.926   2.424   7.226 -0.7888 -0.0692  1.5515
   76SLPC   H6S 6846   1.863   2.586   7.244  1.2843  3.1522 -0.4200
   76SLPC   C27 6847   2.036   2.567   7.354 -0.6039  0.0816  0.2432
   76SLPC   H7R 6848   1.963   2.564   7.438 -1.1394 -0.8787 -0.2373
   76SLPC   H7S 6849   2.072   2.670   7.331  2.2375 -0.7878  0.4182
   76SLPC   C28 6850   2.165   2.479   7.381  0.2831  0.0473  0.3084
   76SLPC   H8R 6851   2.236   2.489   7.296 -0.8075 -1.1957 -0.7945
   76SLPC   H8S 6852   2.226   2.511   7.468  1.6305 -1.2791 -0.1049
   76SLPC   C29 6853   2.131   2.326   7.386 -0.5880  0.3404  0.0074
   76SLPC   H9R 6854   2.101   2.280   7.290 -1.0622  0.8243 -0.0797
   76SLPC  C210 6855   2.099   2.255   7.493  0.4105  0.1007 -0.7167
   76SLPC  H10R 6856   2.068   2.150   7.485 -1.8073  0.7353 -1.2092
   76SLPC  C211 6857   2.094   2.316   7.636 -0.3230  0.5408 -0.5168
   76SLPC  H11R 6858   2.032   2.408   7.623 -2.3291 -0.5695  0.7096
   76SLPC  H11S 6859   2.193   2.355   7.668 -0.6567  1.3140 -0.3971
   76SLPC  C212 6860   2.032   2.230   7.744 -0.0644  0.1422  0.7589
   76SLPC  H12R 6861   2.063   2.125   7.751  0.7670  0.2479 -0.9444
   76SLPC  C213 6862   1.935   2.272   7.826  0.3789 -0.3870 -0.1146
   76SLPC  H13R 6863   1.892   2.206   7.902 -2.6181  0.7164 -0.6982
   76SLPC  C214 6864   1.866   2.409   7.831 -0.1343  0.3968 -0.1015
   76SLPC  H14R 6865   1.760   2.383   7.848  0.0752  0.7951  2.0120
   76SLPC  H14S 6866   1.863   2.470   7.738 -2.3741  0.5242  0.0150
   76SLPC  C215 6867   1.927   2.497   7.936 -0.1422 -0.1491 -0.8879
   76SLPC  H15R 6868   1.891   2.601   7.925 -0.8873 -0.6400 -4.1297
   76SLPC  H15S 6869   2.037   2.503   7.925  0.0742  2.8987  1.5267
   76SLPC  C216 6870   1.903   2.438   8.081  0.0043 -0.7526  0.0747
   76SLPC  H16R 6871   1.960   2.500   8.153  1.0289 -1.1583 -0.3624
   76SLPC  H16S 6872   1.938   2.333   8.084  3.7746  0.3918  2.0696
   76SLPC  C217 6873   1.758   2.430   8.126 -0.1188 -0.4314 -0.2884
   76SLPC  H17R 6874   1.692   2.383   8.050 -0.7628  0.6240 -0.4058
   76SLPC  H17S 6875   1.715   2.532   8.134  0.0080 -0.4979  2.3347
   76SLPC  C218 6876   1.741   2.357   8.254 -0.1023 -0.7037 -0.9164
   76SLPC  H18R 6877   1.806   2.397   8.335 -0.2962 -3.0661  0.4893
   76SLPC  H18S 6878   1.773   2.251   8.245  1.7999 -0.2169 -0.3841
   76SLPC  H18T 6879   1.638   2.357   8.296 -0.5895  1.3357 -1.9962
   76SLPC   C33 6880   1.518   2.265   6.979  0.2586  0.5226  0.6398
   76SLPC   H3X 6881   1.423   2.223   6.940  0.5423  0.9862 -0.5905
   76SLPC   H3Y 6882   1.503   2.375   6.982 -1.5339  0.4265 -1.8842
   76SLPC   C34 6883   1.556   2.217   7.118  0.0291 -0.2441  1.0463
   76SLPC   H4X 6884   1.638   2.278   7.160 -0.4752  1.0258  0.2478
   76SLPC   H4Y 6885   1.592   2.113   7.105 -0.2987 -0.1429 -1.1325
   76SLPC   C35 6886   1.438   2.220   7.216 -0.3826 -0.5986  0.0467
   76SLPC   H5X 6887   1.348   2.168   7.174 -0.0558 -0.5549 -0.7242
   76SLPC   H5Y 6888   1.412   2.325   7.241 -2.9734 -1.1964  0.2035
   76SLPC   C36 6889   1.478   2.145   7.346  0.1219  0.3839  0.5170
   76SLPC   H6X 6890   1.524   2.048   7.317 -0.7804 -0.3752  1.5377
   76SLPC   H6Y 6891   1.385   2.118   7.401  0.0472 -0.5321 -0.0472
   76SLPC   C37 6892   1.557   2.220   7.453 -0.3043  0.2740 -1.1085
   76SLPC   H7X 6893   1.497   2.302   7.498  0.3402 -0.3924  1.1481
   76SLPC   H7Y 6894   1.649   2.265   7.410  1.0589 -0.0853  1.2432
   76SLPC   C38 6895   1.596   2.127   7.570 -0.1767  0.0779  0.1118
   76SLPC   H8X 6896   1.673   2.182   7.628  0.5014 -0.8864  0.1570
   76SLPC   H8Y 6897   1.653   2.041   7.529 -0.5982  0.2440 -0.8368
   76SLPC   C39 6898   1.479   2.088   7.661  0.3107 -0.0928  0.3355
   76SLPC   H9X 6899   1.416   2.002   7.629  0.1319  0.0960  0.1743
   76SLPC   H9Y 6900   1.408   2.173   7.670 -0.5056 -0.9662  3.1391
   76SLPC  C310 6901   1.528   2.060   7.806  0.7300  0.0960 -0.5570
   76SLPC  H10X 6902   1.546   2.159   7.851  0.7400 -0.3790  0.5088
   76SLPC  H10Y 6903   1.619   1.998   7.796 -0.1884 -1.3848 -0.1641
   76SLPC  C311 6904   1.430   1.978   7.897  0.4282  0.1450 -0.6754
   76SLPC  H11X 6905   1.392   1.885   7.850 -0.7467 -0.7094  1.8070
   76SLPC  H11Y 6906   1.341   2.044   7.908  0.1713 -0.2137 -0.5873
   76SLPC  C312 6907   1.475   1.948   8.036 -0.4094 -0.7665 -0.7994
   76SLPC  H12X 6908   1.495   2.040   8.094 -0.2500 -1.5074  0.3421
   76SLPC  H12Y 6909   1.564   1.882   8.040 -0.1786 -0.3757  1.2132
   76SLPC  C313 6910   1.362   1.879   8.119 -0.2197  0.0998  0.6816
   76SLPC  H13X 6911   1.402   1.861   8.221 -1.1065  0.3545  1.0794
   76SLPC  H13Y 6912   1.345   1.779   8.074  2.6085 -0.5016  0.7543
   76SLPC  C314 6913   1.240   1.958   8.134 -0.3086 -0.2872 -0.0280
   76SLPC  H14X 6914   1.195   1.999   8.041 -3.4798 -1.6671  0.7329
   76SLPC  H14Y 6915   1.271   2.045   8.195  0.8185 -1.5172  1.2131
   76SLPC  C315 6916   1.134   1.869   8.208 -1.1101  1.0232  0.6544
   76SLPC  H15X 6917   1.189   1.803   8.278  0.8096  0.5693 -1.1381
   76SLPC  H15Y 6918   1.082   1.798   8.140  1.3492 -1.2371  0.9747
   76SLPC  C316 6919   1.042   1.949   8.290 -0.1908  0.5054  0.1607
   76SLPC  H16X 6920   0.972   1.874   8.333 -2.0153  0.2493 -2.9384
   76SLPC  H16Y 6921   0.973   2.003   8.222 -2.1702 -0.9015  0.9399
   76SLPC  C317 6922   1.092   2.047   8.402 -0.4583  0.6227 -0.0844
   76SLPC  H17X 6923   1.009   2.107   8.446 -0.3865 -0.2109  1.2491
   76SLPC  H17Y 6924   1.159   2.123   8.357  1.4798  0.2549  2.0164
   76SLPC  C318 6925   1.154   1.980   8.521 -0.3300  0.1378 -0.3398
   76SLPC  H18X 6926   1.245   1.925   8.488  0.6404  1.3493  0.2358
   76SLPC  H18Y 6927   1.081   1.915   8.575 -0.1651 -0.1468 -0.4596
   76SLPC  H18Z 6928   1.182   2.061   8.592 -0.0379  2.0012 -2.4682
   77SLPC     N 6929   5.506   1.778   6.157 -0.2770  0.0828  0.0807
   77SLPC   C13 6930   5.563   1.707   6.042 -0.7395 -0.7126 -0.3945
   77SLPC  H13A 6931   5.609   1.612   6.067  0.2055 -0.3658 -0.7736
   77SLPC  H13B 6932   5.499   1.681   5.959 -0.5202  1.3824 -1.2742
   77SLPC  H13C 6933   5.649   1.755   5.998 -0.3629 -1.3321 -0.3543
   77SLPC   C14 6934   5.401   1.691   6.221 -0.0607  0.3332 -0.0681
   77SLPC  H14A 6935   5.370   1.731   6.317  0.4469 -2.0852  1.1714
   77SLPC  H14B 6936   5.317   1.702   6.154  1.3604 -0.6749 -2.1285
   77SLPC  H14C 6937   5.432   1.590   6.243 -0.8568 -0.0778 -0.7816
   77SLPC   C15 6938   5.443   1.900   6.097 -0.7898 -0.0145 -0.4355
   77SLPC  H15A 6939   5.379   1.952   6.166 -0.2559  1.2193 -0.8416
   77SLPC  H15B 6940   5.528   1.964   6.079 -0.7160  0.3510  1.0800
   77SLPC  H15C 6941   5.385   1.867   6.012  0.2867 -0.8404 -0.8670
   77SLPC   C12 6942   5.607   1.810   6.261 -0.4411 -0.1617 -0.1822
   77SLPC  H12A 6943   5.692   1.865   6.223 -0.7182 -0.7030 -1.6518
   77SLPC  H12B 6944   5.658   1.719   6.289  2.7977  0.9896 -1.8186
   77SLPC   C11 6945   5.559   1.883   6.388  0.4879 -0.7783 -0.1032
   77SLPC  H11A 6946   5.650   1.874   6.452  0.3629 -1.6354 -0.0390
   77SLPC  H11B 6947   5.470   1.834   6.432 -0.0596 -1.6406 -2.0844
   77SLPC     P 6948   5.641   2.136   6.372  0.0103  0.1592 -0.0531
   77SLPC   O13 6949   5.747   2.086   6.280  0.6277 -0.1225  0.0603
   77SLPC   O14 6950   5.584   2.266   6.336  0.2773  0.5956  0.0960
   77SLPC   O12 6951   5.529   2.024   6.377 -0.7241  0.2982 -0.3406
   77SLPC   O11 6952   5.695   2.147   6.521 -0.0710 -0.0717  0.0518
   77SLPC    C1 6953   5.614   2.114   6.638 -0.4322 -0.4732  0.1757
   77SLPC    HA 6954   5.510   2.077   6.620 -0.3020 -0.0372 -1.6769
   77SLPC    HB 6955   5.672   2.038   6.694  0.9981 -0.0559 -0.6759
   77SLPC    C2 6956   5.597   2.246   6.722 -0.2308  0.1568 -0.1061
   77SLPC    HS 6957   5.700   2.289   6.724 -0.1065 -0.1634  0.9285
   77SLPC   O21 6958   5.577   2.205   6.860 -0.5399 -0.4634  0.4823
   77SLPC   C21 6959   5.603   2.293   6.956  0.5473 -0.8423 -0.3498
   77SLPC   O22 6960   5.639   2.411   6.939 -0.0926  0.7550 -0.1678
   77SLPC   C22 6961   5.559   2.221   7.085  0.5833 -0.2871 -0.4193
   77SLPC   H2R 6962   5.483   2.144   7.062 -1.9904  1.4379  1.6896
   77SLPC   H2S 6963   5.639   2.169   7.141 -1.0669 -0.2911  2.1460
   77SLPC    C3 6964   5.492   2.344   6.673 -0.0053 -0.0116 -0.4291
   77SLPC    HX 6965   5.533   2.358   6.571 -0.9408 -0.9177 -0.9529
   77SLPC    HY 6966   5.498   2.442   6.725 -1.6563 -0.4058  0.5571
   77SLPC   O31 6967   5.363   2.279   6.666  0.8599 -0.6607  0.2480
   77SLPC   C31 6968   5.283   2.305   6.773  0.2517  0.0978  0.6018
   77SLPC   O32 6969   5.315   2.374   6.867  0.2770 -0.5341 -0.4158
   77SLPC   C32 6970   5.140   2.241   6.764  0.2727  0.7766 -0.0918
   77SLPC   H2X 6971   5.086   2.303   6.689  0.8170  0.1010 -1.0697
   77SLPC   H2Y 6972   5.092   2.253   6.864 -1.7571 -0.7335 -0.8128
   77SLPC   C23 6973   5.487   2.317   7.186  0.6417  1.0752 -0.6124
   77SLPC   H3R 6974   5.428   2.253   7.255  1.8573  1.5969  0.9816
   77SLPC   H3S 6975   5.416   2.382   7.130 -0.5826  1.5324  1.3883
   77SLPC   C24 6976   5.570   2.412   7.268  0.3235 -0.2731  0.3258
   77SLPC   H4R 6977   5.509   2.482   7.330 -0.5094 -0.4971 -0.2136
   77SLPC   H4S 6978   5.630   2.484   7.208 -0.0478  0.6624  1.0619
   77SLPC   C25 6979   5.666   2.337   7.354 -1.1118 -0.0289  1.0667
   77SLPC   H5R 6980   5.734   2.278   7.288 -1.5778  1.6901 -1.0945
   77SLPC   H5S 6981   5.619   2.261   7.419  1.5532 -2.3215  0.4893
   77SLPC   C26 6982   5.753   2.424   7.448  0.0020  0.2190  0.4316
   77SLPC   H6R 6983   5.690   2.479   7.521  2.6355  0.7586  2.4586
   77SLPC   H6S 6984   5.804   2.498   7.383  0.5399  0.1164  0.7307
   77SLPC   C27 6985   5.862   2.338   7.525 -0.1044  0.0015 -0.2965
   77SLPC   H7R 6986   5.913   2.270   7.453  0.9916 -1.2277  1.5479
   77SLPC   H7S 6987   5.818   2.264   7.595  1.5948  0.0144  0.8446
   77SLPC   C28 6988   5.955   2.434   7.602  0.6816  0.1532  0.1804
   77SLPC   H8R 6989   5.893   2.491   7.675  1.2160  0.4027  0.4487
   77SLPC   H8S 6990   5.988   2.513   7.531 -2.0976  0.2076 -1.1425
   77SLPC   C29 6991   6.064   2.356   7.679 -0.5896  0.0642 -0.4006
   77SLPC   H9R 6992   6.159   2.335   7.628 -0.0911 -0.6823  0.7950
   77SLPC  C210 6993   6.048   2.296   7.806 -0.3528 -0.2922  0.6702
   77SLPC  H10R 6994   6.129   2.233   7.847 -1.3391 -1.0118  1.5563
   77SLPC  C211 6995   5.933   2.295   7.894  0.5615 -0.5480 -0.0539
   77SLPC  H11R 6996   5.941   2.198   7.947  2.3388 -1.0014 -1.0475
   77SLPC  H11S 6997   5.843   2.288   7.829  1.1603 -0.5521 -0.9137
   77SLPC  C212 6998   5.930   2.415   7.984  0.5040 -0.9135  0.3652
   77SLPC  H12R 6999   5.986   2.505   7.956 -1.4989 -0.2908 -2.0455
   77SLPC  C213 7000   5.824   2.436   8.072  0.0726  0.4665  0.0866
   77SLPC  H13R 7001   5.824   2.530   8.130  0.4744 -0.1280  1.0860
   77SLPC  C214 7002   5.709   2.341   8.095 -0.1445  0.1565 -0.2767
   77SLPC  H14R 7003   5.691   2.291   7.997 -1.9934  1.2179 -0.5324
   77SLPC  H14S 7004   5.618   2.401   8.119  0.8366  1.1521  1.1075
   77SLPC  C215 7005   5.723   2.235   8.202  0.1299  0.3335 -0.4495
   77SLPC  H15R 7006   5.829   2.202   8.192 -0.1153 -0.3808 -0.6895
   77SLPC  H15S 7007   5.658   2.148   8.181  0.2865  0.0266  0.3160
   77SLPC  C216 7008   5.703   2.287   8.345  0.3285  0.2642 -0.2215
   77SLPC  H16R 7009   5.600   2.322   8.367 -0.0173 -0.6309 -0.3750
   77SLPC  H16S 7010   5.762   2.381   8.345  0.2464  0.3238 -1.2994
   77SLPC  C217 7011   5.746   2.181   8.446  0.0066 -0.6895  0.0628
   77SLPC  H17R 7012   5.857   2.176   8.446  0.0935  0.8443 -0.7795
   77SLPC  H17S 7013   5.715   2.084   8.401  1.5036  0.1145 -2.9160
   77SLPC  C218 7014   5.697   2.209   8.585  0.2947 -0.6543  0.0589
   77SLPC  H18R 7015   5.763   2.277   8.642  0.1016 -1.8877  1.8253
   77SLPC  H18S 7016   5.679   2.115   8.641  0.0186 -0.7270 -0.1474
   77SLPC  H18T 7017   5.590   2.242   8.589  0.3350 -0.6357  1.1272
   77SLPC   C33 7018   5.142   2.091   6.715  0.6213  0.1238  1.2649
   77SLPC   H3X 7019   5.186   2.088   6.613  0.0411 -0.5494  1.0249
   77SLPC   H3Y 7020   5.043   2.039   6.710  0.5206  0.3630  0.7491
   77SLPC   C34 7021   5.228   2.006   6.810 -0.2335 -0.4838 -0.3351
   77SLPC   H4X 7022   5.334   2.029   6.788 -0.2694 -0.9644 -1.0425
   77SLPC   H4Y 7023   5.215   1.900   6.780  3.8711 -0.7271 -1.8836
   77SLPC   C35 7024   5.202   2.035   6.964  0.2928  0.1890 -0.4010
   77SLPC   H5X 7025   5.094   2.049   6.989  0.5913  2.2690 -0.0496
   77SLPC   H5Y 7026   5.252   2.133   6.981 -0.9283  0.4153  2.4534
   77SLPC   C36 7027   5.274   1.930   7.048  0.1490 -0.9003 -0.3845
   77SLPC   H6X 7028   5.370   1.928   6.993 -0.7799  1.6287 -2.2860
   77SLPC   H6Y 7029   5.234   1.827   7.036  1.0094 -1.1532 -1.2219
   77SLPC   C37 7030   5.281   1.965   7.196  0.6787  0.0813 -0.8465
   77SLPC   H7X 7031   5.181   1.948   7.242  1.2704 -2.1754 -0.2209
   77SLPC   H7Y 7032   5.307   2.072   7.210  0.1852  0.0491  0.4366
   77SLPC   C38 7033   5.389   1.881   7.262  0.2077  0.0624 -0.3733
   77SLPC   H8X 7034   5.489   1.881   7.213 -0.0271  0.2966 -0.8570
   77SLPC   H8Y 7035   5.369   1.772   7.268 -3.4678  0.5303 -1.6887
   77SLPC   C39 7036   5.419   1.928   7.406  0.6152  0.6686 -0.0680
   77SLPC   H9X 7037   5.462   2.030   7.394  0.9980  0.5807  0.5340
   77SLPC   H9Y 7038   5.487   1.847   7.441  0.8735  0.7986 -0.2595
   77SLPC  C310 7039   5.288   1.942   7.482  0.0594  0.1461 -0.5920
   77SLPC  H10X 7040   5.221   1.856   7.463  1.4700 -1.9717  2.9590
   77SLPC  H10Y 7041   5.231   2.035   7.463 -0.8732  0.3327  2.5343
   77SLPC  C311 7042   5.319   1.938   7.635  0.3451 -0.1056  0.2473
   77SLPC  H11X 7043   5.239   1.998   7.685  0.7159  0.3146  0.3433
   77SLPC  H11Y 7044   5.411   1.997   7.657 -0.1002  0.9839 -0.7239
   77SLPC  C312 7045   5.308   1.792   7.682 -0.5659  0.3228  0.3303
   77SLPC  H12X 7046   5.404   1.739   7.661 -0.8084 -0.2440  0.6108
   77SLPC  H12Y 7047   5.236   1.735   7.619  1.4780 -1.1179 -0.8365
   77SLPC  C313 7048   5.265   1.774   7.832  0.4711 -0.3209 -0.2821
   77SLPC  H13X 7049   5.247   1.667   7.857  0.6041 -0.2143  0.2594
   77SLPC  H13Y 7050   5.167   1.823   7.851  2.5062  4.6051 -0.9070
   77SLPC  C314 7051   5.359   1.839   7.931 -0.3399 -0.2442 -0.6225
   77SLPC  H14X 7052   5.371   1.946   7.906  2.0578 -0.1248  0.7964
   77SLPC  H14Y 7053   5.460   1.796   7.912  1.2695  2.7385  0.6468
   77SLPC  C315 7054   5.326   1.823   8.075 -0.7766 -0.0511 -0.1662
   77SLPC  H15X 7055   5.338   1.714   8.093 -1.9707 -0.7982 -3.1947
   77SLPC  H15Y 7056   5.219   1.848   8.091 -0.5106 -0.1720  2.1480
   77SLPC  C316 7057   5.422   1.909   8.164  0.1070  0.2730 -0.3331
   77SLPC  H16X 7058   5.433   2.015   8.131 -1.2813  0.8581  0.9519
   77SLPC  H16Y 7059   5.526   1.871   8.162 -0.1598 -0.5407  0.5809
   77SLPC  C317 7060   5.372   1.914   8.311  0.2240  0.3830  0.4849
   77SLPC  H17X 7061   5.347   1.810   8.342  0.5144  0.3430  0.5864
   77SLPC  H17Y 7062   5.275   1.969   8.310 -0.9877 -1.6132 -1.9161
   77SLPC  C318 7063   5.474   1.960   8.410 -0.1956 -0.2427 -0.7088
   77SLPC  H18X 7064   5.424   1.948   8.509  0.7917  0.7409 -0.0684
   77SLPC  H18Y 7065   5.509   2.062   8.385 -1.5265  0.0641 -1.4422
   77SLPC  H18Z 7066   5.557   1.888   8.394  1.1043  1.0298  0.0762
   78SLPC     N 7067   0.476   1.868   6.022  0.1798 -0.8414  0.5579
   78SLPC   C13 7068   0.544   1.731   6.014 -0.3255 -0.3387 -0.3978
   78SLPC  H13A 7069   0.478   1.654   5.976 -1.7235  1.2870 -1.4578
   78SLPC  H13B 7070   0.625   1.728   5.943 -1.1273 -0.1076 -1.3495
   78SLPC  H13C 7071   0.568   1.702   6.115 -2.1048 -0.2351  0.0932
   78SLPC   C14 7072   0.359   1.864   6.110 -0.1744 -0.4484  0.2527
   78SLPC  H14A 7073   0.368   1.817   6.207 -2.1792  2.4861  1.9952
   78SLPC  H14B 7074   0.315   1.962   6.115  0.7387  0.2559 -3.1393
   78SLPC  H14C 7075   0.276   1.811   6.067 -1.3839  1.1086  0.5871
   78SLPC   C15 7076   0.434   1.900   5.883 -0.3469  0.0608 -0.7788
   78SLPC  H15A 7077   0.520   1.896   5.818  0.0510  4.1570 -0.7545
   78SLPC  H15B 7078   0.379   1.813   5.849 -1.0911 -1.0200  2.7741
   78SLPC  H15C 7079   0.377   1.991   5.875  1.5270  1.3633  0.0576
   78SLPC   C12 7080   0.580   1.969   6.071  0.7960 -0.6204 -1.0199
   78SLPC  H12A 7081   0.664   1.969   6.003  0.9524  1.5112 -0.9129
   78SLPC  H12B 7082   0.633   1.934   6.158  2.3044  1.1069 -1.1862
   78SLPC   C11 7083   0.536   2.113   6.107 -0.0860  0.1964 -0.3934
   78SLPC  H11A 7084   0.466   2.149   6.028 -0.4686  1.4647  0.4781
   78SLPC  H11B 7085   0.617   2.189   6.109 -2.9724  3.5092  1.0598
   78SLPC     P 7086   0.542   2.122   6.368 -0.3939 -0.2469  0.1693
   78SLPC   O13 7087   0.627   2.246   6.369 -0.6361 -0.0383 -0.2450
   78SLPC   O14 7088   0.444   2.124   6.479 -0.1695  0.5965 -0.8627
   78SLPC   O12 7089   0.464   2.111   6.232  0.2669 -0.7950  0.2826
   78SLPC   O11 7090   0.635   1.996   6.379 -0.2152 -0.5350 -0.1167
   78SLPC    C1 7091   0.588   1.882   6.455 -0.3258  1.5163 -0.6086
   78SLPC    HA 7092   0.483   1.863   6.424  0.3366  1.8448 -3.3019
   78SLPC    HB 7093   0.638   1.789   6.418 -1.9739  0.6423 -0.7227
   78SLPC    C2 7094   0.601   1.881   6.609  0.2454 -0.0463  0.1214
   78SLPC    HS 7095   0.537   1.962   6.650 -0.1500 -0.4439  0.3003
   78SLPC   O21 7096   0.734   1.886   6.663 -0.1290  0.5265  0.5735
   78SLPC   C21 7097   0.784   2.005   6.684  0.3199  0.0035  0.6590
   78SLPC   O22 7098   0.723   2.111   6.660  0.3241 -0.2559 -0.1866
   78SLPC   C22 7099   0.923   1.992   6.742 -0.6967  0.3412 -0.5664
   78SLPC   H2R 7100   0.949   1.885   6.759  1.8213  0.9695 -0.0521
   78SLPC   H2S 7101   0.990   2.040   6.667 -0.4478 -1.6128 -1.6807
   78SLPC    C3 7102   0.531   1.739   6.660 -0.5518  0.2092  0.5291
   78SLPC    HX 7103   0.588   1.655   6.615  3.6319  2.2259  1.5714
   78SLPC    HY 7104   0.431   1.736   6.612  0.9379 -0.1762 -2.7807
   78SLPC   O31 7105   0.524   1.721   6.803  0.4873  0.3866 -0.5314
   78SLPC   C31 7106   0.433   1.807   6.861 -0.7406  0.3382  0.0523
   78SLPC   O32 7107   0.356   1.876   6.794  0.4629 -0.2327  0.2084
   78SLPC   C32 7108   0.447   1.812   7.003 -0.2437  0.0106 -0.8521
   78SLPC   H2X 7109   0.556   1.808   7.026 -1.2139 -4.0677  5.5795
   78SLPC   H2Y 7110   0.405   1.717   7.043 -0.2459 -0.8661 -2.8231
   78SLPC   C23 7111   0.942   2.070   6.877  0.2705  0.6408 -0.6617
   78SLPC   H3R 7112   0.903   2.173   6.864 -0.8447  0.6171  2.0265
   78SLPC   H3S 7113   1.050   2.088   6.897 -0.1543  1.5034  0.9745
   78SLPC   C24 7114   0.876   2.012   6.998  0.2173  0.2552 -0.3242
   78SLPC   H4R 7115   0.919   1.912   7.020  2.3719  0.4955 -2.8754
   78SLPC   H4S 7116   0.766   1.995   6.996  0.1396  0.4432  1.1229
   78SLPC   C25 7117   0.901   2.102   7.120 -0.5203  0.4118  0.0506
   78SLPC   H5R 7118   0.867   2.205   7.092 -2.8588 -0.5339 -0.8804
   78SLPC   H5S 7119   1.009   2.105   7.145 -0.4472 -2.9376  0.5631
   78SLPC   C26 7120   0.823   2.060   7.241 -0.4586  0.0797 -0.6441
   78SLPC   H6R 7121   0.836   1.951   7.259  0.7227 -0.0487 -2.0950
   78SLPC   H6S 7122   0.714   2.067   7.224 -0.4682  1.3838 -0.1385
   78SLPC   C27 7123   0.854   2.134   7.369  0.2248 -0.2228 -0.1015
   78SLPC   H7R 7124   0.794   2.089   7.451  1.2641 -0.7879  0.3677
   78SLPC   H7S 7125   0.834   2.243   7.354 -1.4722 -0.6321 -1.0222
   78SLPC   C28 7126   0.994   2.120   7.429  0.8633 -0.5250 -0.0724
   78SLPC   H8R 7127   0.983   2.158   7.533 -0.9163 -0.8736 -0.1105
   78SLPC   H8S 7128   1.065   2.191   7.382  0.7372 -0.6995 -0.5269
   78SLPC   C29 7129   1.053   1.980   7.429  0.7654 -0.2091 -0.5800
   78SLPC   H9R 7130   1.075   1.948   7.326 -2.2633 -1.0986 -1.0301
   78SLPC  C210 7131   1.083   1.907   7.542 -0.1089  0.2062 -0.2049
   78SLPC  H10R 7132   1.122   1.806   7.528 -0.5308 -0.3027  1.8785
   78SLPC  C211 7133   1.060   1.956   7.684  0.4584 -0.2929 -0.1966
   78SLPC  H11R 7134   0.951   1.973   7.699  0.1458 -2.6120  0.4430
   78SLPC  H11S 7135   1.112   2.053   7.703  2.0360 -1.2950  0.9043
   78SLPC  C212 7136   1.088   1.848   7.790 -0.8339 -0.6724 -0.0858
   78SLPC  H12R 7137   1.196   1.827   7.796 -0.8603 -1.0844 -0.9309
   78SLPC  C213 7138   1.002   1.771   7.853 -0.1749  0.8933  0.2583
   78SLPC  H13R 7139   1.042   1.701   7.927 -0.6355 -2.7561 -2.6857
   78SLPC  C214 7140   0.852   1.779   7.830  0.4199 -0.3787  0.3052
   78SLPC  H14R 7141   0.815   1.745   7.731 -1.3811  0.1678  0.7502
   78SLPC  H14S 7142   0.822   1.885   7.849  0.2800 -0.5751  1.2496
   78SLPC  C215 7143   0.759   1.701   7.934  0.4172  0.4267 -0.4352
   78SLPC  H15R 7144   0.769   1.591   7.924 -0.2718  0.1225  1.6250
   78SLPC  H15S 7145   0.653   1.732   7.919  0.0177 -1.3847 -1.6156
   78SLPC  C216 7146   0.775   1.738   8.080 -0.0137 -0.7581 -0.2427
   78SLPC  H16R 7147   0.873   1.790   8.078 -0.4001  0.0438 -3.1950
   78SLPC  H16S 7148   0.784   1.649   8.146 -0.0697  0.3387  1.2887
   78SLPC  C217 7149   0.670   1.836   8.125 -0.3062 -0.5674  0.0016
   78SLPC  H17R 7150   0.652   1.919   8.054 -0.9394  0.3244  1.1552
   78SLPC  H17S 7151   0.707   1.889   8.216  1.5153  0.1277 -1.0851
   78SLPC  C218 7152   0.541   1.771   8.172 -0.2937 -0.4118  0.0228
   78SLPC  H18R 7153   0.496   1.704   8.096 -0.5841  0.6433 -0.7536
   78SLPC  H18S 7154   0.471   1.850   8.208 -0.0774 -0.5265  0.7148
   78SLPC  H18T 7155   0.571   1.704   8.255 -0.1667  2.0662  2.0926
   78SLPC   C33 7156   0.381   1.934   7.075  0.0422 -0.6664 -0.6647
   78SLPC   H3X 7157   0.271   1.921   7.072  0.0166 -0.5452 -0.2406
   78SLPC   H3Y 7158   0.416   2.027   7.025 -1.1344  0.8214  1.1719
   78SLPC   C34 7159   0.419   1.940   7.223 -0.3934  0.6044 -0.1470
   78SLPC   H4X 7160   0.527   1.966   7.221 -0.6419  1.7696  0.6050
   78SLPC   H4Y 7161   0.401   1.841   7.272 -2.4068  0.6685 -0.6701
   78SLPC   C35 7162   0.338   2.042   7.300  0.4567 -0.7996 -0.0929
   78SLPC   H5X 7163   0.228   2.026   7.302  0.5602 -2.0718  3.2861
   78SLPC   H5Y 7164   0.359   2.138   7.249 -0.1267 -1.4556 -1.5999
   78SLPC   C36 7165   0.394   2.049   7.440 -0.2917  0.3232 -0.2224
   78SLPC   H6X 7166   0.367   2.146   7.488 -0.4567  0.8186 -1.2984
   78SLPC   H6Y 7167   0.504   2.058   7.432 -0.3742  0.9294 -0.8189
   78SLPC   C37 7168   0.359   1.929   7.533 -0.2912 -0.0395 -0.7964
   78SLPC   H7X 7169   0.393   1.835   7.485  0.0912 -0.0273 -0.5504
   78SLPC   H7Y 7170   0.248   1.923   7.540 -0.2865 -0.3750 -0.9635
   78SLPC   C38 7171   0.425   1.945   7.672 -0.5083  0.1192 -0.2700
   78SLPC   H8X 7172   0.534   1.969   7.667 -0.0770 -1.6036  0.4071
   78SLPC   H8Y 7173   0.426   1.846   7.721 -1.4377  2.0146  4.0407
   78SLPC   C39 7174   0.342   2.033   7.764 -0.2021 -0.0967 -1.0565
   78SLPC   H9X 7175   0.261   1.974   7.813  1.4362 -0.2488  1.6570
   78SLPC   H9Y 7176   0.298   2.125   7.720  0.6403 -0.0477 -1.8189
   78SLPC  C310 7177   0.425   2.090   7.892  0.5266 -1.0480 -0.6070
   78SLPC  H10X 7178   0.505   2.158   7.854 -0.2844  0.9661  1.0790
   78SLPC  H10Y 7179   0.458   2.004   7.955 -1.1842 -1.1661  0.1630
   78SLPC  C311 7180   0.334   2.196   7.966 -0.5156 -0.2699  0.2823
   78SLPC  H11X 7181   0.230   2.158   7.964  0.1160 -2.2391  1.6623
   78SLPC  H11Y 7182   0.330   2.284   7.898 -0.7712 -1.8634 -1.8688
   78SLPC  C312 7183   0.369   2.225   8.116 -0.8473  0.0638  0.4669
   78SLPC  H12X 7184   0.350   2.138   8.182  0.2680 -1.1050 -0.7171
   78SLPC  H12Y 7185   0.297   2.304   8.145 -1.5736  0.1368 -1.3877
   78SLPC  C313 7186   0.516   2.260   8.138  0.2332 -0.7479 -0.6039
   78SLPC  H13X 7187   0.546   2.345   8.072 -2.4066 -0.0452 -1.0256
   78SLPC  H13Y 7188   0.579   2.179   8.097  0.6415 -1.1360  0.7498
   78SLPC  C314 7189   0.557   2.290   8.279 -0.3603 -0.3176  0.4191
   78SLPC  H14X 7190   0.560   2.196   8.336 -3.1801  0.1081  1.4059
   78SLPC  H14Y 7191   0.491   2.361   8.333  0.1634  0.8936 -0.4718
   78SLPC  C315 7192   0.708   2.338   8.263 -0.2518 -0.7374 -0.3610
   78SLPC  H15X 7193   0.706   2.420   8.187 -1.1069  1.0632  1.4942
   78SLPC  H15Y 7194   0.773   2.257   8.224  2.7562  0.0678  2.5402
   78SLPC  C316 7195   0.776   2.394   8.386 -0.3883  0.1693 -0.2771
   78SLPC  H16X 7196   0.767   2.333   8.479 -1.9045  3.5333  1.9912
   78SLPC  H16Y 7197   0.720   2.483   8.422  1.2494  0.1553  2.6419
   78SLPC  C317 7198   0.929   2.410   8.364 -0.2709  0.3536  0.7887
   78SLPC  H17X 7199   0.929   2.477   8.275 -0.4942 -0.0162  0.5058
   78SLPC  H17Y 7200   0.967   2.308   8.340 -0.8305  0.3334 -0.0451
   78SLPC  C318 7201   1.013   2.485   8.469  0.6152  0.1645 -0.8371
   78SLPC  H18X 7202   1.122   2.478   8.446  0.5799 -1.2750 -0.6288
   78SLPC  H18Y 7203   0.994   2.444   8.571 -0.3514  1.4475 -0.4740
   78SLPC  H18Z 7204   0.978   2.591   8.475  0.9355  0.2055  1.5001
   79SLPC     N 7205   2.733   2.913   6.403 -0.6457 -0.7777 -0.5525
   79SLPC   C13 7206   2.734   2.773   6.359 -0.0696 -0.0128 -0.1111
   79SLPC  H13A 7207   2.633   2.745   6.334  0.7809 -1.1436 -2.5604
   79SLPC  H13B 7208   2.798   2.759   6.273  1.1240  0.8896  0.5979
   79SLPC  H13C 7209   2.778   2.701   6.426  1.9832  2.0855  0.9838
   79SLPC   C14 7210   2.652   2.941   6.528  0.8478 -0.6955  0.7109
   79SLPC  H14A 7211   2.654   3.047   6.548  0.5906 -0.6838  0.6765
   79SLPC  H14B 7212   2.549   2.911   6.515  0.2425 -0.2839  3.7793
   79SLPC  H14C 7213   2.691   2.893   6.616  0.0710 -2.3600  0.1848
   79SLPC   C15 7214   2.689   3.009   6.300  0.4168 -0.4345 -0.8739
   79SLPC  H15A 7215   2.700   3.104   6.350  0.9015  0.4154 -2.5147
   79SLPC  H15B 7216   2.752   3.012   6.212  0.9688 -1.0137 -0.5014
   79SLPC  H15C 7217   2.588   2.989   6.265 -0.4637  1.4368  0.4271
   79SLPC   C12 7218   2.869   2.958   6.460 -0.1977  0.4677 -0.1155
   79SLPC  H12A 7219   2.890   2.891   6.542  1.4589 -0.4733 -1.2538
   79SLPC  H12B 7220   2.860   3.058   6.501 -2.1656 -0.0954  0.9206
   79SLPC   C11 7221   2.993   2.960   6.365 -0.1845 -0.0889  0.3182
   79SLPC  H11A 7222   3.006   2.871   6.300  1.8183  0.7712 -0.5384
   79SLPC  H11B 7223   3.086   2.955   6.425 -0.5082 -3.5828  0.7335
   79SLPC     P 7224   3.045   3.217   6.332  0.6421 -0.1047  0.0622
   79SLPC   O13 7225   3.188   3.232   6.311  0.2716  0.5336  0.4683
   79SLPC   O14 7226   2.956   3.319   6.275  0.3346 -0.2155 -1.3240
   79SLPC   O12 7227   3.000   3.071   6.275  0.3341 -0.2857  0.0191
   79SLPC   O11 7228   3.015   3.198   6.487  0.0853  0.1418  0.4155
   79SLPC    C1 7229   3.117   3.195   6.587  0.1092  0.1504 -1.2140
   79SLPC    HA 7230   3.126   3.094   6.631  1.3990  0.6950 -0.1423
   79SLPC    HB 7231   3.220   3.205   6.545  0.9815  0.7193  0.9195
   79SLPC    C2 7232   3.096   3.289   6.706  0.4296 -0.5818 -0.4208
   79SLPC    HS 7233   3.191   3.275   6.762  0.6684 -0.9462 -0.9067
   79SLPC   O21 7234   2.975   3.250   6.781  0.1369 -0.1120  0.0007
   79SLPC   C21 7235   2.984   3.139   6.858  0.2057  0.7174 -0.4206
   79SLPC   O22 7236   3.090   3.079   6.880 -0.3438 -0.6323  0.0784
   79SLPC   C22 7237   2.849   3.094   6.909  0.1115 -0.0144  0.1315
   79SLPC   H2R 7238   2.791   3.097   6.814 -1.9644  0.6866  1.3507
   79SLPC   H2S 7239   2.853   2.986   6.934  1.8813 -0.5126 -1.9503
   79SLPC    C3 7240   3.086   3.441   6.655  0.7038 -0.3826  0.6443
   79SLPC    HX 7241   3.006   3.448   6.578  0.3457 -0.3143  1.0220
   79SLPC    HY 7242   3.183   3.450   6.601 -0.7767  0.4760 -2.1185
   79SLPC   O31 7243   3.091   3.536   6.766 -0.0964  0.0539  1.0023
   79SLPC   C31 7244   2.982   3.562   6.823 -0.0845 -0.0423 -0.0274
   79SLPC   O32 7245   2.869   3.542   6.775 -0.1813  0.2026  0.0355
   79SLPC   C32 7246   3.018   3.613   6.962 -0.0485  0.3071  0.7413
   79SLPC   H2X 7247   3.039   3.722   6.966 -1.3501  0.5490  2.0965
   79SLPC   H2Y 7248   3.111   3.558   6.989  0.7529  1.4517  0.4102
   79SLPC   C23 7249   2.794   3.176   7.027 -0.0080  1.0702  0.8891
   79SLPC   H3R 7250   2.688   3.145   7.040  0.4100 -1.0702 -0.4003
   79SLPC   H3S 7251   2.786   3.283   7.001 -3.4449  0.6828 -0.1680
   79SLPC   C24 7252   2.873   3.142   7.159  0.4863  0.3473  0.7135
   79SLPC   H4R 7253   2.979   3.175   7.148  0.8750 -0.4265  1.9334
   79SLPC   H4S 7254   2.884   3.033   7.180  1.3644  0.5367  1.2952
   79SLPC   C25 7255   2.814   3.210   7.282 -0.1462  0.0692 -0.3787
   79SLPC   H5R 7256   2.819   3.321   7.278 -2.6102  0.1684 -3.1138
   79SLPC   H5S 7257   2.885   3.188   7.366  0.1079 -0.3864 -0.7087
   79SLPC   C26 7258   2.667   3.172   7.311  0.3979 -0.0058 -0.2482
   79SLPC   H6R 7259   2.662   3.061   7.314  2.5336 -0.1344  0.3593
   79SLPC   H6S 7260   2.600   3.216   7.234 -2.5968  0.2803  2.3389
   79SLPC   C27 7261   2.613   3.220   7.443  0.2759 -0.0312  0.3724
   79SLPC   H7R 7262   2.627   3.329   7.426 -1.0128 -0.1593 -1.8436
   79SLPC   H7S 7263   2.680   3.186   7.524  0.5296  0.2876  0.2972
   79SLPC   C28 7264   2.465   3.169   7.464 -0.5015  0.0095 -1.2925
   79SLPC   H8R 7265   2.478   3.069   7.511  2.5814  0.5340 -0.7780
   79SLPC   H8S 7266   2.415   3.167   7.365  0.0025  1.1799 -1.5931
   79SLPC   C29 7267   2.388   3.257   7.558  0.3243 -0.1893  0.2338
   79SLPC   H9R 7268   2.367   3.354   7.510 -0.9521 -1.4662 -1.9697
   79SLPC  C210 7269   2.329   3.227   7.679 -0.3386 -0.3834  0.7087
   79SLPC  H10R 7270   2.282   3.306   7.740  1.5847  2.2434 -0.9665
   79SLPC  C211 7271   2.338   3.097   7.756  0.4150 -0.4001  0.6126
   79SLPC  H11R 7272   2.322   3.112   7.865 -0.0323  0.5044  0.4318
   79SLPC  H11S 7273   2.439   3.051   7.751  0.8600  0.6653 -0.6138
   79SLPC  C212 7274   2.233   3.000   7.705 -0.2125  0.0643  0.1146
   79SLPC  H12R 7275   2.198   3.022   7.603 -0.4461 -0.4487  0.0790
   79SLPC  C213 7276   2.209   2.877   7.756 -0.3384  0.6560  0.5450
   79SLPC  H13R 7277   2.146   2.814   7.692  0.5795  2.0936 -1.9591
   79SLPC  C214 7278   2.259   2.807   7.879  0.3293 -0.5045  0.7274
   79SLPC  H14R 7279   2.350   2.862   7.910  0.2002  0.3181 -0.2911
   79SLPC  H14S 7280   2.290   2.706   7.847 -0.5159 -0.5300 -0.0613
   79SLPC  C215 7281   2.157   2.795   7.996 -0.3555  0.0496  0.3119
   79SLPC  H15R 7282   2.055   2.755   7.978 -0.6264  0.3556  1.1200
   79SLPC  H15S 7283   2.126   2.896   8.028 -1.8572 -0.8164  1.7362
   79SLPC  C216 7284   2.207   2.720   8.119 -0.5942 -0.1775  0.1299
   79SLPC  H16R 7285   2.248   2.627   8.074  1.1852  1.5462 -2.0679
   79SLPC  H16S 7286   2.120   2.689   8.180  0.1945 -2.0428  0.3797
   79SLPC  C217 7287   2.306   2.791   8.210  0.3773 -0.3349  0.0721
   79SLPC  H17R 7288   2.265   2.889   8.242  1.7188  0.8290 -1.5856
   79SLPC  H17S 7289   2.398   2.805   8.151  0.7479 -1.3602  0.3834
   79SLPC  C218 7290   2.330   2.713   8.337 -0.8689  0.2564  0.8824
   79SLPC  H18R 7291   2.394   2.624   8.323 -1.0053  0.2449  0.2890
   79SLPC  H18S 7292   2.239   2.664   8.375  1.5979 -3.5626  2.4149
   79SLPC  H18T 7293   2.382   2.772   8.416 -0.1655 -1.4569  1.7293
   79SLPC   C33 7294   2.918   3.565   7.075  0.2299 -0.0098 -0.7962
   79SLPC   H3X 7295   2.907   3.455   7.064 -2.2728 -0.3176  2.9619
   79SLPC   H3Y 7296   2.820   3.613   7.058 -0.9471 -2.1948 -0.6466
   79SLPC   C34 7297   2.967   3.587   7.218 -0.0029  0.1649  0.3849
   79SLPC   H4X 7298   3.074   3.557   7.207  0.0427  0.0769  1.0391
   79SLPC   H4Y 7299   2.912   3.521   7.288 -0.0318  1.7600  1.9427
   79SLPC   C35 7300   2.975   3.735   7.268  0.1597 -0.6006 -0.2947
   79SLPC   H5X 7301   2.885   3.797   7.247 -0.8830 -2.5191 -1.8706
   79SLPC   H5Y 7302   3.056   3.782   7.208 -1.0960  0.5178 -1.1739
   79SLPC   C36 7303   3.017   3.746   7.417  0.3327  0.2609  0.5978
   79SLPC   H6X 7304   3.115   3.695   7.425  1.3127  2.2768  2.7515
   79SLPC   H6Y 7305   2.934   3.698   7.473  0.1564  1.3637  1.3281
   79SLPC   C37 7306   3.034   3.892   7.474  0.4261  0.7034  0.3581
   79SLPC   H7X 7307   2.934   3.939   7.468  0.0602 -0.2203 -1.4463
   79SLPC   H7Y 7308   3.109   3.953   7.419 -0.6589  1.4749 -0.3035
   79SLPC   C38 7309   3.079   3.880   7.628  0.1645  0.1718  0.2130
   79SLPC   H8X 7310   3.128   3.977   7.648 -0.5462  0.8406 -1.1306
   79SLPC   H8Y 7311   3.168   3.813   7.628  0.1135  0.1033  0.4854
   79SLPC   C39 7312   2.965   3.826   7.718 -0.2221 -0.4543  0.7289
   79SLPC   H9X 7313   2.942   3.728   7.672  0.8720 -0.1740 -0.4583
   79SLPC   H9Y 7314   2.872   3.886   7.709 -0.1203 -0.3854  0.1393
   79SLPC  C310 7315   3.005   3.800   7.862 -0.7884 -0.5622 -0.3488
   79SLPC  H10X 7316   3.047   3.892   7.905  1.3369 -1.6787  0.0825
   79SLPC  H10Y 7317   3.083   3.724   7.882  1.1054  2.5383  7.5433
   79SLPC  C311 7318   2.888   3.733   7.949  0.3370 -0.4827 -0.2521
   79SLPC  H11X 7319   2.871   3.632   7.907 -1.7146  0.4607 -1.8234
   79SLPC  H11Y 7320   2.799   3.797   7.934  0.9668  0.7562  1.0397
   79SLPC  C312 7321   2.919   3.733   8.105  0.8264  0.2977  0.7510
   79SLPC  H12X 7322   2.918   3.839   8.136 -0.1407  1.4885 -2.9564
   79SLPC  H12Y 7323   3.024   3.695   8.111  0.1694 -1.6632  0.6103
   79SLPC  C313 7324   2.848   3.624   8.181 -0.2880 -0.7511 -0.5304
   79SLPC  H13X 7325   2.852   3.525   8.132  0.6904 -0.6225 -0.7295
   79SLPC  H13Y 7326   2.742   3.658   8.179  0.4956  1.9751  0.0657
   79SLPC  C314 7327   2.887   3.606   8.322 -0.4153  0.0837  0.1593
   79SLPC  H14X 7328   2.901   3.709   8.362  1.1268 -0.3781  0.8704
   79SLPC  H14Y 7329   2.989   3.561   8.325 -0.8645 -0.9813 -0.3085
   79SLPC  C315 7330   2.795   3.541   8.426 -0.0474  0.5236 -0.2051
   79SLPC  H15X 7331   2.842   3.547   8.526 -0.8913 -1.2923  0.3326
   79SLPC  H15Y 7332   2.777   3.434   8.403  0.0667  0.6796 -1.0713
   79SLPC  C316 7333   2.659   3.612   8.435 -0.2956 -0.6076  0.3589
   79SLPC  H16X 7334   2.611   3.607   8.334  1.0121  1.3941 -0.4242
   79SLPC  H16Y 7335   2.677   3.722   8.444 -0.6692 -0.5801  0.8064
   79SLPC  C317 7336   2.557   3.559   8.534  0.2915  0.0507  0.0854
   79SLPC  H17X 7337   2.458   3.605   8.512 -0.0090 -0.5941  0.0766
   79SLPC  H17Y 7338   2.588   3.601   8.632 -0.8739 -0.0672  0.5175
   79SLPC  C318 7339   2.549   3.405   8.539  0.5603 -0.2169  0.3853
   79SLPC  H18X 7340   2.633   3.356   8.593  0.4896 -0.6273  0.1346
   79SLPC  H18Y 7341   2.524   3.371   8.436  1.5030  1.1634 -0.3219
   79SLPC  H18Z 7342   2.458   3.374   8.594  1.4789 -2.7431  0.6596
   80SLPC     N 7343   5.406   0.884   5.807  0.2643 -0.5320 -0.0257
   80SLPC   C13 7344   5.418   0.739   5.773  0.3692 -0.5583  0.1251
   80SLPC  H13A 7345   5.429   0.683   5.865  0.7135 -0.4841  0.1317
   80SLPC  H13B 7346   5.322   0.711   5.734 -0.0223 -0.9826  1.3363
   80SLPC  H13C 7347   5.496   0.709   5.705  0.6599 -0.7858  0.5506
   80SLPC   C14 7348   5.369   0.959   5.677  0.1806 -0.0048  0.3484
   80SLPC  H14A 7349   5.434   0.930   5.596 -1.6361  0.4361 -1.3491
   80SLPC  H14B 7350   5.264   0.938   5.662 -0.0716  0.3556  1.4628
   80SLPC  H14C 7351   5.382   1.065   5.685 -1.2687  0.3292 -1.2039
   80SLPC   C15 7352   5.545   0.931   5.841 -0.1391  0.2773  0.8493
   80SLPC  H15A 7353   5.608   0.931   5.753 -1.5019 -1.1696 -0.1792
   80SLPC  H15B 7354   5.549   1.031   5.882 -0.6159 -0.1425  1.9793
   80SLPC  H15C 7355   5.583   0.872   5.923  0.9237  1.1781  1.0393
   80SLPC   C12 7356   5.317   0.915   5.922  0.3351 -0.4053 -0.8803
   80SLPC  H12A 7357   5.217   0.894   5.888  0.9745 -1.2238 -2.3551
   80SLPC  H12B 7358   5.319   1.020   5.947 -0.2661 -0.9456  1.7814
   80SLPC   C11 7359   5.334   0.847   6.056  0.0216  0.3745  0.5835
   80SLPC  H11A 7360   5.437   0.879   6.083  1.0130 -0.6524 -1.7563
   80SLPC  H11B 7361   5.342   0.737   6.042 -0.2098  0.5189 -0.7433
   80SLPC     P 7362   5.232   0.999   6.244  0.1931  0.2187 -0.1202
   80SLPC   O13 7363   5.274   1.120   6.166  0.2055  0.1393 -0.0401
   80SLPC   O14 7364   5.103   1.012   6.311 -0.3152  0.0495  0.0806
   80SLPC   O12 7365   5.227   0.877   6.146  0.2326 -0.2451  0.4494
   80SLPC   O11 7366   5.344   0.950   6.342 -0.6476  0.5679 -0.3409
   80SLPC    C1 7367   5.357   0.820   6.401  0.4806  0.7232 -0.4671
   80SLPC    HA 7368   5.304   0.744   6.340  0.9138  0.7115 -0.8327
   80SLPC    HB 7369   5.465   0.796   6.409  0.0656 -0.7593  1.3390
   80SLPC    C2 7370   5.278   0.827   6.539 -0.5245  0.0500 -0.4709
   80SLPC    HS 7371   5.178   0.870   6.515  0.3253  1.6721 -1.2574
   80SLPC   O21 7372   5.361   0.904   6.631 -0.5088 -0.0390  0.2104
   80SLPC   C21 7373   5.308   1.003   6.695 -0.1432 -0.5769  0.6080
   80SLPC   O22 7374   5.189   1.045   6.688 -0.2143  0.1544 -0.3321
   80SLPC   C22 7375   5.424   1.055   6.786  0.1857  0.7878 -0.0169
   80SLPC   H2R 7376   5.433   0.980   6.868  0.2498  0.8711  0.0535
   80SLPC   H2S 7377   5.518   1.052   6.728  1.5352 -1.5033  2.0762
   80SLPC    C3 7378   5.242   0.686   6.605 -0.1831  0.0400  0.9923
   80SLPC    HX 7379   5.334   0.624   6.598  0.2919  0.7113  1.0776
   80SLPC    HY 7380   5.167   0.633   6.543  0.6181 -0.1411  0.1675
   80SLPC   O31 7381   5.203   0.694   6.746  0.7213 -0.5392  0.7682
   80SLPC   C31 7382   5.075   0.734   6.768  0.2010 -0.1857 -0.2232
   80SLPC   O32 7383   4.987   0.743   6.683  0.0800  0.0177 -0.0891
   80SLPC   C32 7384   5.067   0.750   6.914  0.0591  0.0209 -0.4896
   80SLPC   H2X 7385   5.165   0.792   6.947 -1.3139  1.8427  1.5702
   80SLPC   H2Y 7386   5.053   0.654   6.968 -2.0564  1.7158  2.2389
   80SLPC   C23 7387   5.401   1.196   6.840 -0.1165  0.2840 -0.3279
   80SLPC   H3R 7388   5.314   1.186   6.908 -0.5096 -0.2521 -0.9016
   80SLPC   H3S 7389   5.368   1.258   6.755  1.8740  0.8986 -0.6975
   80SLPC   C24 7390   5.518   1.258   6.925  0.4759  0.3295  0.1520
   80SLPC   H4R 7391   5.597   1.266   6.848 -1.1314 -1.1358 -1.7808
   80SLPC   H4S 7392   5.558   1.184   6.998 -0.7600  0.4386  0.9739
   80SLPC   C25 7393   5.464   1.381   7.004  0.7752 -0.2597 -0.1210
   80SLPC   H5R 7394   5.401   1.346   7.088  2.5361 -1.1325  0.8951
   80SLPC   H5S 7395   5.399   1.432   6.930  1.1357  0.6830  0.1969
   80SLPC   C26 7396   5.572   1.476   7.059 -0.6814 -0.2599 -0.3299
   80SLPC   H6R 7397   5.529   1.574   7.089  2.3223  1.0935 -0.1230
   80SLPC   H6S 7398   5.637   1.506   6.975  1.0958  0.7303  1.3071
   80SLPC   C27 7399   5.640   1.414   7.180  0.0676 -0.3649  0.0607
   80SLPC   H7R 7400   5.741   1.459   7.188 -0.2137  0.0581  1.8292
   80SLPC   H7S 7401   5.649   1.303   7.174 -0.9011 -0.4091 -0.9464
   80SLPC   C28 7402   5.562   1.431   7.317 -0.3368  0.3279  1.1542
   80SLPC   H8R 7403   5.579   1.350   7.391  0.9085 -0.9831 -0.4905
   80SLPC   H8S 7404   5.452   1.426   7.299 -0.6107  1.7494  2.1620
   80SLPC   C29 7405   5.591   1.569   7.372 -0.5666 -0.4483 -0.0676
   80SLPC   H9R 7406   5.595   1.654   7.303  1.3347 -0.9008 -0.5565
   80SLPC  C210 7407   5.641   1.594   7.495  0.1881  0.9176  0.2909
   80SLPC  H10R 7408   5.647   1.698   7.530 -2.4885  0.9251  0.9585
   80SLPC  C211 7409   5.663   1.493   7.615 -0.3625 -0.0172  0.1056
   80SLPC  H11R 7410   5.748   1.538   7.670 -0.9928  1.0308  0.2491
   80SLPC  H11S 7411   5.684   1.391   7.577 -0.5633  0.3704 -1.0725
   80SLPC  C212 7412   5.541   1.490   7.710 -0.0928  0.2722 -0.3224
   80SLPC  H12R 7413   5.448   1.522   7.660 -1.1778  0.9159  1.9498
   80SLPC  C213 7414   5.535   1.449   7.841  0.4836  0.5226  0.3674
   80SLPC  H13R 7415   5.448   1.470   7.904 -0.9580 -0.9318 -1.0654
   80SLPC  C214 7416   5.655   1.394   7.921 -0.2997  0.3578 -0.1793
   80SLPC  H14R 7417   5.741   1.465   7.925 -1.6812  2.4596 -3.4596
   80SLPC  H14S 7418   5.690   1.295   7.886  1.2653  0.9992 -0.5176
   80SLPC  C215 7419   5.609   1.353   8.067  0.7749  0.3395 -0.7466
   80SLPC  H15R 7420   5.696   1.308   8.120 -0.2983 -0.0802  0.7251
   80SLPC  H15S 7421   5.524   1.282   8.068  0.0455  1.1957  0.1406
   80SLPC  C216 7422   5.581   1.472   8.156 -0.0881  0.5816 -0.3790
   80SLPC  H16R 7423   5.503   1.536   8.109  0.5087  1.6703  0.0707
   80SLPC  H16S 7424   5.675   1.530   8.148  2.2228 -2.8536 -0.3257
   80SLPC  C217 7425   5.529   1.425   8.293 -0.7702 -0.9473 -0.8207
   80SLPC  H17R 7426   5.582   1.342   8.343  0.2999 -0.4944 -1.1770
   80SLPC  H17S 7427   5.421   1.399   8.296 -0.9894 -0.0950  1.8997
   80SLPC  C218 7428   5.538   1.542   8.404 -0.1787  0.2045 -0.1866
   80SLPC  H18R 7429   5.630   1.600   8.382 -1.0370  1.9313  0.6374
   80SLPC  H18S 7430   5.539   1.497   8.505 -0.0084 -1.2344 -0.8070
   80SLPC  H18T 7431   5.453   1.613   8.395 -0.3289 -0.0136 -0.5281
   80SLPC   C33 7432   4.954   0.852   6.941  0.3182 -0.4621  0.7503
   80SLPC   H3X 7433   4.866   0.841   6.874 -0.5088  3.4231  0.9386
   80SLPC   H3Y 7434   4.992   0.953   6.913 -2.6474  0.6301  0.2059
   80SLPC   C34 7435   4.902   0.854   7.086 -0.7434 -0.3387  0.6729
   80SLPC   H4X 7436   4.844   0.760   7.089  1.3015 -1.8315 -2.0381
   80SLPC   H4Y 7437   4.832   0.938   7.105  0.4943  1.3197 -1.6236
   80SLPC   C35 7438   5.018   0.848   7.187  0.0273  0.6345 -0.0613
   80SLPC   H5X 7439   5.072   0.945   7.182  1.0218  0.0800 -0.4854
   80SLPC   H5Y 7440   5.079   0.757   7.168 -1.1123 -0.2796  0.5455
   80SLPC   C36 7441   4.962   0.838   7.335  0.2361  0.3331  0.2493
   80SLPC   H6X 7442   4.882   0.761   7.344  0.2653  0.1425 -0.9704
   80SLPC   H6Y 7443   4.909   0.933   7.358 -0.8080 -0.2172  0.2287
   80SLPC   C37 7444   5.075   0.828   7.431  0.3385 -0.2627 -0.1313
   80SLPC   H7X 7445   5.133   0.922   7.421 -1.2523  0.5396 -2.9363
   80SLPC   H7Y 7446   5.142   0.749   7.390 -2.7707 -1.6045 -3.2155
   80SLPC   C38 7447   5.035   0.794   7.575 -0.2284 -0.0801  0.1773
   80SLPC   H8X 7448   5.125   0.774   7.637  0.2701  0.4995 -0.3473
   80SLPC   H8Y 7449   4.973   0.702   7.575 -0.8150  0.3085 -0.3113
   80SLPC   C39 7450   4.942   0.906   7.641 -0.3527 -0.5127 -0.3505
   80SLPC   H9X 7451   4.861   0.935   7.571  1.5827  3.6762 -1.1690
   80SLPC   H9Y 7452   5.009   0.994   7.651 -1.6492  0.4995 -0.3600
   80SLPC  C310 7453   4.883   0.852   7.773  0.1067 -0.3161  0.3634
   80SLPC  H10X 7454   4.965   0.814   7.838  1.0673 -0.4673 -0.9015
   80SLPC  H10Y 7455   4.821   0.761   7.763 -0.2064 -0.4640  2.8699
   80SLPC  C311 7456   4.821   0.959   7.864  0.3421  0.4042  0.4026
   80SLPC  H11X 7457   4.715   0.979   7.837  0.5032  1.2483  0.3502
   80SLPC  H11Y 7458   4.880   1.052   7.878 -0.5619  1.3916 -1.8716
   80SLPC  C312 7459   4.811   0.904   8.012  0.0677 -0.0082  0.6203
   80SLPC  H12X 7460   4.916   0.888   8.043  0.8740  2.4893 -0.5457
   80SLPC  H12Y 7461   4.747   0.813   8.009 -1.5384  1.0817  0.6035
   80SLPC  C313 7462   4.748   1.012   8.107  0.1599 -0.0247 -0.4509
   80SLPC  H13X 7463   4.644   1.034   8.074  0.3834  0.9041 -0.5459
   80SLPC  H13Y 7464   4.803   1.107   8.092 -0.5080  0.2569 -1.1754
   80SLPC  C314 7465   4.748   0.972   8.254 -0.1341  0.1417 -0.2977
   80SLPC  H14X 7466   4.847   0.950   8.299 -1.3968 -1.7027  1.7715
   80SLPC  H14Y 7467   4.698   0.873   8.253  0.8014 -0.3454 -1.5846
   80SLPC  C315 7468   4.671   1.073   8.346  0.1163  0.1451 -0.4979
   80SLPC  H15X 7469   4.578   1.034   8.393  0.5105  0.1830  0.3426
   80SLPC  H15Y 7470   4.620   1.159   8.296  1.2696  1.5637  0.6690
   80SLPC  C316 7471   4.767   1.135   8.450 -0.4179 -0.3956  0.1827
   80SLPC  H16X 7472   4.869   1.147   8.406 -1.1171 -1.3201 -1.7939
   80SLPC  H16Y 7473   4.784   1.067   8.536 -0.9895 -0.6834  0.0694
   80SLPC  C317 7474   4.727   1.288   8.492 -0.1382 -0.1677 -0.4558
   80SLPC  H17X 7475   4.678   1.270   8.589  1.7273  0.5206  0.6726
   80SLPC  H17Y 7476   4.650   1.329   8.423  0.9119 -1.4322 -2.4901
   80SLPC  C318 7477   4.840   1.389   8.500 -0.0015  0.2041  0.2787
   80SLPC  H18X 7478   4.903   1.392   8.408 -2.5319  1.9338 -1.5594
   80SLPC  H18Y 7479   4.910   1.362   8.581 -0.9146 -1.3619  0.5852
   80SLPC  H18Z 7480   4.797   1.489   8.521 -0.4056 -0.2438  1.6898
   81SAPS     N 7481   4.077   5.191  10.992 -0.0810 -0.3299 -0.1483
   81SAPS   HN1 7482   4.010   5.159  10.919 -1.0823 -0.7368  0.9077
   81SAPS   HN2 7483   4.132   5.271  10.955  1.8047 -1.0820  0.9125
   81SAPS   HN3 7484   4.151   5.119  11.006  0.4125 -0.5630 -3.2869
   81SAPS   C12 7485   4.016   5.238  11.118  0.2701  0.2132 -1.1695
   81SAPS  H12A 7486   3.932   5.172  11.135  2.5973 -2.4852  0.8272
   81SAPS   C13 7487   4.110   5.252  11.237  0.1754 -0.8728 -0.0689
   81SAPS  O13A 7488   4.231   5.222  11.224  0.0621 -0.5721 -0.9229
   81SAPS  O13B 7489   4.066   5.312  11.340  0.7800 -0.5797 -0.5047
   81SAPS   C11 7490   3.941   5.373  11.092  0.3840  0.3940  0.0109
   81SAPS  H11A 7491   4.013   5.451  11.058  2.5946 -1.2893  0.5842
   81SAPS  H11B 7492   3.900   5.415  11.186 -0.2062 -1.6659  0.7139
   81SAPS     P 7493   3.755   5.464  10.920 -0.3762  0.2893  0.0044
   81SAPS   O13 7494   3.623   5.404  10.895 -0.0989 -0.1414 -0.0921
   81SAPS   O14 7495   3.775   5.587  11.001  0.2066 -0.6066  0.4387
   81SAPS   O12 7496   3.846   5.352  10.983  0.0337  0.4131  0.1294
   81SAPS   O11 7497   3.835   5.480  10.784  0.1714 -0.0195 -0.3008
   81SAPS    C1 7498   3.846   5.368  10.694  0.5471  0.1659  0.5441
   81SAPS    HA 7499   3.952   5.341  10.672 -0.1408 -1.0358 -1.5615
   81SAPS    HB 7500   3.819   5.269  10.737  1.1043  0.2009  0.9906
   81SAPS    C2 7501   3.765   5.379  10.557 -0.4876 -0.5955  0.2056
   81SAPS    HS 7502   3.775   5.286  10.497 -1.4767 -1.4639  1.3518
   81SAPS   O21 7503   3.802   5.497  10.483  0.3123  0.2379 -0.8610
   81SAPS   C21 7504   3.922   5.500  10.444  0.1141 -0.3545 -0.8433
   81SAPS   O22 7505   4.010   5.410  10.459  0.6692  0.1369  0.5304
   81SAPS   C22 7506   3.950   5.638  10.367 -0.1871 -0.5020 -1.0346
   81SAPS   H2R 7507   3.856   5.696  10.365  0.1544  0.2410  1.4019
   81SAPS   H2S 7508   4.013   5.688  10.445 -2.6681 -1.3791  1.7023
   81SAPS    C3 7509   3.612   5.379  10.578 -0.7617  0.1592 -0.4039
   81SAPS    HX 7510   3.580   5.464  10.642 -0.7225  1.5978 -2.1974
   81SAPS    HY 7511   3.590   5.289  10.639  0.7700  0.5731  0.8442
   81SAPS   O31 7512   3.533   5.393  10.456  0.5957  0.3166  0.1116
   81SAPS   C31 7513   3.507   5.274  10.399 -0.4954 -0.8294  1.0457
   81SAPS   O32 7514   3.534   5.169  10.442  0.1055  0.2367 -0.1893
   81SAPS   C32 7515   3.417   5.299  10.275  0.1058  0.0581  0.4159
   81SAPS   H2X 7516   3.374   5.401  10.270 -0.5115 -0.2444 -1.6270
   81SAPS   H2Y 7517   3.332   5.229  10.293  0.3352 -0.1474  0.6910
   81SAPS   C23 7518   4.020   5.625  10.228  0.2223  0.1909  0.0344
   81SAPS   H3R 7519   4.128   5.612  10.251  0.5423  2.1695 -0.1664
   81SAPS   H3S 7520   4.003   5.724  10.182 -2.4804  0.5693  1.6562
   81SAPS   C24 7521   3.964   5.507  10.141  0.0266 -0.2138 -0.3092
   81SAPS   H4R 7522   3.964   5.415  10.203 -2.1120 -0.7805 -1.0571
   81SAPS   H4S 7523   4.044   5.500  10.064 -0.1012 -0.7013 -0.3984
   81SAPS   C25 7524   3.821   5.533  10.088 -0.6386 -0.2688  0.4356
   81SAPS   H5R 7525   3.753   5.518  10.173 -0.6593  2.8382  1.0973
   81SAPS   C26 7526   3.785   5.563   9.958  0.0875 -0.1518 -0.5685
   81SAPS   H6R 7527   3.678   5.570   9.931  0.2034 -0.2674 -1.0766
   81SAPS   C27 7528   3.893   5.581   9.857 -0.0034 -0.3240  0.1245
   81SAPS   H7R 7529   3.934   5.481   9.830  2.2613  0.2960  1.0746
   81SAPS   H7S 7530   3.987   5.616   9.904  1.5271 -1.2567 -2.0860
   81SAPS   C28 7531   3.864   5.684   9.751  0.0849  0.3030 -0.6239
   81SAPS   H8R 7532   3.877   5.790   9.778  0.2033  0.1490 -0.0615
   81SAPS   C29 7533   3.831   5.649   9.629 -0.0665 -0.1432 -0.1694
   81SAPS   H9R 7534   3.832   5.730   9.554  1.4770 -0.1589 -0.1857
   81SAPS  C210 7535   3.812   5.513   9.583  0.5779 -0.1948 -0.2367
   81SAPS  H10R 7536   3.829   5.430   9.655  1.3378  1.7015  1.8944
   81SAPS  H10S 7537   3.904   5.494   9.525 -0.8735 -0.3965 -2.6010
   81SAPS  C211 7538   3.688   5.477   9.499 -0.3799  0.4111 -0.7152
   81SAPS  H11R 7539   3.610   5.431   9.562  1.3504 -0.3685  0.9301
   81SAPS  C212 7540   3.678   5.501   9.368  0.3175 -0.1512 -0.3742
   81SAPS  H12R 7541   3.581   5.491   9.318  0.4984  3.7420 -1.8641
   81SAPS  C213 7542   3.789   5.563   9.283  0.2658 -0.3889 -0.1159
   81SAPS  H13R 7543   3.768   5.512   9.187  1.5209 -0.7942 -0.1946
   81SAPS  H13S 7544   3.890   5.536   9.322  0.0810  0.5380  1.0613
   81SAPS  C214 7545   3.787   5.717   9.282  0.0202 -0.2296  0.5161
   81SAPS  H14R 7546   3.768   5.768   9.377  0.4920 -0.9579  1.0126
   81SAPS  C215 7547   3.820   5.796   9.174 -0.5027  0.9898  0.4979
   81SAPS  H15R 7548   3.807   5.906   9.174 -1.2501  0.9077  0.7530
   81SAPS  C216 7549   3.866   5.747   9.037  0.0254  0.1461 -0.3994
   81SAPS  H16R 7550   3.876   5.636   9.030 -0.0710  0.1561 -0.7048
   81SAPS  H16S 7551   3.967   5.787   9.016 -0.4956  1.2047 -0.9596
   81SAPS  C217 7552   3.774   5.791   8.925 -0.2040  0.4752  0.7356
   81SAPS  H17R 7553   3.778   5.902   8.912 -1.6760  0.8361  2.8478
   81SAPS  H17S 7554   3.669   5.777   8.958  0.4549  1.2719  3.3714
   81SAPS  C218 7555   3.806   5.722   8.790  0.5472  0.3367  0.2417
   81SAPS  H18R 7556   3.792   5.613   8.804 -1.3891  0.6309  0.8526
   81SAPS  H18S 7557   3.914   5.741   8.769  0.5919 -0.1109  0.0496
   81SAPS  C219 7558   3.709   5.769   8.671 -0.2781 -0.4032  0.6650
   81SAPS  H19R 7559   3.703   5.880   8.663  0.1466 -0.3186  1.4551
   81SAPS  H19S 7560   3.609   5.726   8.691 -2.2486  1.8557 -3.1785
   81SAPS  C220 7561   3.769   5.726   8.539  0.0037  0.2050 -0.0385
   81SAPS  H20R 7562   3.708   5.742   8.447  2.6940 -1.1910 -2.1918
   81SAPS  H20S 7563   3.781   5.617   8.550  1.2042  0.3362  0.0518
   81SAPS  H20T 7564   3.863   5.778   8.512  0.7639 -1.4267 -0.6252
   81SAPS   C33 7565   3.484   5.264  10.143  0.5395  0.8921  0.4806
   81SAPS   H3X 7566   3.541   5.170  10.163  0.2380  1.2909  3.7175
   81SAPS   H3Y 7567   3.553   5.343  10.107  0.0107  1.1618  0.0495
   81SAPS   C34 7568   3.388   5.231  10.025 -0.1017 -0.3534 -0.2493
   81SAPS   H4X 7569   3.291   5.284  10.035 -0.4565 -1.1922  0.8553
   81SAPS   H4Y 7570   3.359   5.125  10.034 -2.9274  0.5114  2.6729
   81SAPS   C35 7571   3.453   5.252   9.884 -0.4613 -0.3871  0.0042
   81SAPS   H5X 7572   3.551   5.200   9.882 -0.5588 -0.5834  0.2446
   81SAPS   H5Y 7573   3.478   5.357   9.855  2.0518 -0.9096  0.0319
   81SAPS   C36 7574   3.363   5.206   9.769 -0.0696  0.1658 -0.0349
   81SAPS   H6X 7575   3.262   5.253   9.773 -0.3371 -0.1375 -2.0525
   81SAPS   H6Y 7576   3.347   5.096   9.770  0.9177  0.0153  1.4501
   81SAPS   C37 7577   3.412   5.221   9.623  0.6105  0.5434  0.3901
   81SAPS   H7X 7578   3.511   5.170   9.616 -0.6293 -2.0163  0.1675
   81SAPS   H7Y 7579   3.423   5.331   9.611  2.2514  0.3924  0.3603
   81SAPS   C38 7580   3.323   5.156   9.515 -0.6363  0.3535  0.0386
   81SAPS   H8X 7581   3.229   5.215   9.502  0.6080  2.4369  0.1546
   81SAPS   H8Y 7582   3.308   5.052   9.553  1.1020 -1.2399 -3.2228
   81SAPS   C39 7583   3.396   5.152   9.386  0.6434 -0.0523  1.0337
   81SAPS   H9X 7584   3.500   5.113   9.397  1.1400  0.6701 -0.7025
   81SAPS   H9Y 7585   3.402   5.253   9.340 -0.1612 -0.7446 -0.6589
   81SAPS  C310 7586   3.325   5.065   9.275 -0.1725 -0.2452  0.8091
   81SAPS  H10X 7587   3.231   5.116   9.245  1.1164  1.0190 -1.4149
   81SAPS  H10Y 7588   3.302   4.966   9.318  0.5195 -0.5152  0.5713
   81SAPS  C311 7589   3.407   5.045   9.147  0.4314 -0.3507 -0.4014
   81SAPS  H11X 7590   3.510   5.008   9.167 -0.0281 -2.9104 -2.3174
   81SAPS  H11Y 7591   3.423   5.148   9.108  0.5115  0.5414  1.8093
   81SAPS  C312 7592   3.337   4.960   9.047  0.5041  0.3502  0.3141
   81SAPS  H12X 7593   3.236   4.994   9.016  0.8067  0.7341 -0.2786
   81SAPS  H12Y 7594   3.325   4.859   9.090 -1.0681  0.5396  0.3837
   81SAPS  C313 7595   3.429   4.943   8.916 -0.3533 -0.0363 -0.5474
   81SAPS  H13X 7596   3.514   4.883   8.956 -0.0856 -0.4312 -1.6945
   81SAPS  H13Y 7597   3.471   5.043   8.891  0.1109 -0.5865 -2.0280
   81SAPS  C314 7598   3.356   4.899   8.794  0.9123 -0.4293  0.0523
   81SAPS  H14X 7599   3.323   4.794   8.807 -0.7655 -0.0260 -0.6958
   81SAPS  H14Y 7600   3.419   4.887   8.704  0.2328 -0.5661 -0.4172
   81SAPS  C315 7601   3.224   4.987   8.759 -0.5349 -0.5517  0.0215
   81SAPS  H15X 7602   3.241   5.095   8.776  0.1156 -0.2042 -2.4676
   81SAPS  H15Y 7603   3.137   4.947   8.815 -2.5132  2.5557 -0.5470
   81SAPS  C316 7604   3.191   4.972   8.608  0.8586 -0.0336 -0.6263
   81SAPS  H16X 7605   3.191   4.863   8.588  0.2923  0.0113 -0.9016
   81SAPS  H16Y 7606   3.269   5.015   8.542 -0.0967  0.1869 -1.6343
   81SAPS  C317 7607   3.053   5.017   8.579  0.6974 -0.4572 -0.1641
   81SAPS  H17X 7608   3.022   5.105   8.640 -0.9501 -2.2883  1.7688
   81SAPS  H17Y 7609   3.001   4.928   8.620  1.3674  0.7178  3.7371
   81SAPS  C318 7610   3.011   5.054   8.433  0.6782 -0.1487 -0.2606
   81SAPS  H18X 7611   2.902   5.076   8.431  0.4504 -0.5095  3.0000
   81SAPS  H18Y 7612   3.029   4.963   8.373  0.1863 -0.7134  0.4431
   81SAPS  H18Z 7613   3.073   5.137   8.390 -2.4651  1.9010 -1.1832
   82SAPS     N 7614   2.150   5.077  11.223 -0.6739 -0.3276  0.2754
   82SAPS   HN1 7615   2.074   5.136  11.262 -0.1864 -0.6271  1.7383
   82SAPS   HN2 7616   2.231   5.059  11.286 -0.1695 -1.8443 -0.7608
   82SAPS   HN3 7617   2.186   5.119  11.135 -1.0973 -1.3158 -0.3851
   82SAPS   C12 7618   2.094   4.941  11.195  0.4672 -0.2687  0.3397
   82SAPS  H12A 7619   2.079   4.892  11.290  0.3035 -3.8792 -1.3701
   82SAPS   C13 7620   1.954   4.938  11.121 -0.1959  0.4802  0.3158
   82SAPS  O13A 7621   1.895   5.046  11.091 -0.2574 -0.1254  0.6268
   82SAPS  O13B 7622   1.924   4.827  11.074  0.3647 -0.3204  0.2815
   82SAPS   C11 7623   2.198   4.849  11.124  0.3525  0.8447 -0.2976
   82SAPS  H11A 7624   2.155   4.746  11.127  1.3081  0.4407 -0.3008
   82SAPS  H11B 7625   2.292   4.845  11.182  0.5481 -1.4728 -0.7075
   82SAPS     P 7626   2.287   4.778  10.900  0.2574 -0.4406 -0.1643
   82SAPS   O13 7627   2.418   4.750  10.961  0.2815 -1.5609  0.0599
   82SAPS   O14 7628   2.191   4.668  10.873 -0.8309 -0.1806  0.3490
   82SAPS   O12 7629   2.225   4.889  10.989 -0.5572 -0.5654  0.4539
   82SAPS   O11 7630   2.306   4.844  10.756  0.2720  0.2796  0.2838
   82SAPS    C1 7631   2.399   4.942  10.739  0.1659 -0.1944  0.2962
   82SAPS    HA 7632   2.349   5.041  10.731  1.1154  0.4170  1.4879
   82SAPS    HB 7633   2.458   4.965  10.830  0.8944  0.8360 -0.4004
   82SAPS    C2 7634   2.499   4.912  10.624  0.7006  0.1751  0.1484
   82SAPS    HS 7635   2.578   4.990  10.614  0.1546  0.5292 -1.7604
   82SAPS   O21 7636   2.429   4.898  10.501  0.5106 -0.0088  0.3395
   82SAPS   C21 7637   2.379   5.003  10.446  0.4718 -0.0256 -0.3889
   82SAPS   O22 7638   2.404   5.113  10.492  0.2499 -0.5583  0.0692
   82SAPS   C22 7639   2.311   4.980  10.311  0.0409  0.3735 -0.2011
   82SAPS   H2R 7640   2.399   4.958  10.247  0.9618 -2.2484  1.8025
   82SAPS   H2S 7641   2.251   4.886  10.314 -0.5719  0.7453 -0.4735
   82SAPS    C3 7642   2.577   4.775  10.654 -0.2212 -0.7237  0.9290
   82SAPS    HX 7643   2.508   4.696  10.691 -0.9620  0.1538  1.4618
   82SAPS    HY 7644   2.643   4.796  10.741 -0.7116  0.8071  0.9493
   82SAPS   O31 7645   2.664   4.735  10.544 -0.4649 -0.6893 -0.5446
   82SAPS   C31 7646   2.624   4.626  10.478 -0.0725  0.0135  0.2640
   82SAPS   O32 7647   2.516   4.569  10.497  0.2815  0.3612  0.2762
   82SAPS   C32 7648   2.733   4.588  10.376  0.3748  0.2104  0.2244
   82SAPS   H2X 7649   2.754   4.483  10.407 -0.1045  0.9378  3.3089
   82SAPS   H2Y 7650   2.831   4.639  10.391  0.5543 -0.5024  1.6780
   82SAPS   C23 7651   2.229   5.105  10.267 -0.7195 -0.1310 -0.1845
   82SAPS   H3R 7652   2.277   5.204  10.282 -1.8488  0.5973 -1.1433
   82SAPS   H3S 7653   2.135   5.109  10.327  0.1858 -0.7856  1.3165
   82SAPS   C24 7654   2.201   5.105  10.114 -0.1583  0.7802  1.0319
   82SAPS   H4R 7655   2.307   5.104  10.078  0.0057  1.2782  1.4866
   82SAPS   H4S 7656   2.157   5.200  10.076  0.4962  1.0283  0.8790
   82SAPS   C25 7657   2.115   5.004  10.052 -0.2206  0.7499 -0.4953
   82SAPS   H5R 7658   2.014   4.998  10.095  0.3856 -0.8493  0.8462
   82SAPS   C26 7659   2.148   4.918   9.957 -0.1965 -0.5534  0.1121
   82SAPS   H6R 7660   2.060   4.856   9.932 -0.5504 -0.6319  1.4428
   82SAPS   C27 7661   2.273   4.897   9.883  0.2159  0.0560  0.5305
   82SAPS   H7R 7662   2.290   4.788   9.887 -0.2474 -0.0567 -0.3352
   82SAPS   H7S 7663   2.361   4.949   9.925  1.7790  0.2021 -2.6085
   82SAPS   C28 7664   2.244   4.944   9.741 -0.9640 -0.2921  0.3175
   82SAPS   H8R 7665   2.275   5.048   9.723  1.4143 -1.0923 -0.6019
   82SAPS   C29 7666   2.201   4.868   9.637  0.4382 -0.1768 -0.3344
   82SAPS   H9R 7667   2.183   4.918   9.541  0.2686 -1.0106 -0.7481
   82SAPS  C210 7668   2.167   4.726   9.635 -0.7025  0.4231  0.2162
   82SAPS  H10R 7669   2.058   4.717   9.613 -0.1908 -3.2356 -1.6734
   82SAPS  H10S 7670   2.182   4.682   9.736  0.2817  1.6578  0.6288
   82SAPS  C211 7671   2.262   4.646   9.545 -0.0862 -0.7631 -0.2779
   82SAPS  H11R 7672   2.369   4.656   9.566  0.0063  1.6002 -1.5477
   82SAPS  C212 7673   2.238   4.569   9.440  0.3812 -0.8833 -0.0320
   82SAPS  H12R 7674   2.316   4.508   9.393  1.2401  0.5963 -0.5943
   82SAPS  C213 7675   2.100   4.543   9.381 -0.0777  0.5824  0.2794
   82SAPS  H13R 7676   2.100   4.588   9.280  0.6806  0.6343  0.2945
   82SAPS  H13S 7677   2.030   4.615   9.429  1.2058  4.1667 -2.6869
   82SAPS  C214 7678   2.049   4.400   9.364 -0.3641 -0.4567  0.1204
   82SAPS  H14R 7679   1.979   4.367   9.443  0.5534  0.6446  1.4459
   82SAPS  C215 7680   2.077   4.322   9.254 -0.2754 -0.2859 -0.4115
   82SAPS  H15R 7681   2.032   4.223   9.265  1.5416 -0.9074  3.0776
   82SAPS  C216 7682   2.167   4.357   9.139  0.5089  0.2377  0.2086
   82SAPS  H16R 7683   2.239   4.439   9.160  1.0179  0.1827 -1.2337
   82SAPS  H16S 7684   2.111   4.413   9.060 -1.0929 -1.0122  0.4033
   82SAPS  C217 7685   2.224   4.220   9.097 -0.8920 -0.1727 -0.0982
   82SAPS  H17R 7686   2.143   4.146   9.076 -0.5206 -0.3491 -0.9261
   82SAPS  H17S 7687   2.289   4.184   9.179 -2.8038 -0.1435  1.5067
   82SAPS  C218 7688   2.309   4.222   8.968  0.3586  0.5899  1.1819
   82SAPS  H18R 7689   2.366   4.126   8.963 -1.2736 -0.3505 -1.1832
   82SAPS  H18S 7690   2.384   4.302   8.985  0.4424  0.9083 -0.5657
   82SAPS  C219 7691   2.234   4.241   8.831 -0.5132  0.1453  0.1315
   82SAPS  H19R 7692   2.312   4.268   8.757 -1.5705  0.4876 -0.8767
   82SAPS  H19S 7693   2.172   4.334   8.829  0.7306  0.9862 -0.7718
   82SAPS  C220 7694   2.166   4.114   8.789  0.5964 -0.1324 -0.3220
   82SAPS  H20R 7695   2.076   4.090   8.849  1.0566 -1.8208 -0.2443
   82SAPS  H20S 7696   2.231   4.027   8.811  1.7877  1.1204  1.3420
   82SAPS  H20T 7697   2.138   4.116   8.682 -0.8539  0.9838  0.0549
   82SAPS   C33 7698   2.673   4.586  10.236  0.2985  0.3963 -0.4222
   82SAPS   H3X 7699   2.639   4.686  10.204  1.2603  0.8823  0.0125
   82SAPS   H3Y 7700   2.589   4.513  10.239  1.9257 -1.6640  4.1415
   82SAPS   C34 7701   2.775   4.537  10.136  0.5668 -0.0488  0.5796
   82SAPS   H4X 7702   2.786   4.428  10.148 -1.1346 -0.0813  2.3348
   82SAPS   H4Y 7703   2.877   4.575  10.161  1.5765 -2.4241  0.3053
   82SAPS   C35 7704   2.733   4.576   9.993 -0.4865  0.2325  0.1761
   82SAPS   H5X 7705   2.744   4.685   9.976  1.5091 -0.0538 -0.6419
   82SAPS   H5Y 7706   2.625   4.552   9.982 -0.2347 -2.1079  1.9807
   82SAPS   C36 7707   2.801   4.499   9.883 -0.1791 -0.3108  0.0614
   82SAPS   H6X 7708   2.789   4.391   9.905  0.4386 -0.6812 -1.3273
   82SAPS   H6Y 7709   2.911   4.512   9.879 -0.0580 -1.1147  0.6651
   82SAPS   C37 7710   2.733   4.529   9.743 -0.4537  0.1733  0.2657
   82SAPS   H7X 7711   2.737   4.635   9.710 -1.9564  0.4931  1.0625
   82SAPS   H7Y 7712   2.626   4.501   9.745 -0.1781 -0.9169  2.1079
   82SAPS   C38 7713   2.815   4.451   9.627  0.2031 -0.0146 -0.1804
   82SAPS   H8X 7714   2.793   4.345   9.654 -1.9856  0.9043  2.0743
   82SAPS   H8Y 7715   2.920   4.483   9.640 -0.0882  0.6963  0.5059
   82SAPS   C39 7716   2.762   4.493   9.485 -0.2488  0.3528  0.4857
   82SAPS   H9X 7717   2.847   4.478   9.414 -0.2861 -2.6403  0.9500
   82SAPS   H9Y 7718   2.742   4.602   9.487 -2.1963  0.2910 -3.9488
   82SAPS  C310 7719   2.628   4.432   9.437 -0.0251 -0.7453  0.8818
   82SAPS  H10X 7720   2.556   4.499   9.487 -1.1920 -0.0145 -1.5909
   82SAPS  H10Y 7721   2.621   4.327   9.472  2.5214 -0.2972  3.0887
   82SAPS  C311 7722   2.598   4.445   9.286 -0.5919 -0.2853 -0.3233
   82SAPS  H11X 7723   2.502   4.397   9.260 -0.5356 -0.0606 -0.9532
   82SAPS  H11Y 7724   2.671   4.384   9.228  0.1746 -1.2789  1.5864
   82SAPS  C312 7725   2.603   4.594   9.230  0.7010 -0.2617  0.7656
   82SAPS  H12X 7726   2.704   4.637   9.251  0.5690  0.5396 -0.1994
   82SAPS  H12Y 7727   2.519   4.651   9.274  1.6421  1.5056  0.3317
   82SAPS  C313 7728   2.587   4.589   9.077 -1.2194 -0.5275  1.0016
   82SAPS  H13X 7729   2.550   4.687   9.039  0.8825 -0.7679 -2.0402
   82SAPS  H13Y 7730   2.521   4.506   9.043  1.7573 -1.3044 -3.8246
   82SAPS  C314 7731   2.725   4.558   9.015  0.5836  0.2008 -0.2266
   82SAPS  H14X 7732   2.762   4.455   9.038 -3.8069 -2.6908 -4.0789
   82SAPS  H14Y 7733   2.794   4.634   9.055  2.6922 -2.5534  1.7541
   82SAPS  C315 7734   2.709   4.555   8.867 -0.3623 -0.6380 -0.5039
   82SAPS  H15X 7735   2.635   4.633   8.839 -2.4456 -2.3690 -0.0408
   82SAPS  H15Y 7736   2.654   4.465   8.834 -0.4442 -0.5721 -0.5479
   82SAPS  C316 7737   2.837   4.563   8.781  0.3665 -0.1345  0.2469
   82SAPS  H16X 7738   2.906   4.479   8.805 -0.3940 -0.5278  1.1257
   82SAPS  H16Y 7739   2.881   4.660   8.816 -0.8462  0.1039  1.1914
   82SAPS  C317 7740   2.804   4.561   8.625  0.0799 -0.1925 -0.4434
   82SAPS  H17X 7741   2.881   4.619   8.569  0.6355 -1.2800 -0.8378
   82SAPS  H17Y 7742   2.706   4.612   8.624 -0.2646 -0.7091  1.6259
   82SAPS  C318 7743   2.798   4.419   8.567 -0.2981 -0.6726 -0.2216
   82SAPS  H18X 7744   2.721   4.362   8.623  0.5720 -1.2285  0.4313
   82SAPS  H18Y 7745   2.892   4.365   8.589  0.8774  1.2754 -0.1880
   82SAPS  H18Z 7746   2.784   4.409   8.458  0.2541 -2.5823 -0.1482
   83SAPS     N 7747   5.407   0.529  11.017  0.2394 -0.7093  0.0468
   83SAPS   HN1 7748   5.478   0.476  11.072  1.2068  0.6179  0.1422
   83SAPS   HN2 7749   5.391   0.483  10.925  3.4055  1.6822 -1.8995
   83SAPS   HN3 7750   5.445   0.625  11.005  2.3488 -1.3636  1.0151
   83SAPS   C12 7751   5.278   0.548  11.096 -0.0223 -0.3502 -0.2504
   83SAPS  H12A 7752   5.299   0.521  11.198  1.5164  1.9604  0.1338
   83SAPS   C13 7753   5.241   0.699  11.110 -0.5422 -0.1743  0.6955
   83SAPS  O13A 7754   5.326   0.788  11.070  0.2052  0.0876  0.1597
   83SAPS  O13B 7755   5.131   0.742  11.155  0.1130 -0.2901 -0.1279
   83SAPS   C11 7756   5.161   0.467  11.041  0.3867 -0.5544  0.3386
   83SAPS  H11A 7757   5.065   0.487  11.094  1.6948  2.5529  1.7810
   83SAPS  H11B 7758   5.180   0.358  11.051 -0.5091 -0.6159  1.6800
   83SAPS     P 7759   5.041   0.406  10.809 -0.1948 -0.5251  0.3687
   83SAPS   O13 7760   5.106   0.278  10.794 -0.2333 -0.0367  0.2106
   83SAPS   O14 7761   4.907   0.402  10.875 -0.4255 -0.3616 -0.0529
   83SAPS   O12 7762   5.145   0.494  10.897  0.2103 -0.0681  0.0223
   83SAPS   O11 7763   5.030   0.478  10.666  0.2065  0.0583  0.2135
   83SAPS    C1 7764   5.136   0.556  10.613  0.9779  0.7832 -0.6803
   83SAPS    HA 7765   5.128   0.664  10.638 -2.8320  0.9160 -1.8532
   83SAPS    HB 7766   5.234   0.512  10.641  1.0768  0.6259 -1.2539
   83SAPS    C2 7767   5.139   0.543  10.463  0.3928 -0.3439  0.3559
   83SAPS    HS 7768   5.238   0.559  10.414  0.0899 -1.5092 -0.7031
   83SAPS   O21 7769   5.053   0.644  10.411  0.2403  0.4948  0.0768
   83SAPS   C21 7770   5.085   0.702  10.292 -0.1017  0.0243 -0.3296
   83SAPS   O22 7771   5.185   0.674  10.226 -0.4324 -0.1348  0.6005
   83SAPS   C22 7772   4.994   0.811  10.242 -0.4135 -0.3871 -0.7506
   83SAPS   H2R 7773   4.902   0.766  10.198 -0.0072 -0.3695 -1.6516
   83SAPS   H2S 7774   4.965   0.881  10.323 -0.3458 -1.1156 -0.0804
   83SAPS    C3 7775   5.080   0.403  10.404 -0.6592 -0.1768  0.3218
   83SAPS    HX 7776   4.978   0.411  10.446 -0.9311 -1.5553 -0.0500
   83SAPS    HY 7777   5.141   0.329  10.459  1.1281  1.6267  0.8731
   83SAPS   O31 7778   5.094   0.387  10.264 -0.5626  0.2471  0.0623
   83SAPS   C31 7779   5.216   0.348  10.219  0.6969  0.2065 -0.5458
   83SAPS   O32 7780   5.306   0.319  10.293 -0.6275  0.0298  0.1597
   83SAPS   C32 7781   5.221   0.369  10.060  0.4384 -0.3382 -0.2470
   83SAPS   H2X 7782   5.220   0.478  10.039 -1.5082 -0.3342 -0.2750
   83SAPS   H2Y 7783   5.118   0.336  10.036 -0.0185  0.7164  0.1998
   83SAPS   C23 7784   5.055   0.896  10.123  0.2046  0.1900 -0.5817
   83SAPS   H3R 7785   5.077   0.828  10.038  2.0054 -1.8960  1.4276
   83SAPS   H3S 7786   5.149   0.948  10.149 -0.4816  0.6752  1.0443
   83SAPS   C24 7787   4.961   1.001  10.059  0.2492 -0.2244 -0.0325
   83SAPS   H4R 7788   5.022   1.046   9.978  0.1211 -0.6534 -0.3721
   83SAPS   H4S 7789   4.942   1.066  10.146  0.6978  0.4935 -0.4667
   83SAPS   C25 7790   4.829   0.946  10.005 -0.4232 -0.5859  0.2037
   83SAPS   H5R 7791   4.758   0.910  10.082 -1.1873  0.3652 -0.0273
   83SAPS   C26 7792   4.800   0.934   9.871 -0.1824  0.3020 -0.2974
   83SAPS   H6R 7793   4.702   0.896   9.839 -0.4344 -0.4350  1.2669
   83SAPS   C27 7794   4.891   0.960   9.752  0.4742 -0.1203  0.2324
   83SAPS   H7R 7795   4.995   0.931   9.779  0.2033 -0.0695  1.3607
   83SAPS   H7S 7796   4.891   1.069   9.733 -0.6828 -0.5382 -2.7931
   83SAPS   C28 7797   4.856   0.889   9.622  0.2584 -0.8450 -0.0059
   83SAPS   H8R 7798   4.797   0.796   9.624 -0.4061 -0.4726 -1.3828
   83SAPS   C29 7799   4.901   0.928   9.500 -0.4301  0.2600 -0.0218
   83SAPS   H9R 7800   4.864   0.878   9.409 -0.8266  1.2249 -0.4072
   83SAPS  C210 7801   4.993   1.045   9.463  0.3244  0.5591 -0.2300
   83SAPS  H10R 7802   4.981   1.136   9.527 -1.5147 -0.6575  1.2685
   83SAPS  H10S 7803   4.954   1.088   9.368  1.0646  1.2614 -0.2322
   83SAPS  C211 7804   5.137   0.997   9.452  1.3579 -0.9401 -0.3742
   83SAPS  H11R 7805   5.163   0.912   9.516  2.2190  0.4333  1.1936
   83SAPS  C212 7806   5.230   1.055   9.380 -0.5652  0.2784  0.1247
   83SAPS  H12R 7807   5.332   1.014   9.387 -1.2576 -1.3932  1.1096
   83SAPS  C213 7808   5.216   1.174   9.288  0.6132 -0.3051  0.0324
   83SAPS  H13R 7809   5.286   1.251   9.326 -2.3424  2.7204 -0.1680
   83SAPS  H13S 7810   5.113   1.214   9.304  1.4297  0.8497  3.1882
   83SAPS  C214 7811   5.241   1.142   9.138  0.5323  0.4122 -0.5882
   83SAPS  H14R 7812   5.265   1.040   9.105 -1.9474  0.0759 -1.5522
   83SAPS  C215 7813   5.213   1.223   9.038 -0.1122 -0.5495  0.6685
   83SAPS  H15R 7814   5.245   1.206   8.934 -2.1488 -1.5361  0.1507
   83SAPS  C216 7815   5.140   1.358   9.061  0.3367  0.1531  0.5239
   83SAPS  H16R 7816   5.110   1.376   9.166 -1.5092  0.4464 -0.0167
   83SAPS  H16S 7817   5.054   1.363   8.991  0.3887 -2.9151  0.1182
   83SAPS  C217 7818   5.235   1.474   9.022  0.6280  0.7515  0.2951
   83SAPS  H17R 7819   5.325   1.473   9.088  0.7259  3.2291  0.2787
   83SAPS  H17S 7820   5.175   1.566   9.034  1.2068  1.3058 -0.8766
   83SAPS  C218 7821   5.291   1.475   8.876 -0.8895  0.1090  0.9861
   83SAPS  H18R 7822   5.352   1.384   8.858  1.4666  1.1344  3.2380
   83SAPS  H18S 7823   5.358   1.563   8.870  0.9649 -1.2716  0.5011
   83SAPS  C219 7824   5.192   1.505   8.762  0.3583 -0.6639 -0.7044
   83SAPS  H19R 7825   5.125   1.592   8.774  0.7759 -0.4008 -0.2651
   83SAPS  H19S 7826   5.130   1.413   8.758  1.9468 -1.7934 -0.2884
   83SAPS  C220 7827   5.246   1.522   8.614 -0.1580 -0.2878 -0.7059
   83SAPS  H20R 7828   5.319   1.603   8.593  0.7679 -0.8344  0.3003
   83SAPS  H20S 7829   5.153   1.536   8.556 -2.1660 -2.9926  1.6237
   83SAPS  H20T 7830   5.293   1.425   8.587 -0.3161 -0.7669  0.6587
   83SAPS   C33 7831   5.333   0.289   9.990  0.4975  0.1597 -0.1951
   83SAPS   H3X 7832   5.347   0.186  10.030 -0.7803 -0.8368 -2.1406
   83SAPS   H3Y 7833   5.429   0.343  10.004 -0.5422  2.4478 -1.3167
   83SAPS   C34 7834   5.290   0.274   9.845  0.8217  0.2175 -1.1311
   83SAPS   H4X 7835   5.382   0.285   9.785  1.3238  1.7790 -0.1502
   83SAPS   H4Y 7836   5.227   0.362   9.823  0.7738 -0.2135 -2.8220
   83SAPS   C35 7837   5.218   0.143   9.824  0.1163  0.5234 -0.2301
   83SAPS   H5X 7838   5.136   0.115   9.893 -1.7374  0.4840 -2.3292
   83SAPS   H5Y 7839   5.284   0.053   9.822 -0.4352  0.1069  0.0656
   83SAPS   C36 7840   5.143   0.149   9.687  0.1982 -0.0108  0.2978
   83SAPS   H6X 7841   5.073   0.234   9.684  0.5000  0.2259 -0.4382
   83SAPS   H6Y 7842   5.085   0.056   9.667 -0.0361  0.4071 -1.1066
   83SAPS   C37 7843   5.238   0.163   9.569  0.1929  0.1241  0.8273
   83SAPS   H7X 7844   5.305   0.075   9.579  0.2532  0.0963  0.2011
   83SAPS   H7Y 7845   5.316   0.242   9.564  0.2901 -0.0254 -0.5784
   83SAPS   C38 7846   5.160   0.161   9.437 -0.0977  1.0360 -0.3405
   83SAPS   H8X 7847   5.081   0.238   9.437 -0.5838  0.5459 -0.2877
   83SAPS   H8Y 7848   5.100   0.069   9.419  0.0379  1.0964 -1.1572
   83SAPS   C39 7849   5.253   0.183   9.317  0.1941 -0.6549  0.1250
   83SAPS   H9X 7850   5.333   0.106   9.315  1.4290  0.5193  2.0825
   83SAPS   H9Y 7851   5.295   0.284   9.338 -1.6502  0.2926 -0.4696
   83SAPS  C310 7852   5.178   0.188   9.184  0.3552 -0.6659  0.0833
   83SAPS  H10X 7853   5.088   0.250   9.203  0.3463 -0.7148  0.1991
   83SAPS  H10Y 7854   5.151   0.085   9.152  0.3181 -0.3947 -0.7781
   83SAPS  C311 7855   5.253   0.255   9.073 -0.2431 -0.8313 -0.4475
   83SAPS  H11X 7856   5.312   0.182   9.013  1.5518 -0.2726  0.5592
   83SAPS  H11Y 7857   5.319   0.330   9.122  0.1653 -0.6288 -1.2919
   83SAPS  C312 7858   5.161   0.336   8.976  0.0515 -0.1935 -0.4911
   83SAPS  H12X 7859   5.230   0.372   8.897  1.4793  2.6144  1.8629
   83SAPS  H12Y 7860   5.118   0.429   9.019 -0.0247 -1.0246  1.3247
   83SAPS  C313 7861   5.042   0.260   8.917 -0.2167  0.2017  0.2114
   83SAPS  H13X 7862   4.975   0.213   8.991 -0.2717 -1.6219 -0.9454
   83SAPS  H13Y 7863   5.088   0.173   8.866 -0.7052 -0.4310  0.8445
   83SAPS  C314 7864   4.964   0.342   8.817 -0.2316  0.6651  0.5710
   83SAPS  H14X 7865   5.035   0.405   8.759 -1.1910 -0.1823 -1.5917
   83SAPS  H14Y 7866   4.891   0.405   8.873 -0.1643 -0.1676  1.6247
   83SAPS  C315 7867   4.892   0.249   8.713 -0.3541 -0.0438 -0.5546
   83SAPS  H15X 7868   4.863   0.166   8.780 -0.9650  0.8564  0.3255
   83SAPS  H15Y 7869   4.967   0.210   8.641 -0.0052  1.8893 -1.2982
   83SAPS  C316 7870   4.767   0.306   8.655  0.3190 -0.1809 -0.0176
   83SAPS  H16X 7871   4.785   0.408   8.614 -0.2786 -0.3678 -0.7625
   83SAPS  H16Y 7872   4.699   0.326   8.741  1.5695  1.1998  0.7025
   83SAPS  C317 7873   4.709   0.219   8.539 -0.5679 -0.4973 -0.7155
   83SAPS  H17X 7874   4.789   0.208   8.463 -1.1680 -0.0805 -1.4244
   83SAPS  H17Y 7875   4.614   0.266   8.505 -1.2514 -0.0281  1.6711
   83SAPS  C318 7876   4.673   0.076   8.591  0.2421  0.3729  0.8601
   83SAPS  H18X 7877   4.762   0.013   8.611  0.1423 -0.8950 -2.1376
   83SAPS  H18Y 7878   4.621   0.021   8.509  1.5018  1.7540 -0.9334
   83SAPS  H18Z 7879   4.603   0.075   8.678 -2.3430  3.1294 -0.9729
   84SAPS     N 7880   4.677   2.605  11.291 -0.3390 -0.2096  0.6979
   84SAPS   HN1 7881   4.732   2.684  11.330  1.0343 -2.1572  2.9435
   84SAPS   HN2 7882   4.638   2.546  11.368 -0.7333 -2.1729 -0.9090
   84SAPS   HN3 7883   4.742   2.537  11.246 -0.9811  0.9221 -2.1661
   84SAPS   C12 7884   4.571   2.652  11.201 -0.6363 -0.1013 -0.0060
   84SAPS  H12A 7885   4.544   2.572  11.133  2.4896 -0.8559 -0.4796
   84SAPS   C13 7886   4.442   2.702  11.259 -0.4789  0.3969 -0.5384
   84SAPS  O13A 7887   4.416   2.708  11.383 -0.4778  0.2738 -0.1503
   84SAPS  O13B 7888   4.348   2.712  11.172  0.3232  0.6860  0.2787
   84SAPS   C11 7889   4.616   2.777  11.121  0.7580 -0.0040 -1.0191
   84SAPS  H11A 7890   4.615   2.862  11.193 -1.1263 -1.0707  0.3160
   84SAPS  H11B 7891   4.538   2.795  11.044 -1.0225 -0.8379  0.5061
   84SAPS     P 7892   4.813   2.894  11.001 -0.2951 -0.1219 -0.0187
   84SAPS   O13 7893   4.711   3.000  10.961  0.1199 -0.3370  0.4638
   84SAPS   O14 7894   4.918   2.928  11.105  0.2982 -0.9695  0.2886
   84SAPS   O12 7895   4.736   2.757  11.045  0.3478  0.5167  0.3151
   84SAPS   O11 7896   4.887   2.846  10.872 -0.3454 -0.8400 -0.1190
   84SAPS    C1 7897   4.838   2.750  10.782  0.6559  0.1456 -0.5380
   84SAPS    HA 7898   4.914   2.672  10.763 -0.3876 -1.4330  1.3754
   84SAPS    HB 7899   4.744   2.699  10.813  1.5393 -0.8432  0.5598
   84SAPS    C2 7900   4.809   2.827  10.651 -0.5902 -0.2042 -0.2758
   84SAPS    HS 7901   4.769   2.750  10.581 -1.5669 -1.5902  1.7371
   84SAPS   O21 7902   4.939   2.880  10.597 -0.2418 -0.2172 -0.3235
   84SAPS   C21 7903   4.948   2.882  10.460 -0.1847  1.0307 -0.0627
   84SAPS   O22 7904   4.869   2.825  10.390 -0.0778 -0.3117  0.6636
   84SAPS   C22 7905   5.066   2.964  10.410 -0.6990 -0.4303 -0.5759
   84SAPS   H2R 7906   5.068   3.053  10.477 -1.1417  0.2399 -1.4268
   84SAPS   H2S 7907   5.159   2.905  10.421 -0.1451  0.7169  1.4546
   84SAPS    C3 7908   4.716   2.943  10.659 -0.1525 -0.3948 -0.4252
   84SAPS    HX 7909   4.766   3.027  10.711 -0.6454 -0.7591  0.6705
   84SAPS    HY 7910   4.632   2.910  10.723  0.2780 -0.5304  0.0708
   84SAPS   O31 7911   4.668   2.984  10.529 -0.2552  0.5450 -0.4025
   84SAPS   C31 7912   4.544   3.022  10.516 -0.1341  0.6286  0.0922
   84SAPS   O32 7913   4.458   3.013  10.601 -0.2379 -0.0059  0.3243
   84SAPS   C32 7914   4.517   3.061  10.372  0.4586 -0.6632 -0.0730
   84SAPS   H2X 7915   4.462   3.158  10.380  0.0282 -0.8248 -0.9876
   84SAPS   H2Y 7916   4.460   2.977  10.327  0.2980 -1.4571  1.5307
   84SAPS   C23 7917   5.046   3.014  10.269 -0.1431  0.2092 -0.0542
   84SAPS   H3R 7918   4.948   3.063  10.253  0.1464  0.7196 -0.2837
   84SAPS   H3S 7919   5.051   2.937  10.189  1.6515  0.8533 -0.6113
   84SAPS   C24 7920   5.140   3.131  10.247 -0.4176  0.0147 -0.3219
   84SAPS   H4R 7921   5.150   3.182  10.345  0.8561 -1.6297  0.4591
   84SAPS   H4S 7922   5.094   3.211  10.185 -0.2902  1.0967  0.9152
   84SAPS   C25 7923   5.286   3.112  10.206 -0.2810  0.1575 -0.0582
   84SAPS   H5R 7924   5.352   3.066  10.280  0.7995 -0.0493 -1.1195
   84SAPS   C26 7925   5.336   3.147  10.084 -1.0750  0.4636 -0.7141
   84SAPS   H6R 7926   5.437   3.118  10.053 -1.4365 -2.0097  0.2098
   84SAPS   C27 7927   5.257   3.218   9.975  0.0858  0.3761  0.3280
   84SAPS   H7R 7928   5.321   3.283   9.912 -0.8380  0.9308 -0.0523
   84SAPS   H7S 7929   5.185   3.287  10.024  1.2805  0.2745  2.3601
   84SAPS   C28 7930   5.205   3.109   9.880 -0.3081  0.0986 -0.6133
   84SAPS   H8R 7931   5.212   3.006   9.919  0.4523  1.0923  2.1173
   84SAPS   C29 7932   5.167   3.117   9.749 -0.9954  0.1763  0.0549
   84SAPS   H9R 7933   5.143   3.023   9.698  0.9373  0.2869 -1.1590
   84SAPS  C210 7934   5.162   3.242   9.664 -0.1341  0.6393  0.1640
   84SAPS  H10R 7935   5.114   3.321   9.725 -1.2513  1.9398 -2.2525
   84SAPS  H10S 7936   5.088   3.216   9.585  0.3668  2.4921 -0.9785
   84SAPS  C211 7937   5.286   3.301   9.607 -0.1312 -0.2471 -1.1479
   84SAPS  H11R 7938   5.340   3.370   9.674 -1.3033 -1.4634  1.1643
   84SAPS  C212 7939   5.325   3.284   9.473 -0.3304  0.4824  0.5971
   84SAPS  H12R 7940   5.420   3.337   9.454 -0.1863 -0.4123 -1.4302
   84SAPS  C213 7941   5.261   3.195   9.363  0.3293 -0.6974 -0.2553
   84SAPS  H13R 7942   5.209   3.110   9.412  0.1978 -0.3993  0.1229
   84SAPS  H13S 7943   5.341   3.164   9.292  1.0509  1.2864 -0.3684
   84SAPS  C214 7944   5.165   3.288   9.291 -0.5446 -0.2173  0.4208
   84SAPS  H14R 7945   5.083   3.327   9.353  0.3480 -1.3358  2.3991
   84SAPS  C215 7946   5.150   3.303   9.159 -0.2215  0.3061  0.3716
   84SAPS  H15R 7947   5.078   3.377   9.120  1.7228  2.1549  0.1041
   84SAPS  C216 7948   5.240   3.227   9.060  0.2791 -0.4266 -0.1731
   84SAPS  H16R 7949   5.186   3.221   8.963 -1.1922  0.3397  0.5717
   84SAPS  H16S 7950   5.277   3.128   9.094 -0.0974 -0.3600  0.4516
   84SAPS  C217 7951   5.351   3.330   9.021 -0.5018 -0.4035 -0.2283
   84SAPS  H17R 7952   5.401   3.354   9.117 -0.7634 -0.7318 -0.0045
   84SAPS  H17S 7953   5.310   3.421   8.973  0.7551  0.5244  0.4135
   84SAPS  C218 7954   5.446   3.255   8.926  0.2772 -1.4411  0.2840
   84SAPS  H18R 7955   5.383   3.209   8.846 -1.3808  0.9350  0.0968
   84SAPS  H18S 7956   5.496   3.179   8.989 -0.1228 -2.9572 -1.1557
   84SAPS  C219 7957   5.542   3.366   8.862 -0.3472  0.5862 -0.5929
   84SAPS  H19R 7958   5.584   3.415   8.953 -1.8931  1.9195 -0.5426
   84SAPS  H19S 7959   5.485   3.448   8.813  0.4477  1.3649 -0.2510
   84SAPS  C220 7960   5.649   3.318   8.769 -0.1777  0.4587  0.3258
   84SAPS  H20R 7961   5.610   3.289   8.669 -0.0638 -0.3283  0.5034
   84SAPS  H20S 7962   5.720   3.243   8.809  0.0274  1.0084  0.9990
   84SAPS  H20T 7963   5.716   3.402   8.739 -0.8798 -0.2669 -3.8833
   84SAPS   C33 7964   4.636   3.087  10.281 -0.4180 -0.0502 -0.5550
   84SAPS   H3X 7965   4.677   2.987  10.253 -2.6067 -1.8362  2.1042
   84SAPS   H3Y 7966   4.719   3.137  10.337  0.0590 -2.7562  1.3623
   84SAPS   C34 7967   4.598   3.181  10.170 -0.2893 -0.3546  0.8093
   84SAPS   H4X 7968   4.597   3.285  10.211  0.4816  0.5974 -1.4373
   84SAPS   H4Y 7969   4.501   3.150  10.125  0.0024 -0.9658  0.5986
   84SAPS   C35 7970   4.690   3.186  10.046  0.0906  0.0585  0.5535
   84SAPS   H5X 7971   4.715   3.080  10.024 -0.7328 -0.2380  1.0106
   84SAPS   H5Y 7972   4.788   3.238  10.045 -0.5718  1.3590 -0.7972
   84SAPS   C36 7973   4.621   3.238   9.919 -0.0900  0.0734 -0.7781
   84SAPS   H6X 7974   4.649   3.344   9.902 -0.7268  1.0490  3.3348
   84SAPS   H6Y 7975   4.510   3.239   9.929 -0.4724 -1.3966 -3.6798
   84SAPS   C37 7976   4.645   3.147   9.798 -0.8710  0.2456 -0.1561
   84SAPS   H7X 7977   4.558   3.159   9.730 -1.3392  2.0551  0.6865
   84SAPS   H7Y 7978   4.621   3.047   9.841  0.0947 -0.1627 -0.5463
   84SAPS   C38 7979   4.786   3.166   9.739 -0.3123  0.1571  0.2292
   84SAPS   H8X 7980   4.868   3.136   9.808  2.8743  1.6735 -2.5751
   84SAPS   H8Y 7981   4.809   3.272   9.718  2.9944 -0.4624  0.2110
   84SAPS   C39 7982   4.805   3.082   9.611 -0.2446 -0.2017  0.2690
   84SAPS   H9X 7983   4.795   2.972   9.626  2.0211 -0.7468 -1.6361
   84SAPS   H9Y 7984   4.909   3.102   9.578 -0.7169  1.4123 -0.2880
   84SAPS  C310 7985   4.715   3.120   9.493  0.4033  0.1062  0.2177
   84SAPS  H10X 7986   4.737   3.226   9.471  1.2015 -0.4497 -2.0069
   84SAPS  H10Y 7987   4.607   3.097   9.505  0.2402  1.4847  1.5795
   84SAPS  C311 7988   4.766   3.052   9.357  0.0136 -0.4059 -0.4201
   84SAPS  H11X 7989   4.789   2.944   9.373  3.3476 -0.1484 -2.4604
   84SAPS  H11Y 7990   4.864   3.098   9.334 -1.7927  4.4387  0.3922
   84SAPS  C312 7991   4.681   3.084   9.235  0.3241 -0.5211  0.3262
   84SAPS  H12X 7992   4.671   3.195   9.230 -1.1393 -0.6103  0.7681
   84SAPS  H12Y 7993   4.578   3.046   9.247 -0.2747  0.8675 -0.1668
   84SAPS  C313 7994   4.737   3.040   9.101 -0.1704  0.3702  0.8140
   84SAPS  H13X 7995   4.752   2.930   9.107  0.4518  0.3828 -0.1100
   84SAPS  H13Y 7996   4.837   3.082   9.076 -0.8062  1.0021 -0.7903
   84SAPS  C314 7997   4.636   3.086   8.994 -0.2605  0.1021  0.4215
   84SAPS  H14X 7998   4.635   3.196   8.987 -3.4323  0.1633  0.2412
   84SAPS  H14Y 7999   4.530   3.059   9.013 -0.4731  0.4313 -0.3026
   84SAPS  C315 8000   4.672   3.017   8.861 -0.8139  0.5392 -1.8713
   84SAPS  H15X 8001   4.693   2.911   8.883 -0.1084  0.6617 -1.9391
   84SAPS  H15Y 8002   4.762   3.067   8.818  0.7095 -1.6400 -1.3733
   84SAPS  C316 8003   4.562   3.029   8.762  0.3030  0.1661  0.0059
   84SAPS  H16X 8004   4.463   3.016   8.811  0.3857  4.0147  1.5364
   84SAPS  H16Y 8005   4.576   2.945   8.690 -0.1031 -0.6868  0.9059
   84SAPS  C317 8006   4.554   3.167   8.696  0.2051  0.1074 -0.2723
   84SAPS  H17X 8007   4.636   3.182   8.622  0.8101 -0.7100  0.2235
   84SAPS  H17Y 8008   4.573   3.238   8.780  0.3395 -1.1853  0.8145
   84SAPS  C318 8009   4.427   3.202   8.621  0.3605 -0.4813  0.0969
   84SAPS  H18X 8010   4.448   3.297   8.566 -2.2804 -0.9467 -1.9073
   84SAPS  H18Y 8011   4.347   3.209   8.697  0.6106 -1.4550  0.4562
   84SAPS  H18Z 8012   4.402   3.123   8.546 -0.2195 -0.4610  0.2643
   85SAPS     N 8013   4.376   5.465  11.139  0.1189 -0.6102  0.1356
   85SAPS   HN1 8014   4.439   5.501  11.213 -1.9493 -0.1656  1.7728
   85SAPS   HN2 8015   4.300   5.533  11.116  0.7907 -0.1920 -0.9864
   85SAPS   HN3 8016   4.330   5.377  11.168 -0.5299  0.3251  2.1588
   85SAPS   C12 8017   4.456   5.442  11.007  0.2415  0.1519  0.2096
   85SAPS  H12A 8018   4.535   5.370  11.021  0.0325 -0.4996 -1.6988
   85SAPS   C13 8019   4.369   5.386  10.894  0.3636 -0.9783 -0.0361
   85SAPS  O13A 8020   4.240   5.373  10.903  0.1656  0.0449 -0.4089
   85SAPS  O13B 8021   4.416   5.389  10.779 -0.0101  0.4995  0.5414
   85SAPS   C11 8022   4.523   5.582  10.975  0.0155 -0.5002 -0.3129
   85SAPS  H11A 8023   4.439   5.654  10.962  0.2811 -0.5109 -2.4664
   85SAPS  H11B 8024   4.584   5.577  10.883 -0.0551  0.8886 -0.4504
   85SAPS     P 8025   4.720   5.711  11.090 -0.0467 -0.1348  0.3478
   85SAPS   O13 8026   4.692   5.832  11.161 -0.1064 -1.1364  0.0989
   85SAPS   O14 8027   4.836   5.633  11.136  0.1033  0.2545  0.0974
   85SAPS   O12 8028   4.597   5.616  11.088 -0.2845 -0.4592 -0.5858
   85SAPS   O11 8029   4.739   5.750  10.940 -0.2442 -0.3473  0.0567
   85SAPS    C1 8030   4.677   5.864  10.885 -0.0635 -0.5031 -0.0235
   85SAPS    HA 8031   4.579   5.892  10.929 -0.8471 -0.2368 -1.8359
   85SAPS    HB 8032   4.751   5.945  10.899 -1.1693  0.2743  1.5113
   85SAPS    C2 8033   4.636   5.843  10.735  0.0658 -0.5185  0.2595
   85SAPS    HS 8034   4.570   5.754  10.729  1.1273 -1.5014  2.3227
   85SAPS   O21 8035   4.751   5.802  10.663  0.0846  0.4479  0.2102
   85SAPS   C21 8036   4.733   5.734  10.549  0.3338 -0.5639  0.5460
   85SAPS   O22 8037   4.624   5.697  10.503 -0.2917  0.2926 -0.1672
   85SAPS   C22 8038   4.863   5.707  10.495 -0.0810  0.1453 -0.2192
   85SAPS   H2R 8039   4.919   5.643  10.566  1.1506 -0.3483 -1.5930
   85SAPS   H2S 8040   4.861   5.654  10.397 -2.0410 -0.8513  0.3169
   85SAPS    C3 8041   4.582   5.979  10.673 -0.2833  0.3028 -0.0338
   85SAPS    HX 8042   4.671   6.044  10.686  1.7868 -2.1020 -1.3034
   85SAPS    HY 8043   4.500   6.018  10.738  0.6286  0.1280  1.2725
   85SAPS   O31 8044   4.564   5.973  10.532 -0.1883  0.3906  0.3549
   85SAPS   C31 8045   4.434   5.943  10.507 -0.9330  0.1806  0.8358
   85SAPS   O32 8046   4.350   5.906  10.586 -0.4108 -0.5194 -0.6259
   85SAPS   C32 8047   4.418   5.957  10.355  0.3548  0.0088  0.0882
   85SAPS   H2X 8048   4.489   5.887  10.306 -0.2798 -0.0592 -0.7595
   85SAPS   H2Y 8049   4.434   6.063  10.326  0.7094 -0.2054 -0.5040
   85SAPS   C23 8050   4.938   5.836  10.475  0.8847 -0.2407 -0.5009
   85SAPS   H3R 8051   5.042   5.799  10.462  0.2014 -2.3560 -0.3524
   85SAPS   H3S 8052   4.935   5.896  10.569 -4.2506 -1.6685  0.6026
   85SAPS   C24 8053   4.922   5.918  10.348  0.9155 -0.2119 -0.5857
   85SAPS   H4R 8054   4.986   6.007  10.364 -0.8542  0.6065  3.2021
   85SAPS   H4S 8055   4.821   5.961  10.364  0.5900 -0.4155 -1.9936
   85SAPS   C25 8056   4.939   5.855  10.212  0.0993 -0.2563 -0.2663
   85SAPS   H5R 8057   4.857   5.783  10.193 -2.3814  1.6264  2.2950
   85SAPS   C26 8058   5.019   5.895  10.121 -0.1225  0.0143 -0.2951
   85SAPS   H6R 8059   5.015   5.855  10.018 -1.2581  0.9834 -0.6495
   85SAPS   C27 8060   5.116   6.011  10.123  0.2225  0.0121  0.3510
   85SAPS   H7R 8061   5.203   5.977  10.182  0.8086  1.7894  0.5497
   85SAPS   H7S 8062   5.073   6.092  10.184  0.2082 -0.8204  1.4757
   85SAPS   C28 8063   5.149   6.063   9.986 -0.1362  0.1013 -0.1259
   85SAPS   H8R 8064   5.087   6.150   9.958 -0.7718 -0.9444 -2.1684
   85SAPS   C29 8065   5.233   6.016   9.890 -0.2452 -0.4215 -0.0343
   85SAPS   H9R 8066   5.247   6.071   9.796  2.9539 -0.0483  0.5611
   85SAPS  C210 8067   5.310   5.879   9.907 -0.7138 -0.0990 -0.8706
   85SAPS  H10R 8068   5.244   5.793   9.934 -1.2796 -0.2579 -2.6639
   85SAPS  H10S 8069   5.378   5.897   9.993  0.2816  3.4307 -2.2564
   85SAPS  C211 8070   5.391   5.832   9.798 -0.6261  0.5655  0.2038
   85SAPS  H11R 8071   5.498   5.819   9.819 -0.7022  1.6100  1.2847
   85SAPS  C212 8072   5.359   5.775   9.682 -0.3106 -0.1811 -0.9331
   85SAPS  H12R 8073   5.443   5.751   9.614 -1.8750 -0.5291 -2.8218
   85SAPS  C213 8074   5.222   5.746   9.623 -0.3577 -0.2157  0.1899
   85SAPS  H13R 8075   5.204   5.815   9.537 -2.2546  0.7244  1.2826
   85SAPS  H13S 8076   5.147   5.780   9.697 -1.4038  3.2389 -2.1880
   85SAPS  C214 8077   5.207   5.602   9.589 -0.5122  0.4275 -0.1112
   85SAPS  H14R 8078   5.261   5.538   9.660  0.9145  0.7899 -0.8510
   85SAPS  C215 8079   5.125   5.550   9.494  0.6514 -1.0804 -0.7836
   85SAPS  H15R 8080   5.129   5.440   9.496  1.0579 -1.0602  1.4923
   85SAPS  C216 8081   5.034   5.625   9.398 -0.8934  0.5570  0.6485
   85SAPS  H16R 8082   5.055   5.732   9.374  0.1739  0.8321  2.6267
   85SAPS  H16S 8083   4.932   5.634   9.441 -0.7417  0.0504  1.1131
   85SAPS  C217 8084   5.040   5.557   9.259 -0.4947 -0.0492  0.1098
   85SAPS  H17R 8085   5.024   5.448   9.273 -1.1393  0.1604  1.1259
   85SAPS  H17S 8086   5.138   5.566   9.207 -0.2358 -0.1613  0.5642
   85SAPS  C218 8087   4.940   5.605   9.149 -0.4951 -0.0478  0.2030
   85SAPS  H18R 8088   4.943   5.716   9.141 -2.8020  0.0629  0.2497
   85SAPS  H18S 8089   4.838   5.571   9.176  0.2051 -1.6188  1.0127
   85SAPS  C219 8090   4.963   5.534   9.011  0.1924 -0.2233  0.3162
   85SAPS  H19R 8091   4.971   5.424   9.023  1.2537 -0.0993  0.8179
   85SAPS  H19S 8092   5.059   5.572   8.971  1.3508 -1.4842  1.8000
   85SAPS  C220 8093   4.847   5.579   8.913 -0.6577 -0.2576 -0.9361
   85SAPS  H20R 8094   4.827   5.688   8.906 -1.8680 -0.2941  0.9733
   85SAPS  H20S 8095   4.753   5.529   8.947 -1.1830  1.2478 -0.0871
   85SAPS  H20T 8096   4.862   5.537   8.811  0.5834  2.1995 -1.8454
   85SAPS   C33 8097   4.276   5.928  10.300  0.2813 -1.1077  0.2446
   85SAPS   H3X 8098   4.205   5.987  10.362  3.0612  1.8613  0.8711
   85SAPS   H3Y 8099   4.254   5.820  10.318  1.1801 -1.4608 -0.7003
   85SAPS   C34 8100   4.248   5.981  10.152  0.3697 -0.4081 -1.0613
   85SAPS   H4X 8101   4.251   6.092  10.152 -0.1627 -0.3570 -3.2272
   85SAPS   H4Y 8102   4.144   5.950  10.127 -0.1506  0.1551  0.2617
   85SAPS   C35 8103   4.367   5.945  10.058 -0.5409  0.5457 -0.6386
   85SAPS   H5X 8104   4.360   5.835  10.047 -1.0444  0.6649 -1.6172
   85SAPS   H5Y 8105   4.458   5.979  10.111 -1.5550  0.4022  1.2942
   85SAPS   C36 8106   4.349   6.010   9.923 -1.2212  0.1689  0.0953
   85SAPS   H6X 8107   4.420   5.970   9.847 -1.6326  0.6227 -0.5342
   85SAPS   H6Y 8108   4.368   6.119   9.924  1.4317 -0.1972 -1.1292
   85SAPS   C37 8109   4.220   5.981   9.856 -0.2803 -0.0946 -1.0196
   85SAPS   H7X 8110   4.146   6.043   9.911  0.6674 -0.6558  0.9528
   85SAPS   H7Y 8111   4.195   5.874   9.873  1.9019 -0.4377  0.4516
   85SAPS   C38 8112   4.216   6.010   9.707  0.6664  0.6694  0.2539
   85SAPS   H8X 8113   4.294   5.944   9.664 -0.3958 -0.6762  0.3308
   85SAPS   H8Y 8114   4.244   6.113   9.678 -0.9874  1.5572  1.6425
   85SAPS   C39 8115   4.078   5.959   9.656  0.1158 -0.3388 -0.6416
   85SAPS   H9X 8116   4.006   6.014   9.721  0.6885  1.6536 -1.6191
   85SAPS   H9Y 8117   4.080   5.848   9.648 -0.0428 -0.3666 -0.2994
   85SAPS  C310 8118   4.046   6.000   9.510 -0.3549 -0.0288  0.3138
   85SAPS  H10X 8119   4.053   6.111   9.508 -1.5026  0.0457 -0.3588
   85SAPS  H10Y 8120   3.946   5.975   9.468  0.3490  1.0531 -2.2280
   85SAPS  C311 8121   4.151   5.946   9.416  0.2710  0.9029  0.7302
   85SAPS  H11X 8122   4.127   5.839   9.398 -0.5204  1.0804  0.6967
   85SAPS  H11Y 8123   4.252   5.968   9.457 -0.0929  1.6076  1.2895
   85SAPS  C312 8124   4.140   6.029   9.292 -0.3096 -0.3195  0.1499
   85SAPS  H12X 8125   4.162   6.130   9.332  2.9977 -1.4137  1.4142
   85SAPS  H12Y 8126   4.039   6.014   9.247  0.2378  0.5297 -1.4439
   85SAPS  C313 8127   4.247   6.008   9.186  0.0779  0.5051  0.3395
   85SAPS  H13X 8128   4.248   5.906   9.142  2.4006  1.2154 -1.5145
   85SAPS  H13Y 8129   4.348   6.032   9.227 -0.3000  1.4765  0.7266
   85SAPS  C314 8130   4.239   6.095   9.063  0.1725 -0.4397  0.0835
   85SAPS  H14X 8131   4.319   6.062   8.993  0.8593  0.2627  0.5298
   85SAPS  H14Y 8132   4.252   6.201   9.092  1.1799 -0.0755 -1.5295
   85SAPS  C315 8133   4.104   6.068   8.997  0.8919 -0.1106  0.1237
   85SAPS  H15X 8134   4.023   6.107   9.062 -0.4953 -0.8502 -1.0936
   85SAPS  H15Y 8135   4.070   5.963   8.979  0.4787 -0.1097  0.8887
   85SAPS  C316 8136   4.107   6.145   8.864  0.4400 -0.5249 -0.1583
   85SAPS  H16X 8137   4.187   6.102   8.800 -0.0192 -0.5421 -0.7347
   85SAPS  H16Y 8138   4.124   6.249   8.897 -0.3702 -1.0875  2.2925
   85SAPS  C317 8139   3.983   6.113   8.786  0.4993  0.1582  0.5896
   85SAPS  H17X 8140   3.890   6.155   8.830  1.3106  2.8566 -0.0886
   85SAPS  H17Y 8141   3.962   6.004   8.779 -2.9726  0.7557 -0.4991
   85SAPS  C318 8142   3.999   6.175   8.647 -0.4544  0.3454  1.0479
   85SAPS  H18X 8143   4.093   6.138   8.601 -0.7318  1.5399 -0.5737
   85SAPS  H18Y 8144   4.002   6.284   8.630  0.5253  0.2847  0.7649
   85SAPS  H18Z 8145   3.920   6.150   8.574  2.1883  0.3803 -2.0760
   86SAPS     N 8146   6.591   6.326  11.028 -0.0503  0.4334  0.2424
   86SAPS   HN1 8147   6.654   6.266  10.972  0.1888  0.3101  0.6396
   86SAPS   HN2 8148   6.496   6.303  10.991  0.2865 -1.2745  0.3430
   86SAPS   HN3 8149   6.611   6.424  11.003  0.4254  0.2426 -0.1340
   86SAPS   C12 8150   6.597   6.304  11.169 -0.6717 -0.4180  0.1578
   86SAPS  H12A 8151   6.599   6.197  11.184  0.0331 -0.5905 -0.9774
   86SAPS   C13 8152   6.725   6.359  11.241  0.1902  0.0291 -0.5272
   86SAPS  O13A 8153   6.826   6.389  11.178 -1.0604 -0.2537 -0.0262
   86SAPS  O13B 8154   6.730   6.345  11.368  0.4274 -0.1262  0.0869
   86SAPS   C11 8155   6.469   6.352  11.233  0.0057  0.3818  0.5704
   86SAPS  H11A 8156   6.454   6.459  11.208 -1.7432 -0.0939 -0.5883
   86SAPS  H11B 8157   6.476   6.334  11.342  0.1861  0.3521  0.5547
   86SAPS     P 8158   6.231   6.316  11.115  0.3823  0.0530 -0.2558
   86SAPS   O13 8159   6.147   6.210  11.064 -0.7102 -0.2819  0.5373
   86SAPS   O14 8160   6.172   6.427  11.195  0.1466  0.2553 -0.1048
   86SAPS   O12 8161   6.364   6.265  11.175 -0.2799 -0.4263 -0.4601
   86SAPS   O11 8162   6.309   6.382  10.992 -0.1317  0.6390  0.0794
   86SAPS    C1 8163   6.276   6.372  10.856 -0.6638 -0.4666 -0.0331
   86SAPS    HA 8164   6.165   6.386  10.856 -0.8045 -1.5092 -0.3608
   86SAPS    HB 8165   6.314   6.464  10.807 -3.3428  0.7966  0.0595
   86SAPS    C2 8166   6.325   6.247  10.774  0.7241  0.1453  0.2197
   86SAPS    HS 8167   6.275   6.157  10.815  1.7237 -1.7078 -2.3465
   86SAPS   O21 8168   6.467   6.235  10.784  0.4132  0.4246  0.3414
   86SAPS   C21 8169   6.516   6.128  10.721 -0.0617  0.1303 -0.1506
   86SAPS   O22 8170   6.452   6.029  10.700  1.0143  0.1339 -0.1247
   86SAPS   C22 8171   6.664   6.148  10.702  0.0161 -0.4081 -0.2289
   86SAPS   H2R 8172   6.683   6.257  10.688 -1.2519  0.2846  2.6648
   86SAPS   H2S 8173   6.714   6.125  10.799  0.0369  0.4317 -0.0284
   86SAPS    C3 8174   6.267   6.251  10.632 -0.0442  0.7153 -0.3200
   86SAPS    HX 8175   6.161   6.281  10.641 -0.1642  0.1700  0.1953
   86SAPS    HY 8176   6.243   6.151  10.590 -0.8791  1.2891 -1.2429
   86SAPS   O31 8177   6.343   6.334  10.541 -0.0245  0.8423  0.1568
   86SAPS   C31 8178   6.280   6.367  10.432 -0.3986  0.3415 -0.2355
   86SAPS   O32 8179   6.170   6.326  10.395 -0.2111  0.4675  0.5185
   86SAPS   C32 8180   6.382   6.449  10.348 -0.2083  0.4403 -0.8512
   86SAPS   H2X 8181   6.479   6.397  10.338  0.2323  1.4021 -1.7044
   86SAPS   H2Y 8182   6.397   6.539  10.412  0.0178 -0.1635 -0.0335
   86SAPS   C23 8183   6.723   6.069  10.589 -0.1685 -0.2363 -0.1585
   86SAPS   H3R 8184   6.719   5.958  10.599  2.0317 -0.1941  1.8577
   86SAPS   H3S 8185   6.830   6.095  10.599 -0.1661 -0.4418  0.4020
   86SAPS   C24 8186   6.681   6.110  10.444  0.4548 -0.5694  0.1815
   86SAPS   H4R 8187   6.764   6.109  10.371  2.0542 -1.0662  1.9170
   86SAPS   H4S 8188   6.647   6.216  10.448  0.7374 -0.3656 -1.9441
   86SAPS   C25 8189   6.577   6.021  10.393  1.3501 -0.2058  0.0107
   86SAPS   H5R 8190   6.514   5.986  10.475  1.5918  0.7041  0.6017
   86SAPS   C26 8191   6.535   5.990  10.271 -0.0594 -0.5779  0.0482
   86SAPS   H6R 8192   6.444   5.928  10.270 -0.8851  0.6067  0.1818
   86SAPS   C27 8193   6.590   6.059  10.150  0.5070 -0.0838  0.6545
   86SAPS   H7R 8194   6.616   6.163  10.180 -0.5675 -0.5599  3.5634
   86SAPS   H7S 8195   6.508   6.075  10.075  1.7148  1.4909 -0.4064
   86SAPS   C28 8196   6.699   5.976  10.098 -0.0339  0.2639  0.3679
   86SAPS   H8R 8197   6.777   5.959  10.173  0.7439  1.6172 -0.1021
   86SAPS   C29 8198   6.701   5.908   9.981 -0.4666 -0.0178 -0.2005
   86SAPS   H9R 8199   6.791   5.854   9.946 -0.0729  1.1371 -1.0153
   86SAPS  C210 8200   6.587   5.904   9.882  0.1526 -0.1576  0.6422
   86SAPS  H10R 8201   6.493   5.952   9.917  1.0775  0.1855  2.7411
   86SAPS  H10S 8202   6.557   5.800   9.854  0.8237 -0.1344 -0.2190
   86SAPS  C211 8203   6.626   5.978   9.756  1.0082  0.3077  0.2460
   86SAPS  H11R 8204   6.603   6.086   9.763  1.8215  0.5582 -0.7252
   86SAPS  C212 8205   6.674   5.928   9.639  0.1746  0.2842  0.6804
   86SAPS  H12R 8206   6.692   5.996   9.554 -1.5720 -0.0023  0.0342
   86SAPS  C213 8207   6.706   5.785   9.612 -0.7162 -0.1248 -0.5417
   86SAPS  H13R 8208   6.728   5.737   9.710  2.2043 -0.6467 -1.3647
   86SAPS  H13S 8209   6.805   5.779   9.563  0.2244 -0.1548  1.2740
   86SAPS  C214 8210   6.600   5.705   9.544  0.9317 -0.2095 -0.0675
   86SAPS  H14R 8211   6.527   5.685   9.624  2.2118  2.6045  1.9482
   86SAPS  C215 8212   6.574   5.663   9.418  0.3867  0.3205 -0.5152
   86SAPS  H15R 8213   6.480   5.612   9.393 -0.3245  1.9075 -1.2573
   86SAPS  C216 8214   6.669   5.683   9.302 -0.1600  0.2655  0.0723
   86SAPS  H16R 8215   6.772   5.706   9.337 -0.5043  1.5094  0.3217
   86SAPS  H16S 8216   6.637   5.773   9.245  0.3698  0.1593 -0.4022
   86SAPS  C217 8217   6.684   5.556   9.210 -0.1386  0.4974 -0.8773
   86SAPS  H17R 8218   6.585   5.530   9.167 -1.0262 -0.5492  1.5626
   86SAPS  H17S 8219   6.703   5.469   9.277  0.1068 -0.3592 -2.0308
   86SAPS  C218 8220   6.786   5.561   9.097  0.4217 -0.2898  0.2675
   86SAPS  H18R 8221   6.814   5.459   9.064 -2.0117 -0.8512 -0.2537
   86SAPS  H18S 8222   6.876   5.614   9.135  0.4369  0.6078 -0.9370
   86SAPS  C219 8223   6.740   5.638   8.971  0.7017 -0.0462 -0.0908
   86SAPS  H19R 8224   6.704   5.740   8.995 -1.1635 -0.1818 -1.9603
   86SAPS  H19S 8225   6.648   5.583   8.941 -0.7886  0.1840  3.5856
   86SAPS  C220 8226   6.841   5.641   8.865  0.3742 -0.7860  0.6356
   86SAPS  H20R 8227   6.814   5.704   8.778  1.7814  0.9602  1.3792
   86SAPS  H20S 8228   6.876   5.537   8.848 -1.9547 -2.4373  4.5732
   86SAPS  H20T 8229   6.924   5.698   8.913 -0.2327  0.5785  0.1291
   86SAPS   C33 8230   6.336   6.487  10.212  0.7152 -0.5336  0.5573
   86SAPS   H3X 8231   6.238   6.540  10.206 -0.8762 -3.2968  0.2426
   86SAPS   H3Y 8232   6.336   6.400  10.143  0.8090 -0.5119  0.5296
   86SAPS   C34 8233   6.448   6.570  10.143  0.4390  0.3912 -0.0688
   86SAPS   H4X 8234   6.543   6.513  10.154 -0.5347 -1.4177 -0.6330
   86SAPS   H4Y 8235   6.426   6.665  10.197 -1.4362 -0.0291 -0.0375
   86SAPS   C35 8236   6.430   6.591   9.997 -1.0812  0.5692  0.1794
   86SAPS   H5X 8237   6.454   6.692   9.957  0.4342 -0.3004 -1.2865
   86SAPS   H5Y 8238   6.321   6.584   9.981 -0.9921 -1.3664  0.2590
   86SAPS   C36 8239   6.497   6.481   9.924  0.6197  0.6374 -0.3973
   86SAPS   H6X 8240   6.456   6.384   9.959  1.0284  0.8744  0.7644
   86SAPS   H6Y 8241   6.606   6.494   9.940  0.8835  1.1218 -2.3131
   86SAPS   C37 8242   6.479   6.491   9.775 -0.8955 -0.0066  0.3967
   86SAPS   H7X 8243   6.373   6.496   9.741 -0.9888 -1.0770  0.5017
   86SAPS   H7Y 8244   6.509   6.397   9.724 -0.7746  0.6655 -0.8110
   86SAPS   C38 8245   6.558   6.603   9.702  0.5128 -0.6919 -0.0906
   86SAPS   H8X 8246   6.665   6.578   9.685  0.5686 -1.1047  0.7929
   86SAPS   H8Y 8247   6.562   6.689   9.771 -1.6805 -1.3537  0.9529
   86SAPS   C39 8248   6.494   6.663   9.571 -0.0605 -0.0337 -0.4015
   86SAPS   H9X 8249   6.527   6.768   9.561  1.6382 -0.6685 -1.8935
   86SAPS   H9Y 8250   6.384   6.649   9.561  0.0215  0.6364 -2.8111
   86SAPS  C310 8251   6.555   6.598   9.442 -0.1147 -0.5469 -0.2504
   86SAPS  H10X 8252   6.529   6.494   9.470 -1.8146  0.9065  4.5429
   86SAPS  H10Y 8253   6.666   6.602   9.435 -0.1438  0.8568 -0.3161
   86SAPS  C311 8254   6.484   6.638   9.312  0.4562  0.1116 -0.0722
   86SAPS  H11X 8255   6.537   6.717   9.255  1.1907  0.0707  0.5456
   86SAPS  H11Y 8256   6.382   6.676   9.331  0.7487  1.2661 -0.7527
   86SAPS  C312 8257   6.478   6.508   9.218 -0.0353 -0.0186  0.3905
   86SAPS  H12X 8258   6.398   6.441   9.257 -0.4567  0.0287 -0.3879
   86SAPS  H12Y 8259   6.576   6.456   9.224 -0.4606 -0.9414 -0.4637
   86SAPS  C313 8260   6.457   6.538   9.070  0.0124  0.3112 -0.0290
   86SAPS  H13X 8261   6.544   6.587   9.020  0.4653 -0.3112  0.1224
   86SAPS  H13Y 8262   6.372   6.608   9.062 -1.0549 -1.0482 -1.3973
   86SAPS  C314 8263   6.424   6.407   8.992 -0.4326 -0.0844  0.3135
   86SAPS  H14X 8264   6.346   6.356   9.052 -1.0875 -0.0970 -0.5407
   86SAPS  H14Y 8265   6.514   6.342   8.994 -1.1140 -1.0607 -0.2195
   86SAPS  C315 8266   6.380   6.417   8.839 -1.1437 -0.2030 -1.0700
   86SAPS  H15X 8267   6.289   6.480   8.835 -3.2113 -2.6722  1.9632
   86SAPS  H15Y 8268   6.349   6.318   8.799  0.4617 -0.6173 -1.3877
   86SAPS  C316 8269   6.492   6.470   8.755  0.4521 -0.2067  0.3604
   86SAPS  H16X 8270   6.581   6.405   8.745  0.6153 -0.0365  0.6751
   86SAPS  H16Y 8271   6.539   6.557   8.806 -0.1319  0.3400 -0.0081
   86SAPS  C317 8272   6.441   6.532   8.623  0.0846 -0.2418  0.1285
   86SAPS  H17X 8273   6.399   6.632   8.649  0.0029 -0.1475 -0.3390
   86SAPS  H17Y 8274   6.364   6.470   8.572  0.1733  1.7974 -2.8026
   86SAPS  C318 8275   6.552   6.541   8.520  0.1248 -0.1819 -0.0511
   86SAPS  H18X 8276   6.647   6.574   8.567 -1.0660  1.5371  1.2765
   86SAPS  H18Y 8277   6.526   6.630   8.459  0.7401 -1.3085 -2.0268
   86SAPS  H18Z 8278   6.580   6.456   8.454 -0.9773  0.9567 -2.0863
   87SAPS     N 8279   3.874   6.762  10.960  0.5686 -0.1635  0.1114
   87SAPS   HN1 8280   3.842   6.711  11.045 -2.2125  1.4950  0.2031
   87SAPS   HN2 8281   3.811   6.844  10.950 -1.3238 -1.4880  0.3914
   87SAPS   HN3 8282   3.865   6.687  10.888  0.5081 -1.7693  1.7090
   87SAPS   C12 8283   4.017   6.807  10.962  0.6503  0.4009 -0.6796
   87SAPS  H12A 8284   4.032   6.828  10.857 -0.8827 -1.0608 -1.2412
   87SAPS   C13 8285   4.031   6.945  11.020  0.2250 -0.7236 -0.1331
   87SAPS  O13A 8286   3.933   7.004  11.077  0.0235  0.5448 -0.2775
   87SAPS  O13B 8287   4.141   6.999  11.031 -0.5494  0.6694  0.2725
   87SAPS   C11 8288   4.111   6.700  11.030 -0.0419  0.4198 -0.3068
   87SAPS  H11A 8289   4.090   6.706  11.139  1.8329  2.0921  0.0293
   87SAPS  H11B 8290   4.216   6.734  11.014  0.5256 -0.7642  0.6777
   87SAPS     P 8291   4.177   6.454  11.061  0.2856 -0.2248  0.0218
   87SAPS   O13 8292   4.269   6.505  11.167 -0.1836 -0.4769 -0.2415
   87SAPS   O14 8293   4.085   6.348  11.104  0.4046 -0.3298 -0.4191
   87SAPS   O12 8294   4.089   6.568  10.980  0.1228 -0.4754 -0.6977
   87SAPS   O11 8295   4.266   6.395  10.947 -0.1605 -0.5063  0.5929
   87SAPS    C1 8296   4.366   6.472  10.889  0.3328 -0.7822  0.7530
   87SAPS    HA 8297   4.395   6.560  10.951  0.9794 -1.8605  2.0430
   87SAPS    HB 8298   4.457   6.409  10.874  2.5607  2.4663 -0.5137
   87SAPS    C2 8299   4.339   6.526  10.740 -1.0606 -0.2941  0.8612
   87SAPS    HS 8300   4.257   6.598  10.764 -2.0519 -1.8120  2.3005
   87SAPS   O21 8301   4.302   6.426  10.650  0.2974  0.1921 -0.3092
   87SAPS   C21 8302   4.174   6.393  10.656 -0.8323 -0.1315  0.2316
   87SAPS   O22 8303   4.085   6.442  10.728 -0.4637  0.3949 -0.0410
   87SAPS   C22 8304   4.150   6.287  10.555  0.2441  0.4528  0.4207
   87SAPS   H2R 8305   4.239   6.292  10.489  1.0802  1.1011  1.5662
   87SAPS   H2S 8306   4.136   6.193  10.613 -1.6276  0.2078 -0.3434
   87SAPS    C3 8307   4.454   6.608  10.675 -0.9028 -0.1075  0.7522
   87SAPS    HX 8308   4.540   6.541  10.696 -0.1366  0.1318 -1.3057
   87SAPS    HY 8309   4.469   6.707  10.722  0.2755  0.1518 -0.1171
   87SAPS   O31 8310   4.435   6.618  10.535 -0.5233  0.7376 -0.2647
   87SAPS   C31 8311   4.369   6.713  10.483  0.3249 -0.0784  0.3978
   87SAPS   O32 8312   4.333   6.810  10.543 -0.0464 -0.6050  0.3033
   87SAPS   C32 8313   4.329   6.675  10.344 -0.2539 -0.0665  0.0884
   87SAPS   H2X 8314   4.228   6.630  10.341  0.3780 -1.5834  0.7905
   87SAPS   H2Y 8315   4.414   6.614  10.307  0.3396  2.4668 -3.2179
   87SAPS   C23 8316   4.022   6.304  10.470  0.8768 -0.3771 -0.1761
   87SAPS   H3R 8317   3.935   6.321  10.538  0.4998  1.5743 -1.1019
   87SAPS   H3S 8318   4.003   6.204  10.425 -0.3010 -0.0149 -0.5321
   87SAPS   C24 8319   4.036   6.408  10.354  0.7177 -0.0685 -1.0647
   87SAPS   H4R 8320   4.128   6.383  10.298  2.6321  0.2196  1.7154
   87SAPS   H4S 8321   4.049   6.511  10.394  0.2261 -0.7841  1.1096
   87SAPS   C25 8322   3.914   6.400  10.271  0.4733 -0.4605 -0.5560
   87SAPS   H5R 8323   3.817   6.380  10.321  0.4110  0.3330 -0.3393
   87SAPS   C26 8324   3.916   6.395  10.136 -0.4807 -0.0555 -0.3775
   87SAPS   H6R 8325   3.820   6.410  10.084 -0.2066  0.0769 -0.8543
   87SAPS   C27 8326   4.024   6.403  10.034  0.1956 -0.0312 -1.2563
   87SAPS   H7R 8327   4.059   6.303   9.998  0.4329 -0.4476  0.0923
   87SAPS   H7S 8328   4.107   6.454  10.088 -0.8047 -1.1544  1.5222
   87SAPS   C28 8329   3.977   6.505   9.924 -1.1869  0.8731  0.2778
   87SAPS   H8R 8330   3.954   6.608   9.957 -0.6557  1.3696 -0.8252
   87SAPS   C29 8331   3.964   6.486   9.787 -0.1958 -0.4033  0.0574
   87SAPS   H9R 8332   3.926   6.575   9.736 -0.1016 -0.8621 -0.8276
   87SAPS  C210 8333   3.990   6.367   9.696  1.2547  0.2626 -0.2804
   87SAPS  H10R 8334   4.033   6.290   9.765 -0.8364  1.5787  2.7082
   87SAPS  H10S 8335   4.063   6.392   9.616 -1.1483  0.6968 -2.4518
   87SAPS  C211 8336   3.871   6.300   9.636 -0.3167 -1.3014  0.1054
   87SAPS  H11R 8337   3.827   6.222   9.700 -0.4164  0.3087  2.0931
   87SAPS  C212 8338   3.821   6.334   9.519 -0.4494  0.5807 -0.1885
   87SAPS  H12R 8339   3.727   6.290   9.484  0.5002 -1.1570 -0.6775
   87SAPS  C213 8340   3.880   6.449   9.431  0.8441 -0.2497  0.2929
   87SAPS  H13R 8341   3.911   6.536   9.493 -0.1938  0.6677 -0.4278
   87SAPS  H13S 8342   3.798   6.493   9.370  1.7038  1.0215  0.0363
   87SAPS  C214 8343   3.992   6.393   9.342 -0.1384 -0.0885  0.0136
   87SAPS  H14R 8344   4.081   6.360   9.397 -0.5915  2.1533  2.2526
   87SAPS  C215 8345   4.006   6.387   9.208  0.0638  0.5356  0.3336
   87SAPS  H15R 8346   4.100   6.353   9.163  0.8570  2.3306  0.5450
   87SAPS  C216 8347   3.905   6.427   9.106  0.1736 -0.5310  0.7634
   87SAPS  H16R 8348   3.818   6.480   9.149  0.7027  1.3331 -0.3476
   87SAPS  H16S 8349   3.852   6.341   9.061  0.5113 -0.1436 -0.4027
   87SAPS  C217 8350   3.946   6.547   9.006  0.6316 -0.3419  0.6764
   87SAPS  H17R 8351   4.030   6.516   8.940  0.9939  1.3518  0.3043
   87SAPS  H17S 8352   3.989   6.635   9.058 -0.8752  1.5147 -1.0606
   87SAPS  C218 8353   3.835   6.588   8.914  0.1663 -0.3925  0.7700
   87SAPS  H18R 8354   3.784   6.681   8.947  0.6193  0.7374 -1.5471
   87SAPS  H18S 8355   3.754   6.512   8.923 -0.9147  0.7766  1.1222
   87SAPS  C219 8356   3.878   6.601   8.769 -0.0212 -0.6469  0.3427
   87SAPS  H19R 8357   3.800   6.561   8.700  0.7668 -0.2241 -0.8301
   87SAPS  H19S 8358   3.969   6.544   8.737  0.3580  0.5208 -0.7698
   87SAPS  C220 8359   3.887   6.748   8.724  0.4507  0.0250 -0.4556
   87SAPS  H20R 8360   3.788   6.796   8.742 -0.1369 -1.3069 -0.0407
   87SAPS  H20S 8361   3.905   6.758   8.614 -1.2622 -1.2303 -0.9008
   87SAPS  H20T 8362   3.963   6.800   8.786 -1.1079  0.1100  1.4659
   87SAPS   C33 8363   4.344   6.809  10.263 -0.2767 -0.7508 -0.4248
   87SAPS   H3X 8364   4.427   6.873  10.299 -0.9105  1.4266 -2.6190
   87SAPS   H3Y 8365   4.251   6.868  10.265 -1.9321 -3.2059  1.7964
   87SAPS   C34 8366   4.384   6.772  10.123  0.6819 -0.0822  0.6691
   87SAPS   H4X 8367   4.482   6.719  10.122  1.1804  0.7461  1.8326
   87SAPS   H4Y 8368   4.414   6.861  10.063 -1.1023 -1.2140 -2.0757
   87SAPS   C35 8369   4.280   6.693  10.043  0.1174 -0.2734  0.3845
   87SAPS   H5X 8370   4.230   6.764   9.974  0.1654 -0.4742  0.1421
   87SAPS   H5Y 8371   4.218   6.641  10.120 -0.0417 -0.5896  0.0490
   87SAPS   C36 8372   4.337   6.591   9.939  0.3425  0.0461 -0.3811
   87SAPS   H6X 8373   4.256   6.526   9.901  0.6417 -0.4547 -0.1717
   87SAPS   H6Y 8374   4.416   6.532   9.991  0.4625  0.4599 -0.0865
   87SAPS   C37 8375   4.401   6.649   9.815  0.3824  0.0549 -0.0616
   87SAPS   H7X 8376   4.496   6.601   9.783  1.6826  2.1438  0.4781
   87SAPS   H7Y 8377   4.442   6.747   9.847  0.7741 -0.0112 -0.3575
   87SAPS   C38 8378   4.305   6.669   9.692 -0.1073 -0.2621  0.1143
   87SAPS   H8X 8379   4.229   6.743   9.725  0.6793  0.4410  0.4049
   87SAPS   H8Y 8380   4.247   6.583   9.653  1.1830  0.3835 -3.7677
   87SAPS   C39 8381   4.381   6.728   9.567 -0.2482 -0.3240  0.8443
   87SAPS   H9X 8382   4.462   6.659   9.534 -0.0057  1.2092 -2.1931
   87SAPS   H9Y 8383   4.426   6.828   9.586 -0.6944  0.1115 -0.2420
   87SAPS  C310 8384   4.285   6.760   9.448  0.1719 -0.7882 -0.3292
   87SAPS  H10X 8385   4.214   6.839   9.480 -1.3764 -1.8037 -1.1247
   87SAPS  H10Y 8386   4.225   6.672   9.418 -1.8549  0.5059 -0.3195
   87SAPS  C311 8387   4.367   6.794   9.321 -0.6480 -0.4678 -0.0026
   87SAPS  H11X 8388   4.426   6.703   9.295 -0.5797 -0.7575  1.1302
   87SAPS  H11Y 8389   4.433   6.881   9.339 -0.5162 -0.4418 -0.5775
   87SAPS  C312 8390   4.280   6.828   9.203  0.1958 -0.0143 -0.5326
   87SAPS  H12X 8391   4.203   6.903   9.230  0.1616 -0.0895 -0.4213
   87SAPS  H12Y 8392   4.224   6.738   9.171  0.0568 -0.3176  0.5546
   87SAPS  C313 8393   4.363   6.896   9.090 -0.5505  0.5235  0.3805
   87SAPS  H13X 8394   4.463   6.848   9.083 -0.4987  0.8401 -2.2283
   87SAPS  H13Y 8395   4.383   7.000   9.121  1.2300  0.6412 -0.9846
   87SAPS  C314 8396   4.295   6.912   8.957  0.0711 -0.3577 -0.1616
   87SAPS  H14X 8397   4.213   6.987   8.964 -0.0528 -0.2827 -1.8648
   87SAPS  H14Y 8398   4.254   6.811   8.934  1.6869 -0.8994 -0.8408
   87SAPS  C315 8399   4.395   6.941   8.839  0.8706  1.0933 -0.5347
   87SAPS  H15X 8400   4.472   6.863   8.858  0.3002  0.2291 -1.6343
   87SAPS  H15Y 8401   4.445   7.039   8.841  1.5341  0.7963 -1.8613
   87SAPS  C316 8402   4.330   6.910   8.707 -0.5375  0.0157 -0.1092
   87SAPS  H16X 8403   4.264   6.822   8.695 -1.7625  1.1886 -2.6823
   87SAPS  H16Y 8404   4.414   6.902   8.636 -1.7054 -1.7288 -1.3753
   87SAPS  C317 8405   4.229   7.023   8.660 -0.1943 -0.5340 -0.2796
   87SAPS  H17X 8406   4.267   7.123   8.692 -1.8097  0.1584 -0.4662
   87SAPS  H17Y 8407   4.135   7.007   8.716 -1.0044 -0.0936 -1.4855
   87SAPS  C318 8408   4.194   7.030   8.515 -0.2433  0.2989 -0.5540
   87SAPS  H18X 8409   4.273   7.080   8.456 -0.3455  0.8494 -0.2409
   87SAPS  H18Y 8410   4.101   7.091   8.504  1.1889  2.8000  0.4339
   87SAPS  H18Z 8411   4.175   6.935   8.462 -3.1436 -1.1419  2.6450
   88SAPS     N 8412   0.844   0.314  10.864 -0.2375 -0.7639  0.3074
   88SAPS   HN1 8413   0.791   0.247  10.805  1.3555 -0.4433 -1.5665
   88SAPS   HN2 8414   0.828   0.413  10.836  3.1329 -0.2374 -0.1198
   88SAPS   HN3 8415   0.947   0.300  10.863  0.1678  1.7795  0.8053
   88SAPS   C12 8416   0.797   0.292  11.006  0.3111  0.3028  0.0181
   88SAPS  H12A 8417   0.836   0.196  11.037 -2.1580 -0.6458  0.4245
   88SAPS   C13 8418   0.829   0.411  11.099  0.1793 -0.4759 -0.3298
   88SAPS  O13A 8419   0.884   0.511  11.051 -0.1968 -0.1851 -0.4528
   88SAPS  O13B 8420   0.797   0.404  11.222  0.2089  0.4138  0.2743
   88SAPS   C11 8421   0.642   0.281  11.006  0.0260  0.0365  0.0837
   88SAPS  H11A 8422   0.601   0.382  10.983  2.2355  1.4223  1.9133
   88SAPS  H11B 8423   0.612   0.250  11.108 -0.8578 -0.4474 -0.3122
   88SAPS     P 8424   0.455   0.136  10.888 -0.2343 -0.1382  0.0214
   88SAPS   O13 8425   0.465   0.013  10.807  0.2603 -0.0746  0.5751
   88SAPS   O14 8426   0.377   0.143  11.009  0.7491 -0.3010 -0.5031
   88SAPS   O12 8427   0.607   0.179  10.916  0.2126  0.1768  0.6081
   88SAPS   O11 8428   0.395   0.248  10.790 -0.7057  0.3197  0.4843
   88SAPS    C1 8429   0.478   0.331  10.711 -0.0170 -0.0084  0.8839
   88SAPS    HA 8430   0.465   0.433  10.753 -0.2882  0.9270 -1.3382
   88SAPS    HB 8431   0.585   0.303  10.717  0.4158  1.1936 -0.6262
   88SAPS    C2 8432   0.433   0.341  10.559 -0.0411  0.1127  0.1816
   88SAPS    HS 8433   0.345   0.408  10.551 -1.0737 -1.4280 -3.6380
   88SAPS   O21 8434   0.389   0.217  10.518 -0.0651  0.3351  0.1021
   88SAPS   C21 8435   0.308   0.214  10.410  0.0547  0.3318  0.0505
   88SAPS   O22 8436   0.258   0.310  10.359  0.1223  0.4645  0.1101
   88SAPS   C22 8437   0.280   0.068  10.380  0.3923 -0.5130 -0.5591
   88SAPS   H2R 8438   0.380   0.021  10.373 -0.2660 -1.7856 -2.3313
   88SAPS   H2S 8439   0.233   0.033  10.474  0.1970  1.8616  0.2753
   88SAPS    C3 8440   0.547   0.394  10.478 -1.2393 -0.1042 -0.9152
   88SAPS    HX 8441   0.633   0.323  10.485 -0.1690  1.1455 -0.9487
   88SAPS    HY 8442   0.588   0.485  10.528  0.9383 -1.4061 -0.1768
   88SAPS   O31 8443   0.516   0.419  10.340  0.5673  0.0519 -0.2161
   88SAPS   C31 8444   0.482   0.539  10.307  0.0242  0.2852 -0.2341
   88SAPS   O32 8445   0.502   0.639  10.374 -0.0804  0.5242  0.5955
   88SAPS   C32 8446   0.429   0.537  10.160  0.3925  0.6217  0.0371
   88SAPS   H2X 8447   0.336   0.477  10.169  1.5059 -0.9322  2.4554
   88SAPS   H2Y 8448   0.502   0.474  10.105 -0.4612  0.9613 -1.5341
   88SAPS   C23 8449   0.198   0.050  10.248 -0.1321 -0.3796 -0.2671
   88SAPS   H3R 8450   0.105   0.111  10.238  0.8093  1.4144  1.3353
   88SAPS   H3S 8451   0.169  -0.056  10.240 -3.1474  0.2353  1.1429
   88SAPS   C24 8452   0.280   0.090  10.123 -0.5510  0.7273 -0.3738
   88SAPS   H4R 8453   0.297   0.198  10.141  0.8669  0.1858  1.8451
   88SAPS   H4S 8454   0.223   0.089  10.027 -0.9604 -0.3877 -0.1321
   88SAPS   C25 8455   0.421   0.030  10.120 -0.4170 -0.1316 -0.4022
   88SAPS   H5R 8456   0.482   0.026  10.211 -1.5446  0.1970  0.4017
   88SAPS   C26 8457   0.475  -0.020  10.004  0.1729 -0.1528 -1.0560
   88SAPS   H6R 8458   0.578  -0.058  10.015  0.1171  0.2746  1.7073
   88SAPS   C27 8459   0.415  -0.036   9.870  0.3858 -0.6770  0.4172
   88SAPS   H7R 8460   0.323  -0.099   9.871  1.6157 -2.5588  1.0378
   88SAPS   H7S 8461   0.496  -0.099   9.826  1.2040  1.1268 -0.7636
   88SAPS   C28 8462   0.401   0.090   9.783 -0.7848  0.3308 -0.0013
   88SAPS   H8R 8463   0.426   0.180   9.840 -0.8436 -0.8417  1.9941
   88SAPS   C29 8464   0.368   0.097   9.656  0.5387  0.2826  0.0871
   88SAPS   H9R 8465   0.377   0.193   9.603  1.2777 -1.1206 -2.5127
   88SAPS  C210 8466   0.356  -0.030   9.577  0.1100 -0.1063  0.8727
   88SAPS  H10R 8467   0.251  -0.066   9.580  0.4088 -0.9935  1.1157
   88SAPS  H10S 8468   0.401  -0.117   9.630  0.1218 -0.8867 -0.3917
   88SAPS  C211 8469   0.424  -0.022   9.438 -0.3217 -0.1355 -0.0825
   88SAPS  H11R 8470   0.512   0.042   9.424 -0.1864 -0.1234  0.7911
   88SAPS  C212 8471   0.388  -0.085   9.323 -0.0068  0.3312  0.0141
   88SAPS  H12R 8472   0.451  -0.078   9.233 -3.5682 -2.0069 -2.9455
   88SAPS  C213 8473   0.269  -0.181   9.303 -0.2519 -0.7891 -0.0569
   88SAPS  H13R 8474   0.175  -0.129   9.275  0.7443  0.2571 -1.6352
   88SAPS  H13S 8475   0.246  -0.228   9.401 -1.7413  3.1355  1.6664
   88SAPS  C214 8476   0.315  -0.287   9.209  0.6177  0.0629  0.5168
   88SAPS  H14R 8477   0.412  -0.331   9.235  0.1277 -1.5629 -0.2885
   88SAPS  C215 8478   0.245  -0.333   9.102 -0.3645 -0.8725 -0.5705
   88SAPS  H15R 8479   0.296  -0.402   9.033 -1.2796  1.0669 -3.3740
   88SAPS  C216 8480   0.109  -0.292   9.054  0.2291 -0.2035 -0.8405
   88SAPS  H16R 8481   0.054  -0.230   9.128 -1.1755 -2.2303 -0.1174
   88SAPS  H16S 8482   0.053  -0.387   9.049  2.1192 -1.3823 -0.6974
   88SAPS  C217 8483   0.113  -0.228   8.916 -0.2189 -0.9355 -0.4183
   88SAPS  H17R 8484   0.025  -0.199   8.855  0.5562 -1.2904 -1.7540
   88SAPS  H17S 8485   0.168  -0.292   8.843 -0.6688 -1.0226 -0.6848
   88SAPS  C218 8486   0.180  -0.087   8.909 -0.1397  0.0896  0.4320
   88SAPS  H18R 8487   0.271  -0.088   8.971  0.2456 -0.6006 -0.1241
   88SAPS  H18S 8488   0.109  -0.008   8.943 -0.4126  1.9476 -3.7815
   88SAPS  C219 8489   0.210  -0.047   8.763 -0.1511  0.1461 -0.4695
   88SAPS  H19R 8490   0.112  -0.059   8.712 -2.2083  1.1604  2.9669
   88SAPS  H19S 8491   0.290  -0.112   8.723  0.0782  0.4754 -0.5541
   88SAPS  C220 8492   0.258   0.094   8.748  0.0280 -0.6776  0.2484
   88SAPS  H20R 8493   0.287   0.121   8.645  1.2583 -0.4326  0.6423
   88SAPS  H20S 8494   0.340   0.110   8.822 -0.8475  0.2460  1.0601
   88SAPS  H20T 8495   0.175   0.152   8.793 -0.2880 -1.9449  1.3784
   88SAPS   C33 8496   0.427   0.670  10.085 -0.0132 -0.3247 -1.0265
   88SAPS   H3X 8497   0.523   0.724  10.088 -0.7749  1.0870  2.3742
   88SAPS   H3Y 8498   0.354   0.740  10.131 -0.0788 -1.8319  1.3603
   88SAPS   C34 8499   0.376   0.657   9.940 -0.9257  0.3715 -0.0091
   88SAPS   H4X 8500   0.364   0.760   9.899 -0.4722  0.2441 -0.4695
   88SAPS   H4Y 8501   0.277   0.607   9.940 -1.2024  0.9046 -0.1853
   88SAPS   C35 8502   0.471   0.588   9.842  0.2202 -0.3441  0.3955
   88SAPS   H5X 8503   0.502   0.489   9.883  3.3531  0.3181 -0.1133
   88SAPS   H5Y 8504   0.566   0.646   9.840 -0.0062  0.0205 -0.9351
   88SAPS   C36 8505   0.426   0.555   9.696  0.1810  0.0620  0.2159
   88SAPS   H6X 8506   0.401   0.649   9.642 -0.9153 -0.6598 -0.5550
   88SAPS   H6Y 8507   0.335   0.493   9.712 -0.4235  0.3237 -1.9616
   88SAPS   C37 8508   0.527   0.476   9.611  0.3933  0.2475 -0.0654
   88SAPS   H7X 8509   0.538   0.385   9.674  0.1462 -0.0854 -0.4934
   88SAPS   H7Y 8510   0.620   0.535   9.597  2.0254 -2.0322  0.4673
   88SAPS   C38 8511   0.469   0.435   9.470 -0.5115 -0.3167  0.1578
   88SAPS   H8X 8512   0.482   0.530   9.413 -2.7232 -1.1503 -1.9125
   88SAPS   H8Y 8513   0.359   0.419   9.468 -0.5644 -0.0684  0.8419
   88SAPS   C39 8514   0.549   0.328   9.403 -0.1442  0.4865 -0.0001
   88SAPS   H9X 8515   0.543   0.239   9.469 -0.3056 -0.0806 -0.7645
   88SAPS   H9Y 8516   0.656   0.358   9.400  1.1542 -3.5597 -0.4959
   88SAPS  C310 8517   0.490   0.285   9.269 -0.2082  0.2178  0.0405
   88SAPS  H10X 8518   0.466   0.379   9.215  1.8775  0.2275 -0.9508
   88SAPS  H10Y 8519   0.402   0.222   9.295  2.2605 -2.2304  3.4906
   88SAPS  C311 8520   0.596   0.203   9.200  0.7103 -0.6174 -0.6659
   88SAPS  H11X 8521   0.640   0.126   9.267  0.5230 -0.1262  0.0308
   88SAPS  H11Y 8522   0.681   0.268   9.170  1.5904 -0.9391  1.0182
   88SAPS  C312 8523   0.533   0.139   9.082  0.2833  0.2638 -0.5959
   88SAPS  H12X 8524   0.508   0.225   9.016  0.0677 -1.2095 -2.4916
   88SAPS  H12Y 8525   0.437   0.089   9.108  1.3046 -1.3516  0.2080
   88SAPS  C313 8526   0.617   0.040   8.999  0.8349  0.1265 -0.9699
   88SAPS  H13X 8527   0.553  -0.042   8.960 -0.4337  0.6863 -0.1457
   88SAPS  H13Y 8528   0.694  -0.010   9.061  0.4767 -0.4480 -0.9864
   88SAPS  C314 8529   0.712   0.116   8.908  0.6113  0.3936  0.3787
   88SAPS  H14X 8530   0.774   0.180   8.975 -1.5831  0.6052  2.3291
   88SAPS  H14Y 8531   0.648   0.173   8.838 -0.4664 -0.1482  0.9058
   88SAPS  C315 8532   0.793   0.020   8.819 -0.0906 -0.0838  0.0161
   88SAPS  H15X 8533   0.719  -0.041   8.762 -0.5236  2.2682 -2.1375
   88SAPS  H15Y 8534   0.849  -0.054   8.879 -1.0460 -0.6701  0.2138
   88SAPS  C316 8535   0.881   0.101   8.722  0.0737  0.4386  0.4392
   88SAPS  H16X 8536   0.950   0.159   8.786 -0.5579  1.3621  0.3140
   88SAPS  H16Y 8537   0.811   0.168   8.666 -1.0230 -1.7043 -0.8809
   88SAPS  C317 8538   0.966   0.020   8.629  0.1329  0.1742 -0.4795
   88SAPS  H17X 8539   1.011  -0.069   8.677  0.5277 -0.0923 -1.3395
   88SAPS  H17Y 8540   1.053   0.084   8.606 -1.0040  1.8736 -0.2613
   88SAPS  C318 8541   0.894  -0.044   8.511 -0.2782 -0.3357 -0.0977
   88SAPS  H18X 8542   0.818  -0.115   8.550 -0.1656 -0.1492  0.4775
   88SAPS  H18Y 8543   0.977  -0.101   8.463 -0.1492  1.9047 -2.8014
   88SAPS  H18Z 8544   0.851   0.035   8.445  0.9226  1.4537  1.1473
   89SAPS     N 8545   5.452   0.942  10.873  0.5021 -0.3638 -0.3212
   89SAPS   HN1 8546   5.426   0.909  10.778  2.0727  1.2439 -1.3729
   89SAPS   HN2 8547   5.413   0.874  10.942 -0.0390 -0.6548 -0.9015
   89SAPS   HN3 8548   5.401   1.031  10.891 -0.3638 -0.8227 -0.4460
   89SAPS   C12 8549   5.596   0.931  10.907 -0.0473 -0.0020 -0.1347
   89SAPS  H12A 8550   5.611   0.966  11.008  0.1326 -1.0196  0.2038
   89SAPS   C13 8551   5.664   0.795  10.912  0.1092  0.0945  0.0877
   89SAPS  O13A 8552   5.599   0.690  10.894 -0.0820  0.2798  0.6134
   89SAPS  O13B 8553   5.786   0.788  10.953 -0.4759 -0.5227 -0.2438
   89SAPS   C11 8554   5.673   1.025  10.804 -0.8439 -0.3449 -0.5797
   89SAPS  H11A 8555   5.668   0.968  10.709  0.5383 -1.6989  0.1084
   89SAPS  H11B 8556   5.782   1.016  10.827 -1.6206 -3.2122  3.0023
   89SAPS     P 8557   5.678   1.255  10.686 -0.0370 -0.2021  0.2078
   89SAPS   O13 8558   5.689   1.392  10.737  0.5282 -0.1023 -0.5554
   89SAPS   O14 8559   5.803   1.204  10.636 -0.1747 -0.1559  0.1158
   89SAPS   O12 8560   5.623   1.155  10.797  0.4971  0.4576 -0.1568
   89SAPS   O11 8561   5.572   1.250  10.568 -0.7200  0.0985  0.7522
   89SAPS    C1 8562   5.536   1.134  10.491 -0.4262 -0.3451  0.1130
   89SAPS    HA 8563   5.602   1.050  10.522  0.5415  0.8903  1.5641
   89SAPS    HB 8564   5.434   1.105  10.521  0.1808 -0.3512  2.3029
   89SAPS    C2 8565   5.535   1.165  10.338  0.6287 -0.1710 -0.2791
   89SAPS    HS 8566   5.456   1.101  10.293  1.0936  0.2719 -1.8168
   89SAPS   O21 8567   5.670   1.151  10.292 -0.2218 -0.2058  0.2157
   89SAPS   C21 8568   5.709   1.031  10.289 -0.8179  0.7873  0.5232
   89SAPS   O22 8569   5.648   0.930  10.315 -0.3311 -0.1603  0.7655
   89SAPS   C22 8570   5.851   1.030  10.225  0.0232  0.1855  0.3751
   89SAPS   H2R 8571   5.916   1.111  10.262  0.5488  0.4327 -1.0308
   89SAPS   H2S 8572   5.903   0.937  10.257  1.1839  0.7007  0.0499
   89SAPS    C3 8573   5.491   1.318  10.317  0.1912 -0.2637 -0.0001
   89SAPS    HX 8574   5.569   1.381  10.366 -1.2755  0.3876  1.5667
   89SAPS    HY 8575   5.390   1.329  10.362  0.1728 -0.1475 -0.0676
   89SAPS   O31 8576   5.486   1.355  10.171 -0.0727  0.9348  0.2059
   89SAPS   C31 8577   5.379   1.314  10.109  0.3759  0.0788 -0.0764
   89SAPS   O32 8578   5.277   1.273  10.162 -0.2528  0.0089 -0.4722
   89SAPS   C32 8579   5.415   1.329   9.961  0.6958 -0.1201 -0.1871
   89SAPS   H2X 8580   5.525   1.335   9.951  0.5828  0.0620 -1.5652
   89SAPS   H2Y 8581   5.382   1.428   9.923  0.7317  0.6226  1.6190
   89SAPS   C23 8582   5.828   1.051  10.080 -0.3857 -0.0852  0.5635
   89SAPS   H3R 8583   5.925   1.064  10.028 -0.0961 -1.2266  0.7967
   89SAPS   H3S 8584   5.775   1.145  10.053  1.4675  0.4551 -1.5333
   89SAPS   C24 8585   5.756   0.935  10.004 -0.2439 -0.3643 -0.5503
   89SAPS   H4R 8586   5.738   0.973   9.901 -0.6134  0.3160 -0.2389
   89SAPS   H4S 8587   5.664   0.900  10.055  0.3322  0.0890  0.8687
   89SAPS   C25 8588   5.852   0.821   9.978  0.7204 -0.1310 -0.2881
   89SAPS   H5R 8589   5.913   0.791  10.064  4.1018  1.5955 -1.8745
   89SAPS   C26 8590   5.862   0.753   9.867  0.2359 -0.4732 -0.9019
   89SAPS   H6R 8591   5.932   0.668   9.871  0.5246 -0.1884  0.3449
   89SAPS   C27 8592   5.803   0.772   9.736  0.1821 -0.0939  0.3301
   89SAPS   H7R 8593   5.846   0.853   9.674 -1.0833  0.8261  0.6118
   89SAPS   H7S 8594   5.702   0.813   9.758 -0.2995  0.6784 -2.8944
   89SAPS   C28 8595   5.788   0.644   9.651 -0.4536 -0.0926  0.2424
   89SAPS   H8R 8596   5.725   0.562   9.688 -0.1786 -0.8957 -1.0172
   89SAPS   C29 8597   5.844   0.625   9.527 -0.3997  0.2091 -0.1752
   89SAPS   H9R 8598   5.831   0.526   9.480 -2.7146  0.3898 -0.0155
   89SAPS  C210 8599   5.924   0.721   9.445 -0.0736  0.5946  0.6995
   89SAPS  H10R 8600   5.991   0.657   9.384 -0.4613 -0.5779  1.4701
   89SAPS  H10S 8601   5.985   0.796   9.501 -1.1165  0.7804  1.6218
   89SAPS  C211 8602   5.826   0.801   9.355 -0.0698  0.0200  0.9741
   89SAPS  H11R 8603   5.812   0.904   9.391  1.3354  0.1146  1.3277
   89SAPS  C212 8604   5.781   0.756   9.232  0.0403  0.2299 -0.6284
   89SAPS  H12R 8605   5.697   0.811   9.187 -0.0097  1.1836  0.5759
   89SAPS  C213 8606   5.808   0.616   9.181  0.6590  0.1614  0.4526
   89SAPS  H13R 8607   5.713   0.593   9.129  0.9833  0.7816 -0.4498
   89SAPS  H13S 8608   5.817   0.546   9.267  0.2859  2.2255  2.2366
   89SAPS  C214 8609   5.934   0.596   9.092  0.7337 -0.2912 -0.6378
   89SAPS  H14R 8610   6.017   0.662   9.122  1.5330 -0.9152 -1.3912
   89SAPS  C215 8611   5.946   0.524   8.979 -0.4470  0.4164 -0.6693
   89SAPS  H15R 8612   6.040   0.521   8.923 -0.4344 -0.0141 -0.6317
   89SAPS  C216 8613   5.838   0.440   8.913  1.0916  0.5217 -0.5434
   89SAPS  H16R 8614   5.749   0.465   8.974  0.6310 -0.6537 -0.6964
   89SAPS  H16S 8615   5.863   0.331   8.912  0.3695  0.3340  0.4559
   89SAPS  C217 8616   5.806   0.470   8.766 -0.4666 -0.5915 -0.1759
   89SAPS  H17R 8617   5.906   0.453   8.721  0.5697  1.1536  1.3214
   89SAPS  H17S 8618   5.785   0.579   8.772  1.9487 -0.0306 -0.8853
   89SAPS  C218 8619   5.684   0.397   8.706 -0.0900 -0.4177  0.4671
   89SAPS  H18R 8620   5.701   0.288   8.719 -0.2276 -0.6024 -0.7858
   89SAPS  H18S 8621   5.704   0.417   8.598  2.3710 -0.0384  0.9374
   89SAPS  C219 8622   5.550   0.449   8.746 -0.6709  0.7169 -0.0479
   89SAPS  H19R 8623   5.554   0.557   8.717  0.4897  0.3965 -1.2260
   89SAPS  H19S 8624   5.549   0.448   8.857 -0.7041 -0.0947 -0.0502
   89SAPS  C220 8625   5.430   0.381   8.681  0.0653 -0.3324 -0.7198
   89SAPS  H20R 8626   5.443   0.272   8.697  1.1533 -0.0046  1.0473
   89SAPS  H20S 8627   5.450   0.405   8.575 -0.0653  1.2715 -0.4010
   89SAPS  H20T 8628   5.326   0.417   8.698  0.5697  1.4322 -1.1652
   89SAPS   C33 8629   5.340   1.224   9.878 -0.3922 -0.1132 -0.2730
   89SAPS   H3X 8630   5.361   1.260   9.775 -0.0576  2.6227  0.6920
   89SAPS   H3Y 8631   5.230   1.222   9.895 -0.6066 -0.4888 -1.5738
   89SAPS   C34 8632   5.401   1.086   9.895 -0.2069  0.1445 -0.0601
   89SAPS   H4X 8633   5.363   1.037   9.987  0.2385  2.3720  1.4030
   89SAPS   H4Y 8634   5.512   1.090   9.891 -0.2522  0.7971 -2.2414
   89SAPS   C35 8635   5.359   0.983   9.780 -0.3923 -0.5477 -0.4990
   89SAPS   H5X 8636   5.398   1.018   9.682 -3.2722  1.1382 -1.1528
   89SAPS   H5Y 8637   5.249   0.999   9.775 -0.4330 -1.0504 -1.3817
   89SAPS   C36 8638   5.397   0.836   9.815  0.2577 -0.2267 -0.4235
   89SAPS   H6X 8639   5.357   0.817   9.917 -1.6995 -0.3576 -1.1639
   89SAPS   H6Y 8640   5.506   0.816   9.814  0.4130  0.4765  0.5543
   89SAPS   C37 8641   5.319   0.752   9.708 -0.7027  0.2976 -0.5174
   89SAPS   H7X 8642   5.221   0.802   9.693  0.6283  3.1114 -0.4930
   89SAPS   H7Y 8643   5.309   0.650   9.750  3.4507 -0.5422 -1.1301
   89SAPS   C38 8644   5.397   0.745   9.575  0.2424  0.0936 -0.4743
   89SAPS   H8X 8645   5.495   0.697   9.598 -1.1728 -3.2010 -0.8576
   89SAPS   H8Y 8646   5.431   0.845   9.540  1.9995 -0.4711 -0.4853
   89SAPS   C39 8647   5.329   0.667   9.466  1.6043 -0.6909 -0.6082
   89SAPS   H9X 8648   5.232   0.718   9.449  2.1843  0.8584  0.4945
   89SAPS   H9Y 8649   5.300   0.565   9.499 -0.9414  0.7199  2.0433
   89SAPS  C310 8650   5.394   0.674   9.333  0.5993 -0.3205  0.2200
   89SAPS  H10X 8651   5.475   0.598   9.338  1.0815  0.2565  1.6037
   89SAPS  H10Y 8652   5.447   0.771   9.320  0.2439 -0.1580 -0.0342
   89SAPS  C311 8653   5.300   0.633   9.219 -0.4196  0.2829  0.2561
   89SAPS  H11X 8654   5.208   0.696   9.214  0.1279  1.0022 -1.4892
   89SAPS  H11Y 8655   5.259   0.532   9.240  0.9415 -0.3693 -0.1691
   89SAPS  C312 8656   5.358   0.642   9.082 -0.4036 -0.2461 -0.3420
   89SAPS  H12X 8657   5.298   0.575   9.017  0.0747  0.0006 -1.0507
   89SAPS  H12Y 8658   5.461   0.600   9.081  0.2414  1.2409  0.1438
   89SAPS  C313 8659   5.372   0.785   9.033  0.0481  0.1402 -0.0558
   89SAPS  H13X 8660   5.425   0.846   9.110 -1.4117  0.5095  0.6868
   89SAPS  H13Y 8661   5.271   0.830   9.025  0.1929  0.4220 -0.3368
   89SAPS  C314 8662   5.439   0.779   8.896 -0.2132 -0.2013  0.0010
   89SAPS  H14X 8663   5.382   0.718   8.823 -0.8955  1.6897 -1.1325
   89SAPS  H14Y 8664   5.545   0.753   8.915 -0.3965 -0.3561  0.8490
   89SAPS  C315 8665   5.461   0.915   8.839 -0.0124 -0.5883  0.0027
   89SAPS  H15X 8666   5.549   0.918   8.772  1.0080  0.0068  1.3151
   89SAPS  H15Y 8667   5.473   0.984   8.925 -1.9373 -0.8969  0.5756
   89SAPS  C316 8668   5.352   0.969   8.740  0.8606  0.5265  0.5299
   89SAPS  H16X 8669   5.260   1.001   8.793  0.0046 -1.5487  0.3786
   89SAPS  H16Y 8670   5.323   0.891   8.667  3.2909 -0.0396  0.0785
   89SAPS  C317 8671   5.403   1.076   8.642  0.0227 -0.2067 -0.0026
   89SAPS  H17X 8672   5.481   1.023   8.584 -0.3918 -0.8440  0.0051
   89SAPS  H17Y 8673   5.450   1.156   8.703 -1.6994  0.7349  0.1423
   89SAPS  C318 8674   5.295   1.139   8.545  0.1256  0.9212 -0.8043
   89SAPS  H18X 8675   5.351   1.200   8.471 -0.9139  0.0141 -2.4070
   89SAPS  H18Y 8676   5.227   1.200   8.608  0.5780 -1.5254  2.3479
   89SAPS  H18Z 8677   5.239   1.054   8.499  0.5290  0.1875  0.0132
   90SAPS     N 8678   0.938   1.662  11.001 -0.1551 -0.1600 -0.2608
   90SAPS   HN1 8679   0.944   1.558  10.993  1.8587 -0.3179  2.1509
   90SAPS   HN2 8680   1.020   1.709  10.958  1.6789 -2.0833  0.9154
   90SAPS   HN3 8681   0.931   1.688  11.101 -2.2387 -0.8717 -0.1861
   90SAPS   C12 8682   0.811   1.710  10.939  0.5329  0.1203 -0.0868
   90SAPS  H12A 8683   0.733   1.658  10.993  0.6293  0.4181  0.3417
   90SAPS   C13 8684   0.780   1.860  10.938 -0.0002 -0.3841 -0.0398
   90SAPS  O13A 8685   0.850   1.934  11.015 -0.6401  0.3868 -0.1154
   90SAPS  O13B 8686   0.666   1.894  10.896 -0.5242  0.4167  0.1904
   90SAPS   C11 8687   0.803   1.670  10.785 -0.5094  0.1584 -0.3942
   90SAPS  H11A 8688   0.884   1.725  10.732 -0.6093  0.4269 -0.2717
   90SAPS  H11B 8689   0.707   1.708  10.745 -1.3839  0.0933  1.5147
   90SAPS     P 8690   0.884   1.460  10.673  0.4879 -0.2125 -0.4226
   90SAPS   O13 8691   1.030   1.473  10.688 -0.6033  0.0663 -0.2288
   90SAPS   O14 8692   0.825   1.322  10.668  0.1712  0.0987  0.0591
   90SAPS   O12 8693   0.806   1.529  10.787 -0.1103  0.4979 -0.6489
   90SAPS   O11 8694   0.839   1.545  10.544 -0.3380  0.1172 -0.1654
   90SAPS    C1 8695   0.699   1.559  10.509  0.3335 -0.3142 -0.6584
   90SAPS    HA 8696   0.635   1.559  10.600  1.7237  1.7198  0.3913
   90SAPS    HB 8697   0.686   1.663  10.472  1.3494 -0.4594 -1.4640
   90SAPS    C2 8698   0.649   1.457  10.406 -0.4194 -0.0536  0.1459
   90SAPS    HS 8699   0.639   1.363  10.464  0.3006 -1.4334 -1.8414
   90SAPS   O21 8700   0.749   1.443  10.300 -0.1118 -0.7487  0.1752
   90SAPS   C21 8701   0.722   1.342  10.215 -0.0555 -0.2411 -0.3065
   90SAPS   O22 8702   0.637   1.256  10.233  0.1275  0.4333  0.1728
   90SAPS   C22 8703   0.814   1.358  10.096  0.3327 -0.4554  0.1262
   90SAPS   H2R 8704   0.915   1.320  10.124  1.6489  3.1169  0.7250
   90SAPS   H2S 8705   0.758   1.295  10.024  0.0013  0.9039 -0.8374
   90SAPS    C3 8706   0.509   1.494  10.355 -0.9448  0.4437 -0.4533
   90SAPS    HX 8707   0.454   1.532  10.443 -1.5265 -0.7697 -0.2620
   90SAPS    HY 8708   0.451   1.401  10.335 -1.8436  0.3334  2.2525
   90SAPS   O31 8709   0.504   1.571  10.235 -0.2820  0.2493 -0.0843
   90SAPS   C31 8710   0.490   1.706  10.250 -0.1179  0.5104 -0.2993
   90SAPS   O32 8711   0.467   1.758  10.360 -0.3317 -0.3087  0.1574
   90SAPS   C32 8712   0.508   1.772  10.120  0.1936  0.7482 -0.3721
   90SAPS   H2X 8713   0.441   1.723  10.047 -0.3636 -1.4563  1.5022
   90SAPS   H2Y 8714   0.606   1.728  10.089 -0.2649  0.1887 -1.0473
   90SAPS   C23 8715   0.845   1.494  10.026 -0.2935  0.2615 -0.8409
   90SAPS   H3R 8716   0.923   1.552  10.080 -0.0946 -0.7703 -0.0019
   90SAPS   H3S 8717   0.753   1.555  10.045  0.9807  2.6067 -1.7413
   90SAPS   C24 8718   0.865   1.483   9.874  0.1295  0.4426  0.2437
   90SAPS   H4R 8719   0.835   1.581   9.832  3.6899  0.6862 -2.1577
   90SAPS   H4S 8720   0.793   1.409   9.835  0.6927 -0.9460  1.6971
   90SAPS   C25 8721   1.015   1.466   9.843 -0.3481 -0.0226 -0.6112
   90SAPS   H5R 8722   1.088   1.493   9.921 -2.0420  0.8761  0.7375
   90SAPS   C26 8723   1.051   1.428   9.722  0.2668  0.2111  0.1112
   90SAPS   H6R 8724   1.158   1.426   9.694  0.6721  3.5552  1.0334
   90SAPS   C27 8725   0.966   1.405   9.601  0.9156  0.0402  0.1643
   90SAPS   H7R 8726   0.868   1.456   9.593  0.4806 -0.4828  1.8012
   90SAPS   H7S 8727   0.931   1.300   9.610 -0.8560  0.6357  0.7183
   90SAPS   C28 8728   1.021   1.426   9.467 -0.3633 -0.3841  0.3436
   90SAPS   H8R 8729   1.036   1.529   9.431 -0.3729 -0.0349  1.3247
   90SAPS   C29 8730   1.055   1.325   9.379  0.4600 -1.1845  0.0444
   90SAPS   H9R 8731   1.123   1.346   9.295  0.7192 -2.5033 -0.1064
   90SAPS  C210 8732   1.058   1.176   9.413 -0.4139  0.3862  0.4445
   90SAPS  H10R 8733   1.073   1.118   9.320 -1.6374 -0.8188  0.9565
   90SAPS  H10S 8734   0.952   1.152   9.437 -0.5377 -2.6808 -2.5564
   90SAPS  C211 8735   1.153   1.129   9.525  0.0912  0.0167 -1.1627
   90SAPS  H11R 8736   1.129   1.191   9.613 -1.4516  3.3547 -3.6619
   90SAPS  C212 8737   1.255   1.045   9.523  0.1137 -0.3008  0.2282
   90SAPS  H12R 8738   1.304   1.020   9.618 -1.0061 -1.4605  0.5378
   90SAPS  C213 8739   1.299   0.963   9.406 -0.4459  0.0593  0.4071
   90SAPS  H13R 8740   1.206   0.942   9.349 -1.3708 -1.2768  2.2755
   90SAPS  H13S 8741   1.344   0.866   9.438 -1.6750 -0.4877  0.5049
   90SAPS  C214 8742   1.402   1.031   9.315  0.9594  0.2132 -0.1888
   90SAPS  H14R 8743   1.481   1.094   9.358  1.1454  0.1529 -0.4386
   90SAPS  C215 8744   1.401   1.020   9.178 -0.0452 -0.3961  0.1102
   90SAPS  H15R 8745   1.483   1.064   9.120 -0.8202  0.3520 -0.4383
   90SAPS  C216 8746   1.303   0.943   9.096 -0.1848  0.5608 -0.0645
   90SAPS  H16R 8747   1.264   0.863   9.163 -1.3239  2.3017  1.4547
   90SAPS  H16S 8748   1.368   0.884   9.029  1.4952  1.7813  0.4239
   90SAPS  C217 8749   1.207   1.036   9.021 -0.0986 -0.1230 -0.1377
   90SAPS  H17R 8750   1.147   1.099   9.091  1.1106 -0.3411  1.1500
   90SAPS  H17S 8751   1.136   0.976   8.962  0.2274 -0.6192 -0.0307
   90SAPS  C218 8752   1.280   1.137   8.921 -0.1024  0.3886  0.2959
   90SAPS  H18R 8753   1.332   1.071   8.848 -0.2239 -1.4560  1.8092
   90SAPS  H18S 8754   1.352   1.206   8.971 -1.4502  1.3137  1.0112
   90SAPS  C219 8755   1.185   1.218   8.840  0.3170 -0.0978 -0.1008
   90SAPS  H19R 8756   1.140   1.156   8.759  0.3504  3.0825 -2.7588
   90SAPS  H19S 8757   1.237   1.290   8.773  2.1922 -3.3751 -2.4656
   90SAPS  C220 8758   1.069   1.294   8.910  0.0300 -0.6874  0.2794
   90SAPS  H20R 8759   1.017   1.365   8.843  1.3874  0.6284  0.5601
   90SAPS  H20S 8760   1.106   1.365   8.987 -0.0044  0.7486 -0.9795
   90SAPS  H20T 8761   0.994   1.232   8.964 -2.1194  1.3619 -0.1837
   90SAPS   C33 8762   0.522   1.916  10.123  0.2906  0.0601 -0.4042
   90SAPS   H3X 8763   0.583   1.957  10.206 -0.0417  0.6808 -0.4574
   90SAPS   H3Y 8764   0.418   1.954  10.127 -0.1113 -0.7434 -2.1824
   90SAPS   C34 8765   0.575   1.986   9.992  1.0096 -0.1167  0.0473
   90SAPS   H4X 8766   0.661   1.927   9.954  0.6725 -1.1378  0.8144
   90SAPS   H4Y 8767   0.594   2.094  10.004 -2.7906  0.6069  0.8093
   90SAPS   C35 8768   0.475   1.981   9.876  0.3820  0.7727  0.2883
   90SAPS   H5X 8769   0.415   2.071   9.903  1.2193  0.9076  1.8078
   90SAPS   H5Y 8770   0.403   1.897   9.887  0.7841  0.2035 -1.3177
   90SAPS   C36 8771   0.529   1.967   9.736  0.6656  0.6438 -0.0651
   90SAPS   H6X 8772   0.599   1.880   9.739 -2.2216 -1.8556  3.1384
   90SAPS   H6Y 8773   0.598   2.052   9.717  0.0201  0.6289 -2.7766
   90SAPS   C37 8774   0.420   1.945   9.632 -0.3190  0.5915  0.0396
   90SAPS   H7X 8775   0.343   2.025   9.632  1.3288  2.2422 -0.8431
   90SAPS   H7Y 8776   0.372   1.846   9.648 -0.9491  0.7569 -0.7266
   90SAPS   C38 8777   0.480   1.930   9.490 -0.3930  0.0377  0.2955
   90SAPS   H8X 8778   0.429   1.844   9.439 -0.3821  0.6456 -0.7751
   90SAPS   H8Y 8779   0.588   1.903   9.492 -0.2157  0.7463  0.4955
   90SAPS   C39 8780   0.474   2.053   9.405  0.3199 -0.3225 -0.0998
   90SAPS   H9X 8781   0.516   2.022   9.307  0.1017 -2.5154  0.4598
   90SAPS   H9Y 8782   0.526   2.133   9.463 -1.7986  1.2360 -0.1949
   90SAPS  C310 8783   0.332   2.098   9.362  0.4212 -0.1618  0.5202
   90SAPS  H10X 8784   0.340   2.200   9.317 -2.0881  0.1769  0.7284
   90SAPS  H10Y 8785   0.259   2.114   9.444  0.9917  1.1676  0.7998
   90SAPS  C311 8786   0.269   1.992   9.270  0.7944 -0.1875  0.0065
   90SAPS  H11X 8787   0.235   1.912   9.340 -1.8713  0.7183 -0.1291
   90SAPS  H11Y 8788   0.330   1.946   9.189  2.2181 -0.2420  1.0731
   90SAPS  C312 8789   0.153   2.062   9.204 -0.5186  0.1149  0.1744
   90SAPS  H12X 8790   0.176   2.159   9.154  0.5763 -0.6643 -0.8651
   90SAPS  H12Y 8791   0.084   2.093   9.286 -3.2418 -2.6756 -0.8931
   90SAPS  C313 8792   0.084   1.971   9.099 -0.0793 -0.2445 -0.0772
   90SAPS  H13X 8793   0.027   1.893   9.154  1.0443 -1.2802 -0.3326
   90SAPS  H13Y 8794   0.168   1.919   9.048  1.8732  1.2551  1.4121
   90SAPS  C314 8795  -0.005   2.069   9.004 -0.1635 -0.1893  0.3743
   90SAPS  H14X 8796   0.060   2.136   8.943 -1.1311  1.2488  0.8613
   90SAPS  H14Y 8797  -0.065   2.137   9.068 -0.5148  1.6243 -1.7602
   90SAPS  C315 8798  -0.107   1.994   8.913 -0.8271  0.3137 -0.6838
   90SAPS  H15X 8799  -0.178   2.067   8.868 -0.6468  0.4165 -0.8016
   90SAPS  H15Y 8800  -0.170   1.927   8.975  0.4199 -0.9655 -0.7554
   90SAPS  C316 8801  -0.040   1.930   8.794  0.4030  0.2811 -0.5336
   90SAPS  H16X 8802   0.027   1.843   8.810  3.2449  1.6231 -3.8309
   90SAPS  H16Y 8803   0.007   2.015   8.740  0.4314 -0.4334 -1.6697
   90SAPS  C317 8804  -0.126   1.861   8.685 -0.0530  0.8278 -0.6157
   90SAPS  H17X 8805  -0.195   1.938   8.644  0.0446  0.9589 -0.5373
   90SAPS  H17Y 8806  -0.179   1.773   8.728  0.4205 -0.3375 -2.3343
   90SAPS  C318 8807  -0.048   1.812   8.571  1.3097 -0.5633  0.7472
   90SAPS  H18X 8808   0.045   1.872   8.573  0.4206  0.8868  2.6475
   90SAPS  H18Y 8809  -0.104   1.824   8.476  0.7203 -1.3230  0.9792
   90SAPS  H18Z 8810  -0.015   1.706   8.580  2.1597 -0.3157  0.6047
   91SAPS     N 8811   0.362   6.228   6.153  0.2603 -0.2005 -0.3542
   91SAPS   HN1 8812   0.361   6.125   6.166 -2.3362 -0.3596 -1.2029
   91SAPS   HN2 8813   0.427   6.265   6.225  1.7526 -0.9369 -1.2748
   91SAPS   HN3 8814   0.264   6.258   6.169  0.1565 -0.4966 -0.4147
   91SAPS   C12 8815   0.403   6.265   6.010 -0.0997 -0.5168  1.4881
   91SAPS  H12A 8816   0.344   6.205   5.942  0.3270 -0.4973  1.0975
   91SAPS   C13 8817   0.377   6.416   5.967 -0.2786  0.2011 -0.1002
   91SAPS  O13A 8818   0.341   6.501   6.052  0.9707 -0.1325 -0.2543
   91SAPS  O13B 8819   0.400   6.439   5.844  0.0788 -0.6760  0.0923
   91SAPS   C11 8820   0.548   6.225   5.997 -0.0189  0.1420  0.4325
   91SAPS  H11A 8821   0.614   6.268   6.075  0.6843 -0.5889  0.2630
   91SAPS  H11B 8822   0.590   6.259   5.900 -1.6919 -0.9954 -0.7453
   91SAPS     P 8823   0.688   6.003   5.985  0.0085 -0.0906  0.4661
   91SAPS   O13 8824   0.650   5.867   5.943  0.5071 -0.5236  0.4569
   91SAPS   O14 8825   0.781   6.080   5.897 -0.2082  0.0411 -0.3672
   91SAPS   O12 8826   0.553   6.081   6.008  0.3359 -0.2823  0.0537
   91SAPS   O11 8827   0.751   5.990   6.130 -0.3301 -0.2459 -1.1444
   91SAPS    C1 8828   0.661   5.971   6.244  0.0092 -0.7430  0.7015
   91SAPS    HA 8829   0.568   6.033   6.243  0.1671 -0.4969  0.9867
   91SAPS    HB 8830   0.636   5.863   6.251 -1.3625 -0.4715  0.2821
   91SAPS    C2 8831   0.730   6.020   6.372 -1.0290  0.3119 -0.7662
   91SAPS    HS 8832   0.815   5.952   6.394 -0.4594  1.0072 -0.7747
   91SAPS   O21 8833   0.642   6.015   6.485 -0.0271 -0.2803 -0.2222
   91SAPS   C21 8834   0.602   5.899   6.524 -0.7931  0.1631 -0.2490
   91SAPS   O22 8835   0.659   5.794   6.501  0.7675  0.4582  0.0074
   91SAPS   C22 8836   0.477   5.919   6.607  0.9655 -0.9178 -0.1971
   91SAPS   H2R 8837   0.383   5.936   6.551  0.7130  1.6423  0.8543
   91SAPS   H2S 8838   0.452   5.828   6.666 -0.4945  2.2979  4.8286
   91SAPS    C3 8839   0.781   6.168   6.360 -0.0019  0.2319 -0.2061
   91SAPS    HX 8840   0.689   6.216   6.322 -0.6281 -2.5705 -2.5432
   91SAPS    HY 8841   0.861   6.169   6.283 -0.1345 -1.1697 -0.3909
   91SAPS   O31 8842   0.819   6.226   6.480  0.3628 -0.1432  0.0095
   91SAPS   C31 8843   0.934   6.180   6.528  0.4409 -0.4033  0.3020
   91SAPS   O32 8844   1.001   6.091   6.477 -0.1394  0.4806 -0.6404
   91SAPS   C32 8845   0.969   6.269   6.652 -0.4106 -0.3693  0.3712
   91SAPS   H2X 8846   0.874   6.308   6.695 -0.5593  1.1953 -1.2892
   91SAPS   H2Y 8847   1.039   6.350   6.625 -0.3846  0.3831  2.5264
   91SAPS   C23 8848   0.480   6.031   6.712 -0.9363  0.4466 -0.0134
   91SAPS   H3R 8849   0.371   6.052   6.719 -1.6713 -2.5293 -1.2567
   91SAPS   H3S 8850   0.528   6.117   6.660  0.7069 -0.6196 -0.3309
   91SAPS   C24 8851   0.533   5.987   6.849  0.0510 -0.1554  0.4129
   91SAPS   H4R 8852   0.470   5.907   6.893  1.3478 -0.4883  1.7525
   91SAPS   H4S 8853   0.514   6.069   6.921  0.9945  2.1036 -1.7821
   91SAPS   C25 8854   0.675   5.948   6.853  0.4782  0.3639  0.4136
   91SAPS   H5R 8855   0.706   5.908   6.755 -0.6463  2.4355 -0.8796
   91SAPS   C26 8856   0.759   5.960   6.954  0.2062 -0.0464  0.0570
   91SAPS   H6R 8857   0.864   5.928   6.944 -0.2556 -1.2642 -1.2280
   91SAPS   C27 8858   0.715   6.013   7.092  0.1612  0.5139  0.8319
   91SAPS   H7R 8859   0.730   5.939   7.173  0.1698  1.2530  1.5217
   91SAPS   H7S 8860   0.607   6.036   7.088 -0.2773 -1.6254 -2.1806
   91SAPS   C28 8861   0.785   6.140   7.133 -1.0530  0.6299 -0.0664
   91SAPS   H8R 8862   0.808   6.207   7.048 -2.4185 -0.2882 -1.2067
   91SAPS   C29 8863   0.825   6.178   7.254  0.1865 -0.2934  0.1836
   91SAPS   H9R 8864   0.850   6.284   7.269 -1.1844 -0.1276  1.6045
   91SAPS  C210 8865   0.801   6.097   7.379  0.0433  0.1296 -0.1122
   91SAPS  H10R 8866   0.721   6.022   7.363  0.1022  0.6545 -3.5226
   91SAPS  H10S 8867   0.763   6.162   7.461  0.6884 -0.8974  1.0351
   91SAPS  C211 8868   0.922   6.028   7.429  0.2251  0.2397 -0.6409
   91SAPS  H11R 8869   0.966   5.983   7.339  1.7846  1.1037 -0.3440
   91SAPS  C212 8870   0.991   6.024   7.546 -0.5704 -0.1101  0.1421
   91SAPS  H12R 8871   1.086   5.969   7.543 -0.8071 -0.7014  1.9435
   91SAPS  C213 8872   0.941   6.098   7.665  0.2339  0.7298 -0.0798
   91SAPS  H13R 8873   0.847   6.157   7.658 -0.3853 -0.0746  1.1354
   91SAPS  H13S 8874   1.013   6.180   7.683 -0.5856  2.0645 -2.4196
   91SAPS  C214 8875   0.922   5.997   7.778 -0.1299  0.3129 -0.2159
   91SAPS  H14R 8876   0.906   5.894   7.743 -0.1641  1.0612 -2.6112
   91SAPS  C215 8877   0.929   6.018   7.912  0.1656  0.0702 -0.3755
   91SAPS  H15R 8878   0.916   5.939   7.988 -0.9785 -1.4398 -2.0540
   91SAPS  C216 8879   0.952   6.160   7.960  0.7681 -0.3056 -1.7869
   91SAPS  H16R 8880   0.969   6.235   7.880  1.4052 -0.3046 -1.6538
   91SAPS  H16S 8881   1.053   6.158   8.006  0.1225  0.1499 -0.2790
   91SAPS  C217 8882   0.851   6.236   8.054 -0.4095 -0.1644 -0.2824
   91SAPS  H17R 8883   0.750   6.252   8.010  0.3391 -0.3469 -2.1501
   91SAPS  H17S 8884   0.893   6.339   8.055  0.4507 -0.4367  2.5425
   91SAPS  C218 8885   0.851   6.167   8.189 -0.0809  0.4285  0.0862
   91SAPS  H18R 8886   0.957   6.170   8.220  0.1984  1.2070 -0.9021
   91SAPS  H18S 8887   0.817   6.061   8.191 -0.2901  0.4429 -1.3604
   91SAPS  C219 8888   0.767   6.228   8.298 -0.6213  0.2820  0.3120
   91SAPS  H19R 8889   0.775   6.338   8.286 -1.1295  0.5138  1.8473
   91SAPS  H19S 8890   0.809   6.201   8.397 -0.7766 -1.5607 -0.0911
   91SAPS  C220 8891   0.615   6.198   8.295 -0.2983  0.0778  0.6946
   91SAPS  H20R 8892   0.588   6.230   8.192 -2.1601  2.3461  1.7967
   91SAPS  H20S 8893   0.544   6.239   8.371 -1.9950 -0.1852 -0.6832
   91SAPS  H20T 8894   0.610   6.087   8.298  0.5454 -0.0664 -1.6637
   91SAPS   C33 8895   1.060   6.199   6.754  0.3490 -0.2285 -0.8561
   91SAPS   H3X 8896   1.154   6.156   6.712  0.5381 -1.6570  0.9100
   91SAPS   H3Y 8897   1.001   6.120   6.805  2.5713 -0.4747  1.5405
   91SAPS   C34 8898   1.106   6.290   6.868  0.0668  0.4144  0.2681
   91SAPS   H4X 8899   1.014   6.321   6.921 -0.1359  2.2142 -1.0372
   91SAPS   H4Y 8900   1.151   6.371   6.806 -1.3996  1.5662  0.6616
   91SAPS   C35 8901   1.214   6.227   6.957  0.3704  0.1901  0.1955
   91SAPS   H5X 8902   1.296   6.187   6.894  0.2290  0.3714 -0.1087
   91SAPS   H5Y 8903   1.166   6.136   6.999 -0.1724  0.3248 -0.1205
   91SAPS   C36 8904   1.262   6.328   7.061  0.1878 -0.3160  0.4989
   91SAPS   H6X 8905   1.185   6.400   7.095  0.3646 -0.3265  0.9303
   91SAPS   H6Y 8906   1.345   6.395   7.030  0.1646 -0.7532 -0.5410
   91SAPS   C37 8907   1.303   6.253   7.185 -0.1110  0.2754  0.5051
   91SAPS   H7X 8908   1.395   6.196   7.159  0.8089  2.5855 -1.7076
   91SAPS   H7Y 8909   1.225   6.176   7.204 -0.0359 -0.7571 -2.7854
   91SAPS   C38 8910   1.316   6.343   7.312  0.7578 -0.1143 -0.2651
   91SAPS   H8X 8911   1.355   6.437   7.267 -0.1141  0.4426  0.1177
   91SAPS   H8Y 8912   1.386   6.303   7.389 -0.4682  2.7751  2.5651
   91SAPS   C39 8913   1.179   6.378   7.383 -0.5446  0.1157  0.3140
   91SAPS   H9X 8914   1.137   6.283   7.421 -0.0358 -0.8891 -1.4939
   91SAPS   H9Y 8915   1.122   6.432   7.305 -0.7483  1.4507  1.3444
   91SAPS  C310 8916   1.180   6.480   7.502 -0.2506 -0.2151 -0.5886
   91SAPS  H10X 8917   1.079   6.525   7.512 -0.4629 -0.1954 -2.3732
   91SAPS  H10Y 8918   1.247   6.563   7.470 -0.7647  0.6191  0.4271
   91SAPS  C311 8919   1.223   6.431   7.641  0.2994  0.6115 -0.3751
   91SAPS  H11X 8920   1.323   6.386   7.630  0.3385  0.9089 -1.2838
   91SAPS  H11Y 8921   1.162   6.344   7.674 -1.3684  1.1878 -1.7765
   91SAPS  C312 8922   1.214   6.533   7.756 -0.4014 -0.1498 -0.6196
   91SAPS  H12X 8923   1.147   6.615   7.722  1.9634  0.8845 -3.2208
   91SAPS  H12Y 8924   1.316   6.574   7.773 -0.6620  0.5770 -0.7527
   91SAPS  C313 8925   1.161   6.476   7.887  0.3341 -0.4586  0.2370
   91SAPS  H13X 8926   1.207   6.376   7.903 -0.7340 -1.0009  0.0304
   91SAPS  H13Y 8927   1.050   6.472   7.888  0.1450  2.4256 -0.8066
   91SAPS  C314 8928   1.190   6.571   8.009  1.1265 -0.3684 -0.0191
   91SAPS  H14X 8929   1.116   6.654   8.008 -1.6920 -2.6672  0.4125
   91SAPS  H14Y 8930   1.292   6.612   8.000  2.2148 -2.4917  1.7493
   91SAPS  C315 8931   1.183   6.498   8.143 -0.5890 -0.4397  0.1983
   91SAPS  H15X 8932   1.246   6.406   8.139 -3.6663 -2.7015  0.3279
   91SAPS  H15Y 8933   1.087   6.452   8.174  0.1887 -0.9586  2.0341
   91SAPS  C316 8934   1.215   6.598   8.255 -0.3599  0.1142  0.9758
   91SAPS  H16X 8935   1.218   6.549   8.355  1.1829  1.9017  1.8793
   91SAPS  H16Y 8936   1.136   6.677   8.252  0.7746  1.2540  0.1279
   91SAPS  C317 8937   1.355   6.664   8.243  1.3561  0.0852  0.0128
   91SAPS  H17X 8938   1.402   6.695   8.147  1.3095  0.4078  0.0923
   91SAPS  H17Y 8939   1.431   6.594   8.285 -0.9333 -0.9397  2.7750
   91SAPS  C318 8940   1.351   6.786   8.331 -0.8204  0.0518  0.0628
   91SAPS  H18X 8941   1.296   6.869   8.282  2.1786  2.8447  1.0444
   91SAPS  H18Y 8942   1.452   6.823   8.358 -0.2239 -0.5696 -1.2244
   91SAPS  H18Z 8943   1.307   6.763   8.430  1.0868 -0.1575  0.9038
   92SAPS     N 8944   2.090   4.682   6.484 -0.0270 -0.0440 -0.2239
   92SAPS   HN1 8945   2.150   4.610   6.439 -0.3967 -1.9830  2.2219
   92SAPS   HN2 8946   2.147   4.718   6.563  0.4902 -1.1990 -0.0599
   92SAPS   HN3 8947   1.997   4.652   6.519 -1.0251  2.2782 -0.6884
   92SAPS   C12 8948   2.045   4.786   6.398 -0.3077 -0.2111  1.3044
   92SAPS  H12A 8949   2.124   4.858   6.387 -2.7325  2.9120  2.5909
   92SAPS   C13 8950   1.982   4.750   6.260 -0.0077  0.0626  0.0108
   92SAPS  O13A 8951   1.972   4.628   6.225 -0.7712  0.4649 -0.0708
   92SAPS  O13B 8952   1.957   4.845   6.183  0.2050  0.0659 -0.6193
   92SAPS   C11 8953   1.927   4.864   6.468  0.6065 -0.1486 -0.8780
   92SAPS  H11A 8954   1.880   4.943   6.405 -1.3586 -0.6249 -0.0771
   92SAPS  H11B 8955   1.967   4.914   6.559 -2.3560 -0.9490  0.9925
   92SAPS     P 8956   1.717   4.778   6.605 -0.1305  0.4152  0.2107
   92SAPS   O13 8957   1.601   4.702   6.555 -0.6468 -0.0840  0.0555
   92SAPS   O14 8958   1.759   4.761   6.750 -0.2758 -0.8660 -0.4404
   92SAPS   O12 8959   1.835   4.758   6.501 -0.3157 -0.4655  0.3490
   92SAPS   O11 8960   1.672   4.923   6.584  0.0404  0.1701 -0.5680
   92SAPS    C1 8961   1.734   5.033   6.657  0.2835 -0.2574  0.1815
   92SAPS    HA 8962   1.829   5.009   6.710  0.2580  0.9856  0.8305
   92SAPS    HB 8963   1.755   5.113   6.583  1.1788  0.4165  1.1245
   92SAPS    C2 8964   1.627   5.082   6.753  0.0032  0.4818  0.5767
   92SAPS    HS 8965   1.665   5.179   6.792  2.2156  0.1193 -0.5417
   92SAPS   O21 8966   1.611   4.991   6.860 -1.1904 -0.2902 -0.2734
   92SAPS   C21 8967   1.718   4.987   6.943  0.3558 -0.5564  0.1011
   92SAPS   O22 8968   1.802   5.073   6.959 -0.5545 -0.3294  0.9066
   92SAPS   C22 8969   1.697   4.873   7.039 -0.0519  0.0139 -0.5865
   92SAPS   H2R 8970   1.594   4.901   7.071  0.3230 -1.3404  2.0417
   92SAPS   H2S 8971   1.698   4.784   6.974  0.2278 -0.8485  0.5637
   92SAPS    C3 8972   1.493   5.091   6.674  0.3530 -0.4289 -0.1836
   92SAPS    HX 8973   1.473   4.994   6.623 -0.6736 -0.6212  0.5499
   92SAPS    HY 8974   1.506   5.171   6.598  0.1326  1.3905  1.6087
   92SAPS   O31 8975   1.381   5.126   6.753  0.1588 -0.2640 -0.2660
   92SAPS   C31 8976   1.373   5.253   6.795 -0.5947  0.8064 -0.0623
   92SAPS   O32 8977   1.456   5.340   6.767  0.7040 -0.4621  0.7706
   92SAPS   C32 8978   1.247   5.260   6.879  0.0036 -0.0194  0.2184
   92SAPS   H2X 8979   1.191   5.165   6.869  1.5628 -0.9019 -0.6439
   92SAPS   H2Y 8980   1.193   5.333   6.815 -0.9021 -0.8384  0.0328
   92SAPS   C23 8981   1.802   4.853   7.141 -0.4992 -0.0128 -0.0089
   92SAPS   H3R 8982   1.802   4.945   7.204 -0.3982 -0.2808  0.3854
   92SAPS   H3S 8983   1.901   4.839   7.092  0.2937  1.9647  0.9358
   92SAPS   C24 8984   1.772   4.723   7.230  0.2533  0.1674  0.2948
   92SAPS   H4R 8985   1.864   4.689   7.282 -1.0606  0.7638  3.2349
   92SAPS   H4S 8986   1.745   4.630   7.176  2.3439 -1.2724  1.6092
   92SAPS   C25 8987   1.671   4.753   7.335  0.3695  0.8985  0.1621
   92SAPS   H5R 8988   1.576   4.697   7.333  0.7865  0.1039  1.2987
   92SAPS   C26 8989   1.695   4.828   7.443 -0.4130  0.1673  0.2512
   92SAPS   H6R 8990   1.603   4.851   7.500  0.1072  0.6893  0.8977
   92SAPS   C27 8991   1.825   4.901   7.468 -0.3022 -0.9641  0.6493
   92SAPS   H7R 8992   1.812   5.004   7.428  2.3098  0.3531  2.8707
   92SAPS   H7S 8993   1.915   4.881   7.407 -0.5925 -1.3097  0.3333
   92SAPS   C28 8994   1.864   4.916   7.610  0.2738 -0.4467  0.0484
   92SAPS   H8R 8995   1.944   4.845   7.637 -0.6794 -2.3345 -1.7884
   92SAPS   C29 8996   1.785   4.983   7.701  0.4140  0.7098 -0.0765
   92SAPS   H9R 8997   1.815   4.977   7.807 -1.3985  2.0994  0.5638
   92SAPS  C210 8998   1.655   5.059   7.672  0.0199 -0.4106  0.2208
   92SAPS  H10R 8999   1.622   5.066   7.566  0.5011 -0.9295  0.0292
   92SAPS  H10S 9000   1.682   5.161   7.707  1.6621 -1.2545  1.5823
   92SAPS  C211 9001   1.550   4.989   7.756  0.0277 -0.2065 -0.6250
   92SAPS  H11R 9002   1.501   4.904   7.705 -1.6236  0.4565 -0.2188
   92SAPS  C212 9003   1.516   5.024   7.886 -0.1881 -0.0525  0.9588
   92SAPS  H12R 9004   1.444   4.956   7.934  0.3762 -1.5466 -0.2198
   92SAPS  C213 9005   1.567   5.134   7.973  0.0553 -0.4146  0.0277
   92SAPS  H13R 9006   1.482   5.167   8.035 -0.5628 -0.4717 -0.7652
   92SAPS  H13S 9007   1.578   5.227   7.912 -0.4761 -0.4007 -0.0546
   92SAPS  C214 9008   1.693   5.106   8.050 -0.2924 -0.4564 -0.2836
   92SAPS  H14R 9009   1.777   5.139   7.986 -1.6001  0.4230 -1.6047
   92SAPS  C215 9010   1.704   5.068   8.180  0.3398  0.3107  0.1742
   92SAPS  H15R 9011   1.803   5.054   8.227 -0.3881 -2.1927  1.1180
   92SAPS  C216 9012   1.603   5.024   8.289  0.1209 -0.2750  0.6374
   92SAPS  H16R 9013   1.522   5.099   8.302  0.4952  0.0580  1.0578
   92SAPS  H16S 9014   1.658   5.028   8.386 -0.7077 -0.2518  1.1191
   92SAPS  C217 9015   1.537   4.889   8.259 -0.1156 -0.3752 -0.7123
   92SAPS  H17R 9016   1.620   4.816   8.248  0.4130 -0.2555  1.7982
   92SAPS  H17S 9017   1.476   4.893   8.167 -1.3599  0.0241  0.1130
   92SAPS  C218 9018   1.453   4.846   8.380 -0.3138 -0.0957 -0.6238
   92SAPS  H18R 9019   1.403   4.932   8.429  1.8029  1.0477 -0.3568
   92SAPS  H18S 9020   1.512   4.795   8.459  0.8149  1.0896 -0.6759
   92SAPS  C219 9021   1.341   4.741   8.339  0.0214 -0.2212  0.4021
   92SAPS  H19R 9022   1.394   4.653   8.296  0.0411  0.4470 -0.9570
   92SAPS  H19S 9023   1.281   4.790   8.260  0.4771 -0.9268 -0.3953
   92SAPS  C220 9024   1.267   4.681   8.458 -0.0036  0.1626 -0.2829
   92SAPS  H20R 9025   1.338   4.678   8.544 -1.0121  0.4813  0.5860
   92SAPS  H20S 9026   1.244   4.574   8.440  0.1078  0.3356 -1.5584
   92SAPS  H20T 9027   1.177   4.737   8.489 -0.5665  0.0899 -1.7376
   92SAPS   C33 9028   1.269   5.303   7.028 -0.1125 -0.5640 -0.0619
   92SAPS   H3X 9029   1.172   5.330   7.076 -0.4625  1.4190 -1.7544
   92SAPS   H3Y 9030   1.313   5.404   7.040 -2.4818  0.4646  0.6538
   92SAPS   C34 9031   1.343   5.184   7.109 -0.3983 -0.2259  0.2719
   92SAPS   H4X 9032   1.421   5.147   7.039  0.0665  2.2352 -0.6435
   92SAPS   H4Y 9033   1.276   5.098   7.130  2.0847 -2.8646 -1.8167
   92SAPS   C35 9034   1.404   5.225   7.241  0.3583 -0.1255  0.2101
   92SAPS   H5X 9035   1.492   5.292   7.228  2.7909 -3.0521  0.5022
   92SAPS   H5Y 9036   1.455   5.131   7.271  0.2622  0.4671  2.3558
   92SAPS   C36 9037   1.302   5.267   7.341  0.2770 -0.6085 -1.0643
   92SAPS   H6X 9038   1.237   5.184   7.374  2.8498 -1.5667  2.0802
   92SAPS   H6Y 9039   1.235   5.346   7.301 -0.4244  0.4269  1.9303
   92SAPS   C37 9040   1.369   5.333   7.461 -0.0584  0.2190 -0.1999
   92SAPS   H7X 9041   1.449   5.404   7.429 -0.4452  1.0884  0.7277
   92SAPS   H7Y 9042   1.420   5.254   7.521  2.7810  0.1154 -2.4867
   92SAPS   C38 9043   1.268   5.412   7.553  0.1307  0.7457 -0.3560
   92SAPS   H8X 9044   1.188   5.353   7.602  0.6632  1.5604  1.5917
   92SAPS   H8Y 9045   1.228   5.478   7.473  2.5614  2.3924 -0.3160
   92SAPS   C39 9046   1.340   5.499   7.653  0.1593 -0.3494 -0.1477
   92SAPS   H9X 9047   1.274   5.585   7.677  1.0154 -0.0355  1.1454
   92SAPS   H9Y 9048   1.439   5.532   7.615 -0.6276  2.4567  0.0152
   92SAPS  C310 9049   1.373   5.429   7.778  0.0575 -0.8489 -0.1415
   92SAPS  H10X 9050   1.468   5.371   7.774  0.5163 -0.0800 -0.7570
   92SAPS  H10Y 9051   1.294   5.355   7.803 -1.0623  0.0831 -0.8689
   92SAPS  C311 9052   1.395   5.537   7.887 -0.7011 -0.4558  0.4952
   92SAPS  H11X 9053   1.302   5.596   7.903 -0.4981 -0.2969  1.1158
   92SAPS  H11Y 9054   1.461   5.605   7.828  0.1030 -0.8492  0.9257
   92SAPS  C312 9055   1.446   5.500   8.025 -1.0138  0.3486  0.1514
   92SAPS  H12X 9056   1.406   5.397   8.043 -1.7011 -0.1150 -3.2756
   92SAPS  H12Y 9057   1.406   5.559   8.110  0.5915  0.8136  0.6144
   92SAPS  C313 9058   1.591   5.507   8.048 -0.1248  0.2495  0.4032
   92SAPS  H13X 9059   1.631   5.609   8.032  1.5071 -0.5316 -0.7430
   92SAPS  H13Y 9060   1.657   5.454   7.977  1.1719  2.6097 -0.2460
   92SAPS  C314 9061   1.641   5.456   8.185  0.2213 -0.7973 -0.5755
   92SAPS  H14X 9062   1.644   5.345   8.189  0.3797 -0.7642  0.2538
   92SAPS  H14Y 9063   1.575   5.491   8.267  0.5003  0.0305 -0.6956
   92SAPS  C315 9064   1.784   5.490   8.213  0.0685 -0.0258  0.1081
   92SAPS  H15X 9065   1.810   5.596   8.192  0.2569 -0.6360 -3.1958
   92SAPS  H15Y 9066   1.849   5.447   8.134  1.1508 -0.3427  1.1265
   92SAPS  C316 9067   1.839   5.453   8.349 -0.1788 -0.7069 -0.3112
   92SAPS  H16X 9068   1.945   5.424   8.336 -0.3535 -1.4249 -0.1722
   92SAPS  H16Y 9069   1.784   5.363   8.385 -0.0750 -0.4184  0.6070
   92SAPS  C317 9070   1.824   5.571   8.441  0.7087  0.3146  0.9300
   92SAPS  H17X 9071   1.728   5.622   8.423  2.6044  2.9541 -3.2549
   92SAPS  H17Y 9072   1.887   5.652   8.399 -1.0717  2.1063  1.5551
   92SAPS  C318 9073   1.871   5.548   8.586  0.0181 -0.0959 -0.8444
   92SAPS  H18X 9074   1.858   5.637   8.650 -0.6143 -1.9578  1.7648
   92SAPS  H18Y 9075   1.976   5.513   8.599  0.7324  0.8054 -3.4052
   92SAPS  H18Z 9076   1.796   5.479   8.630  0.2224  0.6587  0.7373
   93SAPS     N 9077   1.778   4.427   6.230  0.1603 -0.2621  0.8750
   93SAPS   HN1 9078   1.762   4.351   6.162  0.9576 -0.7243  1.1839
   93SAPS   HN2 9079   1.839   4.508   6.204  2.0766 -1.6764  0.7383
   93SAPS   HN3 9080   1.823   4.385   6.314 -1.1702 -1.9962  0.7694
   93SAPS   C12 9081   1.653   4.490   6.272 -0.5678 -0.1145  0.4243
   93SAPS  H12A 9082   1.687   4.570   6.337  2.7589  1.2920 -2.6750
   93SAPS   C13 9083   1.570   4.559   6.162  0.3732 -0.4059 -0.3406
   93SAPS  O13A 9084   1.619   4.581   6.048  0.0578  0.3445 -0.1254
   93SAPS  O13B 9085   1.455   4.590   6.196  0.1802  0.1298 -0.1173
   93SAPS   C11 9086   1.564   4.392   6.347  0.0357 -0.5741 -0.2489
   93SAPS  H11A 9087   1.512   4.323   6.278 -3.1661  1.0945  0.2994
   93SAPS  H11B 9088   1.480   4.444   6.397  1.6203  2.2905 -0.3451
   93SAPS     P 9089   1.614   4.185   6.500  0.2515  0.0478  0.1025
   93SAPS   O13 9090   1.505   4.130   6.421 -0.8621 -0.0279 -0.0746
   93SAPS   O14 9091   1.729   4.088   6.521 -0.3401  0.4061 -0.3006
   93SAPS   O12 9092   1.650   4.320   6.435 -0.5043 -0.5567  0.3991
   93SAPS   O11 9093   1.553   4.235   6.638 -0.2764  0.2977 -0.0001
   93SAPS    C1 9094   1.611   4.352   6.705 -0.2511  0.1256  0.7538
   93SAPS    HA 9095   1.671   4.420   6.641 -2.4024 -0.6701 -2.3328
   93SAPS    HB 9096   1.532   4.400   6.767  0.9029  3.5431 -0.2194
   93SAPS    C2 9097   1.729   4.305   6.794  0.4050 -0.1481 -0.0036
   93SAPS    HS 9098   1.805   4.259   6.727  0.8788  0.8846 -0.1884
   93SAPS   O21 9099   1.678   4.209   6.888  0.1886  0.0980 -0.2533
   93SAPS   C21 9100   1.752   4.109   6.928  0.4229  0.1550 -0.3143
   93SAPS   O22 9101   1.870   4.088   6.907 -0.2730  0.2968 -0.5110
   93SAPS   C22 9102   1.653   4.012   7.005  0.1607  0.5569  0.4152
   93SAPS   H2R 9103   1.559   4.069   7.019  0.7301  1.6089  0.0795
   93SAPS   H2S 9104   1.637   3.920   6.945 -2.6199  0.7226  0.7711
   93SAPS    C3 9105   1.783   4.430   6.869 -0.4798 -0.1455 -0.0341
   93SAPS    HX 9106   1.716   4.465   6.950  1.8903  0.8340  1.6069
   93SAPS    HY 9107   1.780   4.515   6.797  0.3060 -0.6668 -0.6935
   93SAPS   O31 9108   1.917   4.409   6.913  0.1452 -0.3527  0.3255
   93SAPS   C31 9109   2.018   4.447   6.833 -0.2707  0.3312 -0.4467
   93SAPS   O32 9110   1.999   4.503   6.726  0.3696  0.7470  0.4661
   93SAPS   C32 9111   2.153   4.408   6.883  0.1610  0.5405 -0.5306
   93SAPS   H2X 9112   2.225   4.465   6.820 -0.3837  1.0182 -0.7355
   93SAPS   H2Y 9113   2.174   4.302   6.859  1.5720  0.7479 -0.2667
   93SAPS   C23 9114   1.707   3.973   7.142 -0.1449  0.0373  0.2675
   93SAPS   H3R 9115   1.819   3.975   7.142 -0.1177 -0.5645  1.1421
   93SAPS   H3S 9116   1.676   3.869   7.166 -1.1630  0.7639  2.2967
   93SAPS   C24 9117   1.645   4.060   7.259 -0.5602  0.1169  0.0062
   93SAPS   H4R 9118   1.673   4.000   7.349 -0.2590 -0.7985 -0.6868
   93SAPS   H4S 9119   1.536   4.053   7.242 -0.5386 -3.0636  0.4461
   93SAPS   C25 9120   1.697   4.199   7.277  0.3558 -0.2431 -0.2228
   93SAPS   H5R 9121   1.803   4.214   7.252 -0.0401  0.2974 -1.7012
   93SAPS   C26 9122   1.617   4.309   7.293  0.4223  0.3082 -0.1223
   93SAPS   H6R 9123   1.665   4.404   7.319 -0.6927  0.4888  1.4958
   93SAPS   C27 9124   1.466   4.299   7.312  0.0018 -0.4006 -0.5935
   93SAPS   H7R 9125   1.439   4.379   7.384  2.3925 -1.0770  1.1910
   93SAPS   H7S 9126   1.456   4.203   7.367 -0.7772  0.1299  0.2153
   93SAPS   C28 9127   1.377   4.305   7.191 -0.0317  0.1780  0.2179
   93SAPS   H8R 9128   1.309   4.220   7.173 -0.5935  0.8111 -0.7516
   93SAPS   C29 9129   1.369   4.407   7.105  0.3431  0.1199  0.5071
   93SAPS   H9R 9130   1.302   4.392   7.019 -1.3404  1.9889  1.4229
   93SAPS  C210 9131   1.456   4.529   7.097  0.0904 -0.2403 -0.8374
   93SAPS  H10R 9132   1.517   4.518   7.005  0.3411 -2.8084 -0.4367
   93SAPS  H10S 9133   1.524   4.537   7.185  1.5844  2.7817 -2.1348
   93SAPS  C211 9134   1.360   4.648   7.085 -0.0576 -0.1628 -0.0132
   93SAPS  H11R 9135   1.354   4.689   6.983 -0.0464  0.2737  0.1600
   93SAPS  C212 9136   1.293   4.706   7.185  0.2442 -0.2897  0.1503
   93SAPS  H12R 9137   1.215   4.780   7.159  0.1588 -0.6807 -0.7395
   93SAPS  C213 9138   1.305   4.673   7.331 -0.2731  0.2064  0.2733
   93SAPS  H13R 9139   1.372   4.750   7.375  0.6261  0.8111 -2.0129
   93SAPS  H13S 9140   1.366   4.582   7.342 -1.0504 -0.2057  1.3558
   93SAPS  C214 9141   1.171   4.662   7.396 -0.3937 -0.5108 -0.5408
   93SAPS  H14R 9142   1.086   4.686   7.331 -2.3216 -1.0333  1.6846
   93SAPS  C215 9143   1.145   4.623   7.522  0.0049  0.1727  0.2555
   93SAPS  H15R 9144   1.040   4.626   7.553  0.3193  0.4824  1.3556
   93SAPS  C216 9145   1.255   4.591   7.619 -0.2404  0.2567  0.2297
   93SAPS  H16R 9146   1.359   4.615   7.587  0.2437 -0.6262  1.0923
   93SAPS  H16S 9147   1.256   4.481   7.626 -4.0440 -0.0262 -1.2633
   93SAPS  C217 9148   1.228   4.662   7.754 -0.2377 -0.1131  0.3796
   93SAPS  H17R 9149   1.134   4.622   7.799 -2.1524  1.4406 -1.9926
   93SAPS  H17S 9150   1.209   4.770   7.733  0.2989 -0.3009 -1.1755
   93SAPS  C218 9151   1.338   4.647   7.854 -0.7522 -0.2516 -0.4111
   93SAPS  H18R 9152   1.427   4.711   7.835 -0.4771  0.2069  2.0395
   93SAPS  H18S 9153   1.368   4.542   7.874 -1.6148 -0.2522  1.0617
   93SAPS  C219 9154   1.296   4.696   7.989 -0.0567  0.1894 -0.4957
   93SAPS  H19R 9155   1.272   4.804   7.983  1.1905  0.5882  0.9767
   93SAPS  H19S 9156   1.383   4.702   8.058  1.2093  0.1426 -2.0469
   93SAPS  C220 9157   1.175   4.624   8.057 -0.5108 -0.5151  0.6218
   93SAPS  H20R 9158   1.150   4.652   8.161 -0.2206 -2.1342  1.1577
   93SAPS  H20S 9159   1.201   4.516   8.064  0.6339 -0.2020  1.4311
   93SAPS  H20T 9160   1.077   4.640   8.007 -0.5948 -1.3721  0.4877
   93SAPS   C33 9161   2.185   4.421   7.036  0.5894 -0.8486  0.0271
   93SAPS   H3X 9162   2.119   4.501   7.078 -3.0723 -3.1721 -0.7962
   93SAPS   H3Y 9163   2.289   4.458   7.039 -0.5221  2.7736 -0.4672
   93SAPS   C34 9164   2.154   4.293   7.099  0.2890  0.2947 -0.0963
   93SAPS   H4X 9165   2.221   4.211   7.065 -0.9328 -0.2620 -1.2551
   93SAPS   H4Y 9166   2.056   4.257   7.061  1.9466 -1.9093 -2.6182
   93SAPS   C35 9167   2.161   4.291   7.252  0.1198 -0.1028  0.2471
   93SAPS   H5X 9168   2.256   4.323   7.301  0.7026  1.7540 -1.9346
   93SAPS   H5Y 9169   2.135   4.188   7.284  0.5394 -0.0841  0.6621
   93SAPS   C36 9170   2.046   4.377   7.310 -0.3891 -0.7368  0.0653
   93SAPS   H6X 9171   1.959   4.342   7.250  1.5878 -0.4775 -3.2182
   93SAPS   H6Y 9172   2.059   4.484   7.284 -0.4473 -0.7703 -0.1063
   93SAPS   C37 9173   2.038   4.364   7.462  0.0638 -0.1650  0.7356
   93SAPS   H7X 9174   2.136   4.401   7.497  0.4776  1.5202 -1.9028
   93SAPS   H7Y 9175   2.015   4.259   7.490 -0.1781 -0.1178  0.7175
   93SAPS   C38 9176   1.923   4.439   7.515  0.6598 -0.4474 -0.4309
   93SAPS   H8X 9177   1.823   4.401   7.485  1.0130 -2.1321  0.3707
   93SAPS   H8Y 9178   1.918   4.546   7.489 -0.3208 -0.8691 -2.0865
   93SAPS   C39 9179   1.928   4.445   7.673 -0.0515  0.0503 -0.0569
   93SAPS   H9X 9180   2.009   4.512   7.708  1.1130 -0.4054 -1.7895
   93SAPS   H9Y 9181   1.933   4.339   7.705 -0.5190  0.0108 -0.1032
   93SAPS  C310 9182   1.801   4.507   7.730 -0.0255  0.6367  0.4692
   93SAPS  H10X 9183   1.715   4.449   7.690  0.2795  2.0990 -2.6026
   93SAPS  H10Y 9184   1.786   4.612   7.698 -1.9287 -0.0440 -1.0591
   93SAPS  C311 9185   1.803   4.484   7.888 -0.2799  0.4686  0.3043
   93SAPS  H11X 9186   1.899   4.512   7.938  0.2084 -0.7453  0.0952
   93SAPS  H11Y 9187   1.793   4.374   7.904 -1.9671  0.4167 -0.9266
   93SAPS  C312 9188   1.687   4.564   7.953  0.3193  0.2677 -0.0937
   93SAPS  H12X 9189   1.691   4.525   8.057 -1.7469 -1.1262 -0.4917
   93SAPS  H12Y 9190   1.592   4.531   7.907 -0.0154  0.0807  0.7300
   93SAPS  C313 9191   1.692   4.711   7.955 -0.3841 -0.2111 -0.3650
   93SAPS  H13X 9192   1.603   4.748   8.009  0.6742 -3.0903  3.8170
   93SAPS  H13Y 9193   1.697   4.750   7.851 -0.7581 -1.7837 -0.9956
   93SAPS  C314 9194   1.831   4.762   8.010 -0.3168 -0.5486 -0.4358
   93SAPS  H14X 9195   1.823   4.872   8.019 -2.0479 -0.7076  0.4702
   93SAPS  H14Y 9196   1.914   4.738   7.941 -1.3372 -0.5566 -1.6915
   93SAPS  C315 9197   1.872   4.709   8.145  0.1428  0.1113 -0.4297
   93SAPS  H15X 9198   1.888   4.599   8.137 -1.4995 -0.2435  0.6665
   93SAPS  H15Y 9199   1.792   4.713   8.222  0.4355  1.2218 -0.1684
   93SAPS  C316 9200   1.991   4.780   8.202  0.4040 -0.7850 -0.3444
   93SAPS  H16X 9201   2.009   4.749   8.308  2.0966  0.1144 -0.3278
   93SAPS  H16Y 9202   1.965   4.888   8.209  0.7685 -0.6055 -1.4966
   93SAPS  C317 9203   2.125   4.753   8.142 -0.0870 -0.9371  0.6326
   93SAPS  H17X 9204   2.117   4.755   8.031  0.6702 -0.0539  0.5745
   93SAPS  H17Y 9205   2.161   4.651   8.167  2.9716  0.0350  0.6384
   93SAPS  C318 9206   2.227   4.864   8.167  0.5403  0.8191  0.0628
   93SAPS  H18X 9207   2.280   4.860   8.265  0.7677  0.5901 -0.0690
   93SAPS  H18Y 9208   2.178   4.964   8.172 -0.0946  0.5386 -0.4234
   93SAPS  H18Z 9209   2.306   4.863   8.089  2.0355  0.6171  1.5185
   94SAPS     N 9210   3.144   0.488   5.919 -0.2252 -0.1220 -0.1001
   94SAPS   HN1 9211   3.096   0.397   5.932  0.1843 -0.4759 -0.9390
   94SAPS   HN2 9212   3.241   0.467   5.888  0.1677  0.7549  0.4857
   94SAPS   HN3 9213   3.143   0.543   6.007 -0.9910 -0.0248 -0.1650
   94SAPS   C12 9214   3.089   0.588   5.814 -0.1003 -0.0152 -0.9215
   94SAPS  H12A 9215   3.147   0.680   5.813 -1.8784  1.3353  2.6528
   94SAPS   C13 9216   3.090   0.537   5.667 -0.1285  0.4044 -0.5515
   94SAPS  O13A 9217   3.123   0.416   5.637 -0.1642 -0.7175  0.1046
   94SAPS  O13B 9218   3.046   0.614   5.579 -0.2757 -0.8057 -0.2349
   94SAPS   C11 9219   2.946   0.628   5.861  0.8165  0.4455  0.2008
   94SAPS  H11A 9220   2.878   0.547   5.828  2.5317 -0.5892 -0.9147
   94SAPS  H11B 9221   2.911   0.719   5.808  0.5640 -0.2944 -0.9444
   94SAPS     P 9222   2.930   0.789   6.061  0.3214 -0.1924  0.3824
   94SAPS   O13 9223   3.062   0.849   6.046  0.0794 -0.2931  0.0274
   94SAPS   O14 9224   2.821   0.864   5.995 -0.0085  0.0924 -0.3345
   94SAPS   O12 9225   2.934   0.639   6.005 -0.0670 -0.6024 -0.1319
   94SAPS   O11 9226   2.893   0.774   6.211  0.0940 -0.1860  0.4474
   94SAPS    C1 9227   2.919   0.663   6.291  0.1216 -0.2503 -0.6818
   94SAPS    HA 9228   2.965   0.576   6.239  1.2807  0.8673 -1.5753
   94SAPS    HB 9229   2.984   0.691   6.376 -0.4639 -0.3208 -0.1972
   94SAPS    C2 9230   2.785   0.595   6.341 -0.0892  0.2481 -0.0541
   94SAPS    HS 9231   2.719   0.606   6.253  0.4343 -1.5342 -0.6923
   94SAPS   O21 9232   2.721   0.658   6.452 -0.4335 -0.1234  0.2961
   94SAPS   C21 9233   2.583   0.648   6.459 -0.0702  0.1863 -0.0724
   94SAPS   O22 9234   2.518   0.568   6.397  0.2751 -0.1949  0.2585
   94SAPS   C22 9235   2.533   0.775   6.535  0.2775  0.0328  0.5104
   94SAPS   H2R 9236   2.594   0.865   6.513 -0.8115  0.6008 -0.2365
   94SAPS   H2S 9237   2.431   0.799   6.499  0.4084 -0.7052 -0.3821
   94SAPS    C3 9238   2.810   0.445   6.377 -0.7929  0.3306 -0.5635
   94SAPS    HX 9239   2.858   0.409   6.283  2.5104  2.6184  0.0755
   94SAPS    HY 9240   2.717   0.387   6.396 -0.4001 -0.7381 -1.7320
   94SAPS   O31 9241   2.905   0.430   6.486 -0.5278  0.0327 -0.1183
   94SAPS   C31 9242   2.859   0.441   6.599  0.2097 -0.7146 -0.4371
   94SAPS   O32 9243   2.745   0.422   6.640  0.1248  0.6546 -0.2778
   94SAPS   C32 9244   2.966   0.507   6.684  0.5107 -0.4765 -0.2830
   94SAPS   H2X 9245   2.984   0.609   6.644  0.7029 -0.5871 -0.4803
   94SAPS   H2Y 9246   3.052   0.438   6.673  1.0363  0.0750  0.2938
   94SAPS   C23 9247   2.515   0.750   6.689  0.5094 -0.1106  0.5971
   94SAPS   H3R 9248   2.443   0.667   6.708 -1.5306  2.0441  3.0619
   94SAPS   H3S 9249   2.459   0.835   6.733 -1.6217 -1.5222  0.7756
   94SAPS   C24 9250   2.642   0.727   6.765  0.2809  0.6310 -0.7668
   94SAPS   H4R 9251   2.691   0.633   6.733  0.5505  1.2835 -2.3979
   94SAPS   H4S 9252   2.605   0.715   6.869 -0.6835  0.9180 -1.0710
   94SAPS   C25 9253   2.733   0.846   6.751 -0.8338 -0.4575  0.3705
   94SAPS   H5R 9254   2.783   0.844   6.654  0.2114 -3.0940  0.8810
   94SAPS   C26 9255   2.781   0.941   6.834  0.0155 -0.3635  0.9816
   94SAPS   H6R 9256   2.861   1.003   6.792 -0.5290  0.5212  1.2417
   94SAPS   C27 9257   2.760   0.953   6.982  0.5835 -0.2339  1.0955
   94SAPS   H7R 9258   2.855   0.996   7.021  0.1762  0.6984  1.0799
   94SAPS   H7S 9259   2.745   0.855   7.033 -0.2462  0.4767  2.2705
   94SAPS   C28 9260   2.645   1.042   7.029 -0.4478  0.1984  0.8053
   94SAPS   H8R 9261   2.587   1.072   6.941  0.9329  0.3659 -0.0824
   94SAPS   C29 9262   2.609   1.068   7.153  0.2155 -0.6017 -0.0152
   94SAPS   H9R 9263   2.527   1.140   7.165  1.9525  1.3704  0.5527
   94SAPS  C210 9264   2.674   1.007   7.274  0.2336 -0.2613  0.2572
   94SAPS  H10R 9265   2.771   0.956   7.252  2.1338  2.8356  0.8479
   94SAPS  H10S 9266   2.612   0.930   7.325 -0.6153  0.5245  0.4242
   94SAPS  C211 9267   2.707   1.119   7.374  0.3759 -0.4764  0.0084
   94SAPS  H11R 9268   2.753   1.204   7.321  2.1274 -1.9977 -1.0208
   94SAPS  C212 9269   2.684   1.125   7.506  0.0274 -0.5317  0.3702
   94SAPS  H12R 9270   2.725   1.214   7.556  0.4763 -0.1824 -0.6057
   94SAPS  C213 9271   2.626   1.021   7.600 -0.0959 -0.3828  0.2705
   94SAPS  H13R 9272   2.632   0.922   7.550 -0.4720  0.7167 -2.0962
   94SAPS  H13S 9273   2.518   1.043   7.616 -0.4821 -0.5237 -1.8645
   94SAPS  C214 9274   2.707   1.017   7.723 -0.2889 -0.2514 -0.6736
   94SAPS  H14R 9275   2.806   1.064   7.716 -0.5872  0.6464  0.7728
   94SAPS  C215 9276   2.669   0.957   7.836 -0.2198 -0.5266  0.2080
   94SAPS  H15R 9277   2.737   0.959   7.923  3.7868 -3.2957 -2.5258
   94SAPS  C216 9278   2.538   0.887   7.853  0.4964  0.2449  0.0062
   94SAPS  H16R 9279   2.549   0.777   7.840  1.3959  0.3631 -0.2384
   94SAPS  H16S 9280   2.461   0.928   7.785  0.5770 -1.1631 -0.9759
   94SAPS  C217 9281   2.487   0.905   7.996 -0.1288 -0.4152 -0.7399
   94SAPS  H17R 9282   2.480   1.013   8.023 -1.1638 -0.6541  0.0180
   94SAPS  H17S 9283   2.564   0.862   8.062  1.0229 -0.2874 -1.9649
   94SAPS  C218 9284   2.352   0.843   8.022  0.7531 -0.0142  0.1481
   94SAPS  H18R 9285   2.352   0.735   7.998  0.2990  0.1181 -0.4640
   94SAPS  H18S 9286   2.269   0.891   7.965  0.2399  0.1770  1.0338
   94SAPS  C219 9287   2.316   0.856   8.172  0.1191 -0.2330 -0.1301
   94SAPS  H19R 9288   2.410   0.865   8.230  0.2438  4.1996 -0.6718
   94SAPS  H19S 9289   2.256   0.765   8.196 -0.3507  0.0521 -0.2028
   94SAPS  C220 9290   2.234   0.977   8.210  0.8168 -0.2022  0.4464
   94SAPS  H20R 9291   2.166   0.971   8.298 -0.7768  1.0498 -0.6463
   94SAPS  H20S 9292   2.162   0.999   8.128  1.0010  2.4576  0.8921
   94SAPS  H20T 9293   2.296   1.070   8.213  1.2784 -0.3151 -2.5865
   94SAPS   C33 9294   2.920   0.525   6.832  0.6380 -0.2337  0.7749
   94SAPS   H3X 9295   2.835   0.459   6.856  0.3930 -0.1037  0.2672
   94SAPS   H3Y 9296   2.898   0.634   6.840  0.5953  0.0226 -1.8103
   94SAPS   C34 9297   3.030   0.496   6.924 -0.2668 -0.2437  0.3302
   94SAPS   H4X 9298   3.110   0.572   6.909  2.2656 -2.4537  1.7863
   94SAPS   H4Y 9299   3.069   0.394   6.905 -0.0746  0.0507 -0.9505
   94SAPS   C35 9300   2.990   0.507   7.072  0.4537 -0.3669  0.7360
   94SAPS   H5X 9301   3.071   0.487   7.144 -0.4328 -0.6380  1.6849
   94SAPS   H5Y 9302   2.918   0.423   7.083 -0.6053 -0.0418 -2.4686
   94SAPS   C36 9303   2.913   0.638   7.100 -0.3447  0.4681  0.0699
   94SAPS   H6X 9304   2.819   0.645   7.041 -0.4375 -2.3943 -0.2319
   94SAPS   H6Y 9305   2.981   0.720   7.069  2.3084 -1.3576  0.7405
   94SAPS   C37 9306   2.893   0.667   7.249  0.7309  0.2162 -0.1979
   94SAPS   H7X 9307   2.824   0.752   7.267  0.5138 -0.1841  0.9869
   94SAPS   H7Y 9308   2.990   0.699   7.293  0.5664 -0.5286  0.7481
   94SAPS   C38 9309   2.844   0.553   7.342  0.1601 -0.5898 -0.2366
   94SAPS   H8X 9310   2.924   0.476   7.345  2.8359  2.0396  0.8509
   94SAPS   H8Y 9311   2.752   0.512   7.293 -0.4597  1.5930 -1.0262
   94SAPS   C39 9312   2.794   0.604   7.483 -0.0357  0.0182  0.1080
   94SAPS   H9X 9313   2.738   0.700   7.481 -0.5258 -0.2627  0.3447
   94SAPS   H9Y 9314   2.886   0.621   7.543  0.6193 -0.9459 -0.5945
   94SAPS  C310 9315   2.709   0.496   7.561  0.0830 -0.1144  0.5781
   94SAPS  H10X 9316   2.761   0.398   7.570 -0.5884 -0.6395 -0.9213
   94SAPS  H10Y 9317   2.623   0.473   7.495  1.1221 -0.6332 -0.6448
   94SAPS  C311 9318   2.670   0.547   7.702  1.0073  0.3659  0.3200
   94SAPS  H11X 9319   2.566   0.509   7.717  0.9454  1.4446  3.4571
   94SAPS  H11Y 9320   2.643   0.655   7.702 -2.2720 -0.3347 -0.9352
   94SAPS  C312 9321   2.759   0.499   7.813 -0.2071  0.6649 -0.1244
   94SAPS  H12X 9322   2.859   0.545   7.801  1.1704 -2.1117 -0.0992
   94SAPS  H12Y 9323   2.779   0.390   7.805  0.5612  0.8741 -1.4053
   94SAPS  C313 9324   2.689   0.517   7.947 -0.6932 -0.6287  0.5287
   94SAPS  H13X 9325   2.591   0.466   7.936 -1.3605  0.6928  0.0811
   94SAPS  H13Y 9326   2.680   0.627   7.963 -0.9743 -0.6230  0.3465
   94SAPS  C314 9327   2.768   0.459   8.064 -0.1271  0.0398 -0.2454
   94SAPS  H14X 9328   2.871   0.501   8.067 -0.2974  0.4076  1.2630
   94SAPS  H14Y 9329   2.781   0.353   8.032 -0.7676 -0.6224  1.5282
   94SAPS  C315 9330   2.706   0.474   8.200  0.1541  0.8957 -0.3046
   94SAPS  H15X 9331   2.783   0.427   8.265  1.2939  0.8126 -1.6513
   94SAPS  H15Y 9332   2.607   0.425   8.200  0.3751  0.4228  0.7492
   94SAPS  C316 9333   2.692   0.619   8.249  0.0280 -0.6497  0.0923
   94SAPS  H16X 9334   2.613   0.669   8.189  0.2249 -1.0446 -0.5142
   94SAPS  H16Y 9335   2.785   0.677   8.229 -0.2449 -0.3050 -0.1935
   94SAPS  C317 9336   2.654   0.626   8.395 -0.2048  0.6076  0.1342
   94SAPS  H17X 9337   2.745   0.617   8.458  0.1058  2.9539  0.1231
   94SAPS  H17Y 9338   2.592   0.544   8.437 -0.8178  1.1695  0.3504
   94SAPS  C318 9339   2.589   0.757   8.432 -0.2205 -0.1733 -0.3538
   94SAPS  H18X 9340   2.650   0.836   8.383  0.4781  0.4066  1.3686
   94SAPS  H18Y 9341   2.599   0.765   8.542 -1.7871 -1.4012 -0.0878
   94SAPS  H18Z 9342   2.483   0.766   8.400  0.3760  0.9992 -2.1761
   95SAPS     N 9343   6.355   3.952   6.038 -0.4297  0.3273 -0.2710
   95SAPS   HN1 9344   6.376   3.906   5.947  2.6283 -0.8780  0.9302
   95SAPS   HN2 9345   6.452   3.968   6.071  0.6206 -3.7957 -0.8204
   95SAPS   HN3 9346   6.327   3.871   6.097  0.6589  1.0272  1.2813
   95SAPS   C12 9347   6.254   4.052   6.032  1.2349 -0.1162 -0.1599
   95SAPS  H12A 9348   6.286   4.125   5.959 -1.4689  0.8714 -0.4714
   95SAPS   C13 9349   6.117   4.005   5.975 -0.0056 -0.3943  1.0903
   95SAPS  O13A 9350   6.100   3.886   5.937 -0.2955 -0.5476 -0.4804
   95SAPS  O13B 9351   6.015   4.077   5.982 -0.4802 -0.3440  0.6976
   95SAPS   C11 9352   6.222   4.108   6.167 -0.7818 -0.2541 -0.0728
   95SAPS  H11A 9353   6.199   4.029   6.242 -1.5663 -1.1356 -1.2123
   95SAPS  H11B 9354   6.145   4.187   6.160  0.7187  1.2673 -0.0147
   95SAPS     P 9355   6.393   4.192   6.354  0.7289 -0.2135  0.0975
   95SAPS   O13 9356   6.452   4.060   6.392 -0.2509 -0.2583 -0.5089
   95SAPS   O14 9357   6.483   4.306   6.357  0.3013  0.1690 -0.1158
   95SAPS   O12 9358   6.341   4.177   6.205  0.2719 -0.2921  0.2566
   95SAPS   O11 9359   6.261   4.214   6.438  0.6340  0.3729 -0.1794
   95SAPS    C1 9360   6.176   4.330   6.443  0.3742  0.3393  1.2718
   95SAPS    HA 9361   6.216   4.419   6.391  0.0038  0.7174  1.6303
   95SAPS    HB 9362   6.083   4.309   6.386  1.5807  1.3094 -1.2254
   95SAPS    C2 9363   6.151   4.389   6.582 -0.4490 -0.1885 -0.2533
   95SAPS    HS 9364   6.121   4.495   6.569  1.3206  0.2522 -0.9556
   95SAPS   O21 9365   6.275   4.386   6.660 -0.0277 -0.2161  1.0097
   95SAPS   C21 9366   6.368   4.468   6.626  0.2773 -0.3721  0.4332
   95SAPS   O22 9367   6.358   4.565   6.547  0.3468  0.2563  0.0447
   95SAPS   C22 9368   6.495   4.425   6.697 -0.0706 -0.3136  0.1943
   95SAPS   H2R 9369   6.464   4.402   6.801  2.8859 -0.0845  1.2150
   95SAPS   H2S 9370   6.534   4.333   6.648 -1.1447 -0.3811 -0.5826
   95SAPS    C3 9371   6.036   4.327   6.655  0.1422  0.8289  0.1511
   95SAPS    HX 9372   6.052   4.218   6.670  2.5544  1.1233  0.1991
   95SAPS    HY 9373   5.949   4.341   6.588 -0.5152 -0.0382  0.8182
   95SAPS   O31 9374   6.018   4.399   6.775 -0.3283  0.4913  0.1706
   95SAPS   C31 9375   5.918   4.343   6.847 -0.4072 -0.3805  0.7877
   95SAPS   O32 9376   5.839   4.262   6.800 -0.5384  0.5641 -0.4930
   95SAPS   C32 9377   5.925   4.386   6.998 -0.0516  0.3960 -0.1136
   95SAPS   H2X 9378   5.819   4.390   7.030 -0.4296  0.5654 -1.3523
   95SAPS   H2Y 9379   5.970   4.488   7.004 -2.4821  1.5490 -0.3272
   95SAPS   C23 9380   6.602   4.534   6.671 -1.0314 -0.4060 -0.1355
   95SAPS   H3R 9381   6.569   4.639   6.689  1.2957  0.3661 -0.0260
   95SAPS   H3S 9382   6.640   4.527   6.567  1.1740 -0.9636  0.6433
   95SAPS   C24 9383   6.740   4.505   6.744 -0.0630  1.0595 -0.3283
   95SAPS   H4R 9384   6.786   4.412   6.704  1.9994  2.3731 -1.1625
   95SAPS   H4S 9385   6.721   4.497   6.853  0.4475  2.1809 -0.1428
   95SAPS   C25 9386   6.840   4.603   6.702  0.4516 -0.3373  0.0884
   95SAPS   H5R 9387   6.892   4.591   6.605  0.4047  2.1165 -0.3037
   95SAPS   C26 9388   6.865   4.716   6.776 -0.1526  0.7600 -0.2566
   95SAPS   H6R 9389   6.948   4.780   6.742  2.7578 -2.1899  0.7037
   95SAPS   C27 9390   6.803   4.746   6.909 -0.1741  0.0852  0.2376
   95SAPS   H7R 9391   6.861   4.828   6.955  1.1037  0.1591 -1.4095
   95SAPS   H7S 9392   6.825   4.661   6.978  0.1215 -0.7172 -0.8176
   95SAPS   C28 9393   6.655   4.757   6.919 -0.5589 -0.0657  0.1238
   95SAPS   H8R 9394   6.610   4.812   6.834  0.2833 -1.7404 -1.4697
   95SAPS   C29 9395   6.570   4.716   7.009  0.2695  0.2615  0.3580
   95SAPS   H9R 9396   6.466   4.751   7.010 -0.5102 -1.8668  1.9680
   95SAPS  C210 9397   6.607   4.639   7.131 -0.5909 -0.0009 -0.7222
   95SAPS  H10R 9398   6.520   4.657   7.198  0.7125  1.3875  0.6991
   95SAPS  H10S 9399   6.686   4.693   7.187  0.3462 -1.5791 -0.4654
   95SAPS  C211 9400   6.644   4.489   7.129  0.9176 -0.1145 -0.7859
   95SAPS  H11R 9401   6.654   4.447   7.028 -0.7574 -2.2804 -0.1373
   95SAPS  C212 9402   6.699   4.417   7.229  0.3303 -0.1380 -0.5449
   95SAPS  H12R 9403   6.742   4.318   7.207 -1.0106 -0.8080 -0.2830
   95SAPS  C213 9404   6.733   4.466   7.362 -0.0320  0.8583 -0.1287
   95SAPS  H13R 9405   6.647   4.467   7.432 -0.8769 -0.1171 -1.1181
   95SAPS  H13S 9406   6.741   4.577   7.357  0.8377  0.9480  2.1125
   95SAPS  C214 9407   6.860   4.404   7.404  0.4304  0.5956 -0.8877
   95SAPS  H14R 9408   6.946   4.424   7.338  0.3250  1.8136 -0.6843
   95SAPS  C215 9409   6.886   4.350   7.522  0.2127 -0.0228 -1.0302
   95SAPS  H15R 9410   6.982   4.299   7.542 -1.4002 -2.6510  0.6031
   95SAPS  C216 9411   6.806   4.327   7.645 -0.2963  0.1087  0.1785
   95SAPS  H16R 9412   6.698   4.354   7.639 -0.6802 -1.5700 -1.3138
   95SAPS  H16S 9413   6.854   4.393   7.720  0.7252 -0.8753  0.4144
   95SAPS  C217 9414   6.804   4.179   7.699  0.3067 -0.2488 -0.0857
   95SAPS  H17R 9415   6.903   4.132   7.716  0.3777  0.3830  1.3510
   95SAPS  H17S 9416   6.742   4.120   7.628 -1.1399  2.4356 -1.2364
   95SAPS  C218 9417   6.708   4.177   7.823  0.1029 -0.2989 -0.0019
   95SAPS  H18R 9418   6.619   4.241   7.806  0.7555  0.3439 -1.1164
   95SAPS  H18S 9419   6.770   4.215   7.907  0.1582 -0.9058  0.2411
   95SAPS  C219 9420   6.676   4.035   7.855 -0.3230  0.1129  0.3215
   95SAPS  H19R 9421   6.768   3.975   7.870 -0.7564 -0.3966  1.0144
   95SAPS  H19S 9422   6.606   3.994   7.778 -0.8466  2.5443 -0.5765
   95SAPS  C220 9423   6.613   4.040   8.000 -0.3143  0.6497 -0.3195
   95SAPS  H20R 9424   6.541   4.124   8.009 -1.2970 -0.3636  2.3111
   95SAPS  H20S 9425   6.697   4.045   8.072  0.0486 -1.8009 -0.4616
   95SAPS  H20T 9426   6.559   3.945   8.019  1.0746 -0.1642 -0.2919
   95SAPS   C33 9427   5.995   4.286   7.086 -0.8540  0.4538 -0.7778
   95SAPS   H3X 9428   6.102   4.302   7.060 -0.2094 -1.2655  0.6312
   95SAPS   H3Y 9429   5.981   4.177   7.069  1.6363  0.1171 -1.1579
   95SAPS   C34 9430   5.960   4.319   7.235 -0.7295  0.2443 -0.1831
   95SAPS   H4X 9431   5.852   4.321   7.260 -0.5485  0.5903  0.6109
   95SAPS   H4Y 9432   6.005   4.419   7.258 -0.7116  0.0837  0.5003
   95SAPS   C35 9433   6.022   4.210   7.334  0.3482 -0.1905 -0.5597
   95SAPS   H5X 9434   6.123   4.182   7.297  0.6623  1.2201 -0.8335
   95SAPS   H5Y 9435   5.954   4.125   7.317  0.4020  0.0447 -2.1833
   95SAPS   C36 9436   6.027   4.263   7.476 -0.4617  0.2144  0.3104
   95SAPS   H6X 9437   6.080   4.361   7.479  0.5321 -0.2690 -0.7373
   95SAPS   H6Y 9438   6.092   4.192   7.531 -1.9473 -1.3305  0.1450
   95SAPS   C37 9439   5.895   4.278   7.543 -0.3369 -0.1735 -0.4987
   95SAPS   H7X 9440   5.833   4.186   7.549 -0.4408 -0.0494  0.4489
   95SAPS   H7Y 9441   5.840   4.354   7.484  0.2485  0.2447 -0.5083
   95SAPS   C38 9442   5.905   4.332   7.681  0.7606 -0.2120 -0.4020
   95SAPS   H8X 9443   5.957   4.427   7.702 -1.3205  1.0417 -0.6276
   95SAPS   H8Y 9444   5.952   4.264   7.755 -0.0216 -0.1897  0.1330
   95SAPS   C39 9445   5.760   4.351   7.738 -0.2227  0.3054  0.7936
   95SAPS   H9X 9446   5.712   4.252   7.729  0.5880 -0.1225  1.0650
   95SAPS   H9Y 9447   5.716   4.429   7.672  0.3764  0.1563  0.1992
   95SAPS  C310 9448   5.757   4.394   7.881  0.3882  0.3938 -0.9129
   95SAPS  H10X 9449   5.829   4.474   7.910  0.4136 -0.5515  1.9940
   95SAPS  H10Y 9450   5.794   4.308   7.941 -2.2446  1.4662  2.6298
   95SAPS  C311 9451   5.616   4.425   7.919  0.1217  0.6723  0.3949
   95SAPS  H11X 9452   5.548   4.347   7.877  1.7256 -0.4483 -0.2144
   95SAPS  H11Y 9453   5.579   4.523   7.882  1.9204  0.9911 -0.6699
   95SAPS  C312 9454   5.606   4.411   8.079 -0.1480  0.1375 -0.0023
   95SAPS  H12X 9455   5.667   4.325   8.114 -1.6343 -1.2636 -0.7280
   95SAPS  H12Y 9456   5.501   4.399   8.112 -0.5281 -0.5178 -1.3995
   95SAPS  C313 9457   5.638   4.545   8.153 -0.2110  0.1260  0.7696
   95SAPS  H13X 9458   5.569   4.623   8.117  0.7702  0.3930 -0.6157
   95SAPS  H13Y 9459   5.736   4.582   8.114 -0.8986  1.1692 -0.0121
   95SAPS  C314 9460   5.658   4.530   8.304  0.0636  0.2998  0.4677
   95SAPS  H14X 9461   5.727   4.448   8.334 -1.0491 -0.5721  0.7084
   95SAPS  H14Y 9462   5.564   4.494   8.350 -0.2557 -2.1981 -1.8676
   95SAPS  C315 9463   5.696   4.663   8.369  0.2206 -0.0302 -0.4899
   95SAPS  H15X 9464   5.600   4.720   8.370  0.2777  0.0618 -0.3350
   95SAPS  H15Y 9465   5.769   4.705   8.296  1.3834 -1.0874  0.0265
   95SAPS  C316 9466   5.755   4.646   8.512  0.4650 -0.1018  0.4668
   95SAPS  H16X 9467   5.840   4.574   8.507  2.8041  2.3887  1.6902
   95SAPS  H16Y 9468   5.674   4.602   8.573 -0.8905 -0.6396 -1.5977
   95SAPS  C317 9469   5.809   4.774   8.586 -0.0412  0.3369  0.9642
   95SAPS  H17X 9470   5.729   4.851   8.590  1.5894  2.1788 -0.0901
   95SAPS  H17Y 9471   5.888   4.814   8.518 -0.1686  0.6959  1.0253
   95SAPS  C318 9472   5.861   4.759   8.727  0.3102 -0.5683  0.5029
   95SAPS  H18X 9473   5.897   4.858   8.761 -0.1520 -0.3107  0.2483
   95SAPS  H18Y 9474   5.942   4.682   8.730  1.2222  0.1910 -2.0248
   95SAPS  H18Z 9475   5.790   4.724   8.805 -0.3142 -0.6849 -0.1179
   96SAPS     N 9476   4.397   5.338   6.033 -0.0944 -0.0978 -0.1335
   96SAPS   HN1 9477   4.463   5.268   6.074 -1.2275 -1.0966  0.0189
   96SAPS   HN2 9478   4.310   5.289   6.005 -0.9414  1.1801  0.1566
   96SAPS   HN3 9479   4.442   5.384   5.951  0.4935 -3.0349 -1.5861
   96SAPS   C12 9480   4.363   5.437   6.141  0.8184  0.1238 -0.4339
   96SAPS  H12A 9481   4.440   5.511   6.134 -0.2063  1.2093 -0.5420
   96SAPS   C13 9482   4.230   5.510   6.120 -0.5162 -0.0294  0.0818
   96SAPS  O13A 9483   4.143   5.482   6.033  0.9788  0.2720  0.1189
   96SAPS  O13B 9484   4.205   5.598   6.210  0.7512 -0.0311  0.1616
   96SAPS   C11 9485   4.342   5.359   6.273  0.8529  0.1324 -0.3220
   96SAPS  H11A 9486   4.251   5.296   6.265  1.5677 -0.8228 -1.0744
   96SAPS  H11B 9487   4.319   5.430   6.356 -0.9260 -2.1619  1.2806
   96SAPS     P 9488   4.588   5.321   6.338  0.1052  0.1862 -0.5461
   96SAPS   O13 9489   4.669   5.205   6.384  0.3825 -0.6156  0.1513
   96SAPS   O14 9490   4.643   5.404   6.227 -0.3748  0.4635 -0.5250
   96SAPS   O12 9491   4.450   5.269   6.294  0.5945  0.5890  0.1547
   96SAPS   O11 9492   4.556   5.407   6.469  0.7912  0.2600  0.1524
   96SAPS    C1 9493   4.674   5.468   6.527  1.6401 -0.0086  0.4458
   96SAPS    HA 9494   4.746   5.501   6.449  1.4543 -0.9537 -0.1421
   96SAPS    HB 9495   4.636   5.560   6.577  1.4993  1.0904 -1.5969
   96SAPS    C2 9496   4.724   5.381   6.641  0.0465  0.3486  0.0689
   96SAPS    HS 9497   4.733   5.277   6.603 -2.6555  0.6947 -1.7897
   96SAPS   O21 9498   4.615   5.374   6.733  0.0653  0.3463 -0.7937
   96SAPS   C21 9499   4.627   5.352   6.865 -0.7065 -0.2848 -0.8937
   96SAPS   O22 9500   4.727   5.330   6.933  0.1185  0.0845  0.1563
   96SAPS   C22 9501   4.492   5.404   6.926 -0.3929 -0.0303 -0.6185
   96SAPS   H2R 9502   4.477   5.507   6.887 -1.8447 -0.5981 -1.6323
   96SAPS   H2S 9503   4.412   5.331   6.898  0.9481 -1.6339 -0.4424
   96SAPS    C3 9504   4.858   5.430   6.700  0.4210 -0.5647  0.6518
   96SAPS    HX 9505   4.929   5.432   6.614 -1.0980 -0.5740 -0.6492
   96SAPS    HY 9506   4.896   5.370   6.786  0.0388 -0.6464  0.7637
   96SAPS   O31 9507   4.844   5.570   6.747  0.4657 -0.5480  0.5510
   96SAPS   C31 9508   4.959   5.628   6.783  0.4619  0.1309 -0.2844
   96SAPS   O32 9509   5.069   5.579   6.765 -0.1151  1.1845 -0.2972
   96SAPS   C32 9510   4.922   5.773   6.841 -0.1507  0.1277 -0.5102
   96SAPS   H2X 9511   4.842   5.815   6.777 -1.4722  0.0097  0.9967
   96SAPS   H2Y 9512   5.012   5.837   6.831 -0.1173 -0.0309 -1.2752
   96SAPS   C23 9513   4.495   5.430   7.076 -0.4860 -0.7069  0.4636
   96SAPS   H3R 9514   4.572   5.508   7.091 -0.7651 -0.1150 -1.0549
   96SAPS   H3S 9515   4.519   5.335   7.129  0.8443  0.1994  1.5777
   96SAPS   C24 9516   4.363   5.481   7.136 -0.2438 -0.0022 -0.3192
   96SAPS   H4R 9517   4.344   5.587   7.108  2.1359  0.9240  1.2021
   96SAPS   H4S 9518   4.371   5.504   7.244 -1.5074 -0.0838 -0.1923
   96SAPS   C25 9519   4.241   5.395   7.100 -0.5741 -0.0497 -0.2729
   96SAPS   H5R 9520   4.224   5.396   6.991 -2.1128  0.1761 -0.0597
   96SAPS   C26 9521   4.161   5.318   7.176 -0.1714 -0.2540 -0.2208
   96SAPS   H6R 9522   4.074   5.263   7.136 -1.4482  2.4989 -1.4912
   96SAPS   C27 9523   4.183   5.300   7.329  0.4278 -0.6194 -0.3188
   96SAPS   H7R 9524   4.260   5.374   7.359 -1.1879  1.2786 -0.6836
   96SAPS   H7S 9525   4.233   5.201   7.333  1.2218 -0.2625 -1.1553
   96SAPS   C28 9526   4.069   5.307   7.423 -0.0098 -0.0268 -0.6001
   96SAPS   H8R 9527   3.967   5.320   7.383 -0.3280 -0.8019 -0.0767
   96SAPS   C29 9528   4.081   5.287   7.556  0.5269  0.2742  0.4974
   96SAPS   H9R 9529   3.991   5.294   7.619  0.2908 -1.2058  0.3646
   96SAPS  C210 9530   4.209   5.267   7.629 -0.0667  0.0437  0.5352
   96SAPS  H10R 9531   4.288   5.307   7.564 -1.5443  1.4782 -0.4536
   96SAPS  H10S 9532   4.225   5.157   7.638 -2.2704 -0.6067 -2.0411
   96SAPS  C211 9533   4.220   5.339   7.767  0.5833  0.5616  0.3313
   96SAPS  H11R 9534   4.253   5.443   7.758 -0.0909  0.6159 -2.2536
   96SAPS  C212 9535   4.182   5.299   7.898 -0.4793  0.1392 -0.2980
   96SAPS  H12R 9536   4.196   5.372   7.979  4.5673 -2.3193  1.4620
   96SAPS  C213 9537   4.133   5.169   7.945  0.8507  0.2009 -0.7780
   96SAPS  H13R 9538   4.136   5.097   7.861  0.6566 -1.1858  0.3778
   96SAPS  H13S 9539   4.023   5.174   7.962  0.5985  1.9013 -2.5997
   96SAPS  C214 9540   4.196   5.115   8.070 -0.3369  0.2834 -0.4887
   96SAPS  H14R 9541   4.273   5.037   8.059 -0.1824  0.1512  1.1724
   96SAPS  C215 9542   4.182   5.160   8.195  0.3866 -0.0358 -0.3178
   96SAPS  H15R 9543   4.230   5.103   8.276  0.1793 -0.7443 -0.6879
   96SAPS  C216 9544   4.082   5.269   8.237 -0.5051 -0.6063  0.0876
   96SAPS  H16R 9545   3.980   5.246   8.199 -0.8783  0.3551  0.4681
   96SAPS  H16S 9546   4.098   5.366   8.186 -0.7628  0.2124  1.4871
   96SAPS  C217 9547   4.051   5.300   8.380 -0.3176 -0.2488  0.3684
   96SAPS  H17R 9548   3.995   5.396   8.389  0.8487  0.4033  0.8394
   96SAPS  H17S 9549   4.139   5.322   8.444 -0.3463 -1.4098  0.8303
   96SAPS  C218 9550   3.980   5.183   8.453 -0.3958  0.7438 -0.2460
   96SAPS  H18R 9551   4.063   5.119   8.488 -1.6289 -0.4505  0.5877
   96SAPS  H18S 9552   3.922   5.129   8.375  0.1356 -0.8357  0.4257
   96SAPS  C219 9553   3.892   5.237   8.573 -0.0248  0.3818 -0.3073
   96SAPS  H19R 9554   3.805   5.289   8.527  0.0825 -0.8300 -1.9827
   96SAPS  H19S 9555   3.957   5.305   8.633 -0.8181  0.7916  0.0920
   96SAPS  C220 9556   3.835   5.118   8.651  0.5884  0.0408 -0.3211
   96SAPS  H20R 9557   3.758   5.058   8.599  0.9707  2.3202 -3.8487
   96SAPS  H20S 9558   3.786   5.145   8.747  1.8259 -0.2035  0.4044
   96SAPS  H20T 9559   3.915   5.045   8.677 -2.8294 -3.6594  0.8751
   96SAPS   C33 9560   4.862   5.760   6.985 -0.0128 -0.9687 -0.3860
   96SAPS   H3X 9561   4.796   5.671   6.976  1.5957 -2.6971  2.9183
   96SAPS   H3Y 9562   4.800   5.850   7.005 -0.5119 -1.2971 -0.4311
   96SAPS   C34 9563   4.967   5.735   7.095  0.3736  0.3940  0.3662
   96SAPS   H4X 9564   5.042   5.816   7.088  1.6936 -0.5587  2.4246
   96SAPS   H4Y 9565   5.017   5.638   7.075  2.0733  1.2307  0.4067
   96SAPS   C35 9566   4.889   5.714   7.230  0.1164 -0.3341 -0.0938
   96SAPS   H5X 9567   4.853   5.609   7.239  0.1892 -0.1945  2.7186
   96SAPS   H5Y 9568   4.799   5.779   7.236 -0.2720 -0.6181 -2.0640
   96SAPS   C36 9569   4.975   5.751   7.350  0.2757  0.1404 -0.7692
   96SAPS   H6X 9570   5.016   5.854   7.349  2.6503 -0.7345 -1.1732
   96SAPS   H6Y 9571   5.062   5.682   7.347 -1.7338 -2.5526 -1.8565
   96SAPS   C37 9572   4.901   5.730   7.484 -0.3861  0.3023  0.3402
   96SAPS   H7X 9573   4.873   5.623   7.491  1.4184 -0.2128  0.1986
   96SAPS   H7Y 9574   4.809   5.792   7.483 -2.0773 -2.0766 -1.1101
   96SAPS   C38 9575   4.992   5.764   7.597 -0.0673  0.4366 -0.1832
   96SAPS   H8X 9576   5.015   5.873   7.597 -0.5330  0.5430 -0.9138
   96SAPS   H8Y 9577   5.090   5.712   7.586  1.3717  3.1040 -0.9808
   96SAPS   C39 9578   4.934   5.731   7.735  0.0711 -0.1935  0.2531
   96SAPS   H9X 9579   4.914   5.623   7.753  2.7905 -0.6283  1.0244
   96SAPS   H9Y 9580   4.835   5.782   7.731 -0.5027 -1.1911  1.1161
   96SAPS  C310 9581   5.009   5.780   7.857  0.6202 -0.5100  0.0068
   96SAPS  H10X 9582   5.009   5.891   7.850  1.5720 -0.3547  1.7958
   96SAPS  H10Y 9583   5.116   5.752   7.864  0.4886 -0.9616  0.2753
   96SAPS  C311 9584   4.946   5.754   7.998 -0.4609 -0.6291 -0.1207
   96SAPS  H11X 9585   5.002   5.668   8.038 -2.2089 -0.4482  3.0351
   96SAPS  H11Y 9586   4.848   5.709   7.971 -1.1996  0.8068  0.0631
   96SAPS  C312 9587   4.932   5.866   8.097 -1.3600  0.0936  0.4286
   96SAPS  H12X 9588   4.863   5.830   8.176 -2.1961 -1.6531 -1.0100
   96SAPS  H12Y 9589   4.889   5.949   8.037 -2.3195  0.5804  1.7366
   96SAPS  C313 9590   5.060   5.925   8.161  0.2232 -0.2500  0.8184
   96SAPS  H13X 9591   5.021   6.012   8.219 -0.2580 -0.9844  1.6225
   96SAPS  H13Y 9592   5.127   5.974   8.087 -0.3789  1.4829  1.3559
   96SAPS  C314 9593   5.120   5.825   8.266  0.3052 -0.1937  0.0941
   96SAPS  H14X 9594   5.141   5.730   8.212 -2.8014 -0.3801 -0.9681
   96SAPS  H14Y 9595   5.061   5.815   8.359 -0.0246 -1.6946 -0.2511
   96SAPS  C315 9596   5.272   5.861   8.311 -0.0453  0.3928  0.8573
   96SAPS  H15X 9597   5.281   5.955   8.368 -2.0198  1.2089 -0.0722
   96SAPS  H15Y 9598   5.324   5.876   8.214  1.4965  1.0804  1.7527
   96SAPS  C316 9599   5.331   5.754   8.398  0.3899  0.1966 -0.2752
   96SAPS  H16X 9600   5.441   5.760   8.386  0.2780 -0.2068 -1.7989
   96SAPS  H16Y 9601   5.294   5.654   8.366  2.6004 -0.7889  0.0377
   96SAPS  C317 9602   5.277   5.778   8.538 -0.1876 -0.8339  0.1474
   96SAPS  H17X 9603   5.167   5.781   8.529 -0.1749  0.3617  0.2745
   96SAPS  H17Y 9604   5.302   5.880   8.573  0.0402  0.2240 -2.7999
   96SAPS  C318 9605   5.328   5.679   8.640 -0.3358  0.1413 -0.1356
   96SAPS  H18X 9606   5.296   5.714   8.740 -0.9960  0.8525 -0.5854
   96SAPS  H18Y 9607   5.438   5.675   8.649 -0.3354  1.1494  0.3984
   96SAPS  H18Z 9608   5.281   5.578   8.629 -2.4046  0.6273  3.0246
   97SAPS     N 9609   6.024   3.675   6.126 -0.3064  0.4425 -0.1053
   97SAPS   HN1 9610   5.922   3.664   6.111 -0.6543  0.9503  1.6599
   97SAPS   HN2 9611   6.054   3.766   6.084  0.9624  1.0849  2.0551
   97SAPS   HN3 9612   6.074   3.592   6.087  0.7922  0.8587  0.3674
   97SAPS   C12 9613   6.056   3.688   6.272 -0.4396  0.6155 -0.0163
   97SAPS  H12A 9614   6.052   3.587   6.311  1.4765  0.8971  1.0231
   97SAPS   C13 9615   6.197   3.746   6.304  0.0590 -0.0994 -0.2706
   97SAPS  O13A 9616   6.284   3.765   6.212 -0.1812 -0.3414 -0.4852
   97SAPS  O13B 9617   6.220   3.760   6.424  0.1354  0.3078 -0.4257
   97SAPS   C11 9618   5.952   3.789   6.326  0.3583 -0.0514 -0.7206
   97SAPS  H11A 9619   5.975   3.891   6.289 -1.5011  2.1395  3.4346
   97SAPS  H11B 9620   5.955   3.791   6.437 -0.0558 -1.9405 -0.6362
   97SAPS     P 9621   5.725   3.638   6.332  0.4116 -0.4235 -0.0828
   97SAPS   O13 9622   5.587   3.689   6.317  0.9065  0.5576 -0.4504
   97SAPS   O14 9623   5.764   3.533   6.239 -0.0952  0.0898  0.0468
   97SAPS   O12 9624   5.819   3.756   6.288  0.3179 -0.4455 -0.4716
   97SAPS   O11 9625   5.770   3.611   6.481  1.1723  0.0617 -1.0578
   97SAPS    C1 9626   5.705   3.516   6.558 -0.6921  0.3059 -0.1798
   97SAPS    HA 9627   5.618   3.468   6.509  0.0607 -1.4444  0.1185
   97SAPS    HB 9628   5.778   3.437   6.588 -0.3283  0.9481  0.6659
   97SAPS    C2 9629   5.639   3.570   6.689  0.6790  0.4800  0.1213
   97SAPS    HS 9630   5.566   3.647   6.659 -0.3844 -0.7719 -0.5768
   97SAPS   O21 9631   5.748   3.633   6.763 -0.3827 -0.0324  0.4891
   97SAPS   C21 9632   5.775   3.758   6.732 -0.2841  0.2036  0.1265
   97SAPS   O22 9633   5.723   3.823   6.640 -0.2933  0.3521 -0.0857
   97SAPS   C22 9634   5.882   3.818   6.812  0.5185 -0.0687 -0.1518
   97SAPS   H2R 9635   5.969   3.749   6.824  0.8350  0.1944 -0.8549
   97SAPS   H2S 9636   5.916   3.906   6.754 -2.1286  1.1030 -0.0910
   97SAPS    C3 9637   5.552   3.470   6.773 -0.4630  0.0776  0.6030
   97SAPS    HX 9638   5.597   3.370   6.753 -1.5850 -0.0342 -1.7126
   97SAPS    HY 9639   5.448   3.471   6.735  0.4197  0.4009 -1.9823
   97SAPS   O31 9640   5.547   3.504   6.912  0.1092 -0.2632  0.4524
   97SAPS   C31 9641   5.473   3.609   6.941  0.1557  0.3409  0.2354
   97SAPS   O32 9642   5.393   3.668   6.874  0.4554  0.4437  0.0673
   97SAPS   C32 9643   5.505   3.654   7.084 -0.5813  0.2148  0.3943
   97SAPS   H2X 9644   5.523   3.762   7.061 -1.1628 -0.1949 -2.3108
   97SAPS   H2Y 9645   5.591   3.599   7.127 -2.3695 -3.0401  0.0603
   97SAPS   C23 9646   5.825   3.882   6.945  0.7402  0.1791 -0.2098
   97SAPS   H3R 9647   5.746   3.814   6.985  1.4641  0.2663  1.4557
   97SAPS   H3S 9648   5.778   3.982   6.929  2.6251  1.1732  0.1306
   97SAPS   C24 9649   5.939   3.897   7.039 -0.3329 -0.1169 -0.1537
   97SAPS   H4R 9650   5.913   3.979   7.108  0.3290 -0.7568  0.8969
   97SAPS   H4S 9651   6.019   3.942   6.976 -1.7205  0.7099 -1.3830
   97SAPS   C25 9652   5.995   3.768   7.100 -0.6146 -0.5942  0.2817
   97SAPS   H5R 9653   6.040   3.692   7.034  0.1253 -0.6373  0.8161
   97SAPS   C26 9654   5.988   3.738   7.231  0.2018 -0.4204 -0.0718
   97SAPS   H6R 9655   6.020   3.639   7.267 -0.0450  0.2790  2.2168
   97SAPS   C27 9656   5.916   3.814   7.339 -0.0622  0.0443  0.1357
   97SAPS   H7R 9657   5.920   3.921   7.309 -1.5906 -0.6993 -3.1804
   97SAPS   H7S 9658   5.972   3.808   7.435  0.8246 -0.5241 -0.4026
   97SAPS   C28 9659   5.775   3.775   7.347  0.4808  0.0379  0.9013
   97SAPS   H8R 9660   5.731   3.756   7.248  3.4801  1.1482 -0.7898
   97SAPS   C29 9661   5.701   3.745   7.457 -0.1506  0.2482 -0.0524
   97SAPS   H9R 9662   5.592   3.729   7.458 -0.2840  1.1244  0.9567
   97SAPS  C210 9663   5.747   3.759   7.598 -0.2860  0.0892 -0.7037
   97SAPS  H10R 9664   5.838   3.701   7.624 -0.2828 -0.0437 -1.0080
   97SAPS  H10S 9665   5.665   3.717   7.659 -0.3975  1.6534  0.2778
   97SAPS  C211 9666   5.765   3.898   7.654  0.0867  0.8207 -0.3974
   97SAPS  H11R 9667   5.737   3.982   7.589 -1.7100  0.8228  0.3034
   97SAPS  C212 9668   5.807   3.919   7.779 -0.3520 -0.2207 -0.0459
   97SAPS  H12R 9669   5.838   4.020   7.808  0.7523 -1.0503  1.8517
   97SAPS  C213 9670   5.843   3.817   7.881  0.0049 -0.1971  0.2150
   97SAPS  H13R 9671   5.949   3.785   7.867 -0.1365 -0.3664 -0.4490
   97SAPS  H13S 9672   5.800   3.718   7.855 -0.3388 -0.5346  1.9151
   97SAPS  C214 9673   5.800   3.836   8.025 -0.1889  0.4612  0.7265
   97SAPS  H14R 9674   5.719   3.764   8.048  1.0877 -1.6058 -0.8715
   97SAPS  C215 9675   5.825   3.922   8.125  0.1336 -0.6238  0.1720
   97SAPS  H15R 9676   5.784   3.914   8.227  0.5511  0.3609  0.4242
   97SAPS  C216 9677   5.920   4.038   8.108 -0.7909  0.0537  0.0437
   97SAPS  H16R 9678   5.872   4.137   8.093 -0.8341 -0.0334 -0.4245
   97SAPS  H16S 9679   5.992   4.031   8.023  0.2846 -1.0494  0.9911
   97SAPS  C217 9680   6.012   4.047   8.235 -0.0614  0.4542  1.0623
   97SAPS  H17R 9681   6.070   3.954   8.254  0.0175 -0.2320 -2.1009
   97SAPS  H17S 9682   5.953   4.071   8.326 -1.4655  0.5169  0.1589
   97SAPS  C218 9683   6.116   4.160   8.213 -0.4964 -0.2693  0.0116
   97SAPS  H18R 9684   6.067   4.256   8.186  2.7209  1.5267  0.0112
   97SAPS  H18S 9685   6.192   4.132   8.137  2.3701  0.3097  2.4781
   97SAPS  C219 9686   6.196   4.189   8.338  0.2689  0.0185 -0.9704
   97SAPS  H19R 9687   6.121   4.178   8.420  0.5680 -1.0570 -0.8273
   97SAPS  H19S 9688   6.228   4.295   8.337 -0.7625  0.3534 -2.4765
   97SAPS  C220 9689   6.312   4.098   8.381 -0.1773  0.0918 -0.4027
   97SAPS  H20R 9690   6.374   4.149   8.458  1.3001  2.3607 -2.9315
   97SAPS  H20S 9691   6.376   4.070   8.295  1.4240  1.0146  0.4379
   97SAPS  H20T 9692   6.278   3.995   8.405  1.6050 -0.6168 -0.7540
   97SAPS   C33 9693   5.385   3.635   7.164  0.0649  0.0862 -0.7631
   97SAPS   H3X 9694   5.296   3.670   7.107  0.4740  1.9896 -0.3191
   97SAPS   H3Y 9695   5.399   3.701   7.252 -0.3086  1.1516 -1.4828
   97SAPS   C34 9696   5.364   3.491   7.222  0.1598  0.6728 -0.0675
   97SAPS   H4X 9697   5.445   3.468   7.294  0.8623 -0.7591 -1.2643
   97SAPS   H4Y 9698   5.369   3.418   7.138 -0.9430  1.7440 -1.1053
   97SAPS   C35 9699   5.223   3.473   7.296  0.0476 -0.0244  0.4910
   97SAPS   H5X 9700   5.220   3.363   7.312  0.5808 -0.0418  0.4838
   97SAPS   H5Y 9701   5.134   3.502   7.236  0.8971  0.7235 -0.4366
   97SAPS   C36 9702   5.208   3.546   7.430  0.1041 -0.3642  0.0701
   97SAPS   H6X 9703   5.107   3.533   7.472  0.8378 -0.4256  1.8951
   97SAPS   H6Y 9704   5.206   3.652   7.398 -0.2192 -0.4761 -0.2998
   97SAPS   C37 9705   5.311   3.519   7.542  0.2144  0.1455  0.1694
   97SAPS   H7X 9706   5.407   3.558   7.503  1.1855 -1.4247  0.8648
   97SAPS   H7Y 9707   5.322   3.409   7.526 -1.6219  0.0794 -0.9931
   97SAPS   C38 9708   5.271   3.562   7.679  0.0220  0.2593  0.2855
   97SAPS   H8X 9709   5.182   3.509   7.718  1.2217 -0.9063  1.5683
   97SAPS   H8Y 9710   5.239   3.668   7.678 -1.4956 -0.1820 -0.6647
   97SAPS   C39 9711   5.367   3.529   7.791 -0.0951  0.0713 -0.0376
   97SAPS   H9X 9712   5.458   3.591   7.778 -1.9650  2.8413 -1.0538
   97SAPS   H9Y 9713   5.398   3.423   7.794  0.1846  0.0859 -1.5952
   97SAPS  C310 9714   5.305   3.557   7.929 -1.2210 -0.6237  1.0499
   97SAPS  H10X 9715   5.244   3.650   7.929 -1.0179 -0.4865  1.2509
   97SAPS  H10Y 9716   5.381   3.577   8.009 -2.6434 -0.8492  2.5100
   97SAPS  C311 9717   5.231   3.434   8.000 -0.6790  0.2356  0.9876
   97SAPS  H11X 9718   5.295   3.344   8.006  1.1503  1.4542  0.4016
   97SAPS  H11Y 9719   5.139   3.409   7.942 -0.0729 -0.0043  0.1211
   97SAPS  C312 9720   5.185   3.467   8.147  0.0275 -1.0367 -0.2209
   97SAPS  H12X 9721   5.107   3.397   8.185  0.7735 -1.1791  1.1257
   97SAPS  H12Y 9722   5.153   3.572   8.134  2.4390 -0.3272 -0.9129
   97SAPS  C313 9723   5.302   3.483   8.243  0.2032  0.8435 -0.3135
   97SAPS  H13X 9724   5.379   3.552   8.203  1.2656 -0.3019 -0.2820
   97SAPS  H13Y 9725   5.360   3.389   8.249 -0.3848  0.4980  0.1548
   97SAPS  C314 9726   5.265   3.521   8.388 -0.2522 -0.2859  0.4627
   97SAPS  H14X 9727   5.175   3.587   8.396 -0.0891  0.3158 -2.0416
   97SAPS  H14Y 9728   5.344   3.580   8.438 -0.3947 -0.3913  0.8184
   97SAPS  C315 9729   5.248   3.395   8.483  0.1141  0.2896 -0.1587
   97SAPS  H15X 9730   5.348   3.346   8.482  0.3720  0.7717 -2.0961
   97SAPS  H15Y 9731   5.183   3.309   8.457  0.0476  0.2935 -0.0072
   97SAPS  C316 9732   5.207   3.439   8.630  0.0752  0.3977  1.1856
   97SAPS  H16X 9733   5.288   3.500   8.674 -0.4294  0.0279  2.6817
   97SAPS  H16Y 9734   5.206   3.345   8.689  0.0531 -1.6234 -1.7692
   97SAPS  C317 9735   5.068   3.498   8.640 -0.1349  0.1428 -1.4804
   97SAPS  H17X 9736   5.069   3.596   8.588  0.1187  1.3864  0.7642
   97SAPS  H17Y 9737   5.060   3.514   8.750  0.2552 -3.0891 -0.9002
   97SAPS  C318 9738   4.958   3.400   8.592 -1.0409 -0.0614 -0.5781
   97SAPS  H18X 9739   4.858   3.443   8.613 -1.0585  0.5698 -1.8069
   97SAPS  H18Y 9740   4.973   3.299   8.634  0.5922  0.5440  0.3986
   97SAPS  H18Z 9741   4.964   3.373   8.484  0.5741 -0.9591 -0.2948
   98SAPS     N 9742   4.133   3.142   6.073 -0.1494 -0.1940  0.1540
   98SAPS   HN1 9743   4.169   3.181   6.162 -0.7759 -0.3905  0.4986
   98SAPS   HN2 9744   4.126   3.039   6.084  0.3705 -0.0976  1.5421
   98SAPS   HN3 9745   4.204   3.155   5.998 -1.7889  3.1878 -1.0013
   98SAPS   C12 9746   3.997   3.191   6.032  0.1485 -0.6250 -0.0362
   98SAPS  H12A 9747   4.005   3.294   6.002  0.5693 -0.2007  1.4602
   98SAPS   C13 9748   3.930   3.119   5.903  0.0803 -0.1316 -0.2835
   98SAPS  O13A 9749   3.977   3.008   5.866  0.2859  0.5304  0.7869
   98SAPS  O13B 9750   3.845   3.189   5.843  0.4464  0.2809  0.0196
   98SAPS   C11 9751   3.896   3.179   6.155  0.3733  0.1113  0.2906
   98SAPS  H11A 9752   3.792   3.193   6.119  0.4744  0.5770  0.1703
   98SAPS  H11B 9753   3.912   3.260   6.229  0.6465 -0.6159  1.0313
   98SAPS     P 9754   3.823   3.006   6.335 -0.1501 -0.3077  0.1804
   98SAPS   O13 9755   3.685   2.969   6.306  0.0137  0.2668  0.0444
   98SAPS   O14 9756   3.905   2.900   6.398  0.2226 -0.3363  0.3746
   98SAPS   O12 9757   3.906   3.053   6.214  0.2551  0.0801  0.6737
   98SAPS   O11 9758   3.814   3.133   6.428 -0.4407 -1.1250  0.0118
   98SAPS    C1 9759   3.910   3.153   6.534 -0.0150 -0.0718 -0.0648
   98SAPS    HA 9760   4.008   3.118   6.494 -0.0824  1.1675 -1.3894
   98SAPS    HB 9761   3.921   3.259   6.565  1.4597  0.1552 -1.2391
   98SAPS    C2 9762   3.883   3.083   6.673 -0.9417  0.3234  0.0203
   98SAPS    HS 9763   3.854   2.980   6.646  0.9034  0.1355 -1.4098
   98SAPS   O21 9764   3.783   3.157   6.741 -0.5658  0.3913  0.1023
   98SAPS   C21 9765   3.659   3.146   6.705 -0.1280 -0.7576  1.0364
   98SAPS   O22 9766   3.611   3.065   6.623 -0.4491 -0.2882 -0.7610
   98SAPS   C22 9767   3.583   3.274   6.751 -0.5475 -0.0419 -0.1013
   98SAPS   H2R 9768   3.637   3.317   6.838 -0.6832  0.8676 -0.4552
   98SAPS   H2S 9769   3.595   3.345   6.666 -2.5477 -0.2224 -0.5987
   98SAPS    C3 9770   4.004   3.062   6.765  0.5561 -0.9485  0.4090
   98SAPS    HX 9771   4.056   3.153   6.802  1.1321 -0.4200 -1.5885
   98SAPS    HY 9772   4.084   3.002   6.716  1.3096  1.2472 -1.2444
   98SAPS   O31 9773   3.966   2.994   6.880 -0.0954 -0.2633  0.4690
   98SAPS   C31 9774   3.961   3.049   7.000 -0.7802 -0.0817 -0.1088
   98SAPS   O32 9775   3.996   3.164   7.030 -0.2094  0.0399 -0.8403
   98SAPS   C32 9776   3.914   2.937   7.093 -0.3626  0.5710  0.2463
   98SAPS   H2X 9777   3.973   2.843   7.084  1.2296  1.4695  0.9854
   98SAPS   H2Y 9778   3.810   2.919   7.058 -0.3069 -0.8830  0.7693
   98SAPS   C23 9779   3.431   3.255   6.795  0.4033 -0.5605  0.2095
   98SAPS   H3R 9780   3.380   3.208   6.709  2.2411 -0.8660 -0.7818
   98SAPS   H3S 9781   3.394   3.355   6.827  1.4945 -0.8099  2.4620
   98SAPS   C24 9782   3.413   3.155   6.907  0.6538  0.6486 -0.2275
   98SAPS   H4R 9783   3.445   3.060   6.861 -1.2201 -0.4317  0.5912
   98SAPS   H4S 9784   3.305   3.145   6.932  0.8412 -2.1020 -0.2530
   98SAPS   C25 9785   3.489   3.183   7.035  0.0571 -0.1867  0.6590
   98SAPS   H5R 9786   3.598   3.193   7.025 -0.2122  2.4891 -0.2856
   98SAPS   C26 9787   3.436   3.201   7.158  0.6763 -1.2385 -0.1419
   98SAPS   H6R 9788   3.497   3.239   7.242 -0.7308 -0.6324  0.6402
   98SAPS   C27 9789   3.288   3.206   7.193  0.0691  0.3173 -0.0962
   98SAPS   H7R 9790   3.215   3.159   7.123 -0.0394  1.6479 -0.9049
   98SAPS   H7S 9791   3.255   3.312   7.193 -2.4677 -0.3999 -0.0631
   98SAPS   C28 9792   3.260   3.138   7.327  0.4239  0.1278  0.1187
   98SAPS   H8R 9793   3.306   3.039   7.332  1.0773  0.4781  2.4215
   98SAPS   C29 9794   3.202   3.187   7.436  0.5294 -0.0409 -0.1701
   98SAPS   H9R 9795   3.193   3.119   7.522 -2.3902 -2.4689 -2.1581
   98SAPS  C210 9796   3.143   3.335   7.450 -0.2833 -0.0906 -0.1681
   98SAPS  H10R 9797   3.046   3.342   7.397 -0.3444 -2.9944 -0.5591
   98SAPS  H10S 9798   3.215   3.408   7.407  1.6474 -0.8868  1.5529
   98SAPS  C211 9799   3.136   3.363   7.597  0.0897 -0.4021  0.1034
   98SAPS  H11R 9800   3.233   3.384   7.644  0.1605 -1.1015  0.2802
   98SAPS  C212 9801   3.024   3.366   7.679 -0.5152  0.7699 -0.6644
   98SAPS  H12R 9802   3.040   3.392   7.785  1.6920  2.5483 -1.3562
   98SAPS  C213 9803   2.878   3.335   7.647 -0.0999  0.6628 -0.4412
   98SAPS  H13R 9804   2.867   3.226   7.630  0.0859  0.4857  0.5261
   98SAPS  H13S 9805   2.857   3.378   7.546  0.5405  0.4885 -0.6516
   98SAPS  C214 9806   2.772   3.380   7.742  0.4186 -0.0718  0.1232
   98SAPS  H14R 9807   2.741   3.484   7.727  0.2455 -0.1762 -0.2640
   98SAPS  C215 9808   2.698   3.303   7.832  0.5728 -0.3702  0.2137
   98SAPS  H15R 9809   2.610   3.350   7.877 -0.3199 -2.0382  0.2715
   98SAPS  C216 9810   2.711   3.156   7.848 -0.3806 -0.8975 -0.5673
   98SAPS  H16R 9811   2.811   3.114   7.822 -0.3260 -0.3486 -1.3035
   98SAPS  H16S 9812   2.635   3.112   7.781  0.1389 -1.9551 -0.4803
   98SAPS  C217 9813   2.684   3.097   7.990  0.0338 -0.2695 -0.3795
   98SAPS  H17R 9814   2.695   2.986   7.994 -0.5560 -0.2877  2.2996
   98SAPS  H17S 9815   2.580   3.128   8.013 -0.2378 -1.3592 -0.0837
   98SAPS  C218 9816   2.765   3.143   8.108 -0.6374 -1.2168  0.0924
   98SAPS  H18R 9817   2.767   3.253   8.121 -0.1189 -1.0660 -1.1441
   98SAPS  H18S 9818   2.872   3.120   8.092 -0.1119  2.1619 -2.2158
   98SAPS  C219 9819   2.698   3.099   8.238  0.0589  0.8691 -0.3200
   98SAPS  H19R 9820   2.680   2.990   8.233  0.7845  0.4623  3.0666
   98SAPS  H19S 9821   2.596   3.143   8.241  0.1243  1.0057 -0.0200
   98SAPS  C220 9822   2.777   3.129   8.371  0.2653 -0.4217  0.1019
   98SAPS  H20R 9823   2.836   3.222   8.366  1.5318 -1.1657  0.8022
   98SAPS  H20S 9824   2.843   3.044   8.399 -1.2702 -2.2508 -1.5131
   98SAPS  H20T 9825   2.704   3.144   8.454  0.5942 -0.4946  0.4043
   98SAPS   C33 9826   3.925   2.982   7.238 -1.2904 -0.0838  0.0460
   98SAPS   H3X 9827   4.021   3.030   7.267 -0.7388 -2.1418  1.8844
   98SAPS   H3Y 9828   3.922   2.890   7.300  2.2635 -0.0292  0.5395
   98SAPS   C34 9829   3.818   3.089   7.287 -0.7263 -0.6916  0.0827
   98SAPS   H4X 9830   3.725   3.050   7.241  0.3641 -3.1810 -0.1788
   98SAPS   H4Y 9831   3.839   3.190   7.245  1.1954 -0.7862  0.7085
   98SAPS   C35 9832   3.816   3.096   7.440 -1.1642 -0.2089 -0.1599
   98SAPS   H5X 9833   3.915   3.136   7.471 -1.1939 -0.6133  0.4744
   98SAPS   H5Y 9834   3.818   2.991   7.477  3.0721  0.0817  0.9607
   98SAPS   C36 9835   3.712   3.187   7.504 -0.0831 -0.0698  0.1314
   98SAPS   H6X 9836   3.646   3.233   7.426 -1.7803 -1.8224  0.4665
   98SAPS   H6Y 9837   3.755   3.267   7.568 -2.2229  0.9990  0.3169
   98SAPS   C37 9838   3.601   3.121   7.588 -1.0653  0.6987  0.1209
   98SAPS   H7X 9839   3.654   3.054   7.659  4.2199  1.2362 -2.7825
   98SAPS   H7Y 9840   3.544   3.051   7.523  0.6236 -1.3779  0.7510
   98SAPS   C38 9841   3.516   3.224   7.664 -0.1058  0.6125 -0.1968
   98SAPS   H8X 9842   3.417   3.174   7.672 -0.7839  1.5167 -2.1455
   98SAPS   H8Y 9843   3.513   3.319   7.606  2.7119  0.1131 -1.3336
   98SAPS   C39 9844   3.578   3.262   7.799 -0.0731 -0.2065  0.0351
   98SAPS   H9X 9845   3.519   3.343   7.846 -1.9122 -0.0817 -2.2899
   98SAPS   H9Y 9846   3.682   3.302   7.792  0.2208 -0.5489  1.9517
   98SAPS  C310 9847   3.591   3.140   7.897 -0.2019  1.0017 -0.4268
   98SAPS  H10X 9848   3.684   3.085   7.870  0.7342  2.6378 -0.6525
   98SAPS  H10Y 9849   3.497   3.081   7.887 -0.2842  0.8354  1.1122
   98SAPS  C311 9850   3.599   3.183   8.045  0.3059  0.4694 -0.5683
   98SAPS  H11X 9851   3.560   3.101   8.109  1.8894 -0.7416 -1.0874
   98SAPS  H11Y 9852   3.528   3.267   8.057  0.1244  0.0272  2.1531
   98SAPS  C312 9853   3.743   3.214   8.094 -0.5921  0.4850 -0.1347
   98SAPS  H12X 9854   3.826   3.160   8.044  0.0345  1.5719 -0.2813
   98SAPS  H12Y 9855   3.746   3.181   8.200 -3.1449  0.2208 -0.0727
   98SAPS  C313 9856   3.776   3.361   8.087  0.2655  1.0988 -0.6835
   98SAPS  H13X 9857   3.711   3.428   8.148 -0.3344 -0.5677  0.5605
   98SAPS  H13Y 9858   3.762   3.398   7.983  1.0051  0.2279 -1.0971
   98SAPS  C314 9859   3.912   3.403   8.132  0.1065 -0.0059  0.2177
   98SAPS  H14X 9860   3.906   3.514   8.132 -2.2321 -0.0884  0.8556
   98SAPS  H14Y 9861   3.984   3.367   8.056 -0.2020 -0.0639 -0.0449
   98SAPS  C315 9862   3.970   3.358   8.272  0.0748  0.3491  0.0365
   98SAPS  H15X 9863   3.976   3.247   8.272 -0.1322  0.3281  0.6818
   98SAPS  H15Y 9864   3.901   3.394   8.352 -0.5638  0.9073 -0.7448
   98SAPS  C316 9865   4.104   3.415   8.310  0.2006  0.0863 -0.0751
   98SAPS  H16X 9866   4.103   3.525   8.303 -2.4615  0.1221 -0.2374
   98SAPS  H16Y 9867   4.184   3.377   8.243 -1.7755 -2.3991 -1.2163
   98SAPS  C317 9868   4.144   3.368   8.451  0.3619  0.4148  0.4492
   98SAPS  H17X 9869   4.255   3.378   8.449  0.3546  0.7237 -2.2122
   98SAPS  H17Y 9870   4.130   3.259   8.465  0.7988  0.5862  2.6067
   98SAPS  C318 9871   4.085   3.443   8.577 -0.0486  0.0559 -0.0656
   98SAPS  H18X 9872   4.136   3.413   8.671  3.0574  2.7978 -0.6835
   98SAPS  H18Y 9873   3.976   3.420   8.578  0.1200 -0.8444 -0.9470
   98SAPS  H18Z 9874   4.097   3.552   8.559 -1.7633  0.0802 -1.3870
   99SAPS     N 9875   6.294   6.427   5.829  0.2178  0.1981 -0.6732
   99SAPS   HN1 9876   6.276   6.377   5.918 -3.7617  1.6858 -0.4207
   99SAPS   HN2 9877   6.250   6.522   5.831  0.6572  0.4816 -2.3836
   99SAPS   HN3 9878   6.247   6.373   5.753 -1.5341 -0.3198  0.7013
   99SAPS   C12 9879   6.438   6.458   5.810  0.4936 -0.0507  0.1475
   99SAPS  H12A 9880   6.482   6.364   5.781  0.1553  0.3283 -1.6811
   99SAPS   C13 9881   6.478   6.558   5.703  0.0642  0.1041 -0.6023
   99SAPS  O13A 9882   6.402   6.566   5.605 -0.3192  0.0230  0.8030
   99SAPS  O13B 9883   6.595   6.596   5.696  0.4399 -0.4781  0.4307
   99SAPS   C11 9884   6.486   6.501   5.954 -0.0441 -0.0515  0.4314
   99SAPS  H11A 9885   6.430   6.594   5.978 -0.9827  0.0616 -1.9102
   99SAPS  H11B 9886   6.593   6.530   5.946 -0.6837  2.2563 -0.8976
   99SAPS     P 9887   6.567   6.329   6.134 -0.2491  0.1951  0.3535
   99SAPS   O13 9888   6.540   6.183   6.125  0.1720  0.1412  0.5560
   99SAPS   O14 9889   6.704   6.366   6.092 -0.6533 -0.0116 -0.1170
   99SAPS   O12 9890   6.457   6.399   6.050 -0.0713  0.2158 -0.4762
   99SAPS   O11 9891   6.539   6.380   6.279 -0.5082 -0.4271  0.3823
   99SAPS    C1 9892   6.408   6.405   6.324 -0.4834 -0.0419  0.4281
   99SAPS    HA 9893   6.389   6.514   6.316  0.0296  0.0444  0.3089
   99SAPS    HB 9894   6.338   6.353   6.255  1.3288 -2.0679 -0.0139
   99SAPS    C2 9895   6.384   6.354   6.471  0.1966  0.6773  0.0774
   99SAPS    HS 9896   6.276   6.366   6.494  0.0946 -1.5194  1.0068
   99SAPS   O21 9897   6.467   6.419   6.567 -0.0598 -0.0960 -0.1998
   99SAPS   C21 9898   6.424   6.527   6.626 -0.4080  0.7066  0.2170
   99SAPS   O22 9899   6.320   6.578   6.592 -0.0652  0.2563  0.7501
   99SAPS   C22 9900   6.519   6.562   6.739  0.5353 -0.0410 -0.3255
   99SAPS   H2R 9901   6.538   6.464   6.788  1.9483 -0.3300 -1.3946
   99SAPS   H2S 9902   6.618   6.588   6.697  1.4924 -3.0499 -0.1298
   99SAPS    C3 9903   6.392   6.207   6.480 -0.3618  0.4339 -0.7855
   99SAPS    HX 9904   6.492   6.165   6.455  0.5054  1.3229  1.0136
   99SAPS    HY 9905   6.323   6.151   6.413 -1.0142 -0.2967  0.4460
   99SAPS   O31 9906   6.346   6.170   6.612  0.9269 -0.0853 -0.5917
   99SAPS   C31 9907   6.445   6.134   6.695 -0.5176  0.2943  0.5321
   99SAPS   O32 9908   6.566   6.140   6.677 -0.8132  0.1502 -0.1741
   99SAPS   C32 9909   6.385   6.091   6.831 -0.4020 -0.2139 -0.5564
   99SAPS   H2X 9910   6.376   5.981   6.840 -0.6060 -0.0441  1.8349
   99SAPS   H2Y 9911   6.286   6.139   6.840 -0.9153 -1.4799  0.9057
   99SAPS   C23 9912   6.460   6.671   6.830  0.1805 -1.4007 -0.3931
   99SAPS   H3R 9913   6.363   6.624   6.856 -0.7068 -0.6131 -2.0777
   99SAPS   H3S 9914   6.428   6.761   6.773  0.8075 -0.3721  0.8335
   99SAPS   C24 9915   6.532   6.705   6.963  0.3711  0.2881 -0.9121
   99SAPS   H4R 9916   6.500   6.806   6.996 -0.3107  0.5929 -2.4330
   99SAPS   H4S 9917   6.638   6.715   6.932 -0.2713 -0.0552 -3.3990
   99SAPS   C25 9918   6.528   6.598   7.069  1.1351  0.5507  0.6077
   99SAPS   H5R 9919   6.551   6.496   7.036 -3.3619 -0.8168  0.9562
   99SAPS   C26 9920   6.500   6.620   7.204 -0.4041  0.3006  0.1746
   99SAPS   H6R 9921   6.517   6.534   7.270 -0.9341 -0.6889 -0.9314
   99SAPS   C27 9922   6.463   6.753   7.265  0.1059  0.8677  0.4265
   99SAPS   H7R 9923   6.396   6.740   7.352 -1.5531 -0.4034 -0.9755
   99SAPS   H7S 9924   6.390   6.799   7.196 -0.3091 -0.7534 -0.2656
   99SAPS   C28 9925   6.574   6.845   7.285  0.0481  0.5955  0.2086
   99SAPS   H8R 9926   6.669   6.805   7.246  0.1936  0.1728  0.9643
   99SAPS   C29 9927   6.575   6.966   7.338 -0.9603 -0.2204  0.3144
   99SAPS   H9R 9928   6.667   7.026   7.335  0.0173 -1.6980 -0.6787
   99SAPS  C210 9929   6.455   7.043   7.381 -0.6689  0.4513  0.1833
   99SAPS  H10R 9930   6.362   6.984   7.369 -0.6886  0.5798 -0.3242
   99SAPS  H10S 9931   6.448   7.123   7.304  1.2834 -0.7441 -1.3758
   99SAPS  C211 9932   6.454   7.087   7.531  0.1366  0.5043  0.8032
   99SAPS  H11R 9933   6.497   7.017   7.604  0.0815 -0.3912 -0.0140
   99SAPS  C212 9934   6.428   7.209   7.585 -0.4151  0.1059  0.1678
   99SAPS  H12R 9935   6.432   7.217   7.694 -1.5136 -0.2562  0.2428
   99SAPS  C213 9936   6.379   7.336   7.504  0.8888  1.0287  0.6645
   99SAPS  H13R 9937   6.395   7.337   7.394  0.1757  0.1365  0.5380
   99SAPS  H13S 9938   6.429   7.425   7.547 -0.8710  3.0803 -1.3128
   99SAPS  C214 9939   6.233   7.348   7.497  0.4052 -0.2659 -0.0384
   99SAPS  H14R 9940   6.184   7.334   7.399  1.5665  0.2059 -0.7068
   99SAPS  C215 9941   6.156   7.390   7.604 -1.0982 -0.4111 -0.0466
   99SAPS  H15R 9942   6.047   7.393   7.590 -0.9509  2.2170 -1.2526
   99SAPS  C216 9943   6.214   7.434   7.740 -0.3994 -0.5853  0.2573
   99SAPS  H16R 9944   6.174   7.538   7.749  0.1087 -0.0720 -2.3962
   99SAPS  H16S 9945   6.325   7.444   7.738 -0.4140 -0.2216 -2.1276
   99SAPS  C217 9946   6.166   7.343   7.851 -0.1950  0.2713 -0.2121
   99SAPS  H17R 9947   6.195   7.239   7.824  0.2917  0.4294 -0.3104
   99SAPS  H17S 9948   6.055   7.356   7.849 -0.3005 -0.5151 -1.9327
   99SAPS  C218 9949   6.213   7.380   7.988 -0.8434  0.1550 -0.9201
   99SAPS  H18R 9950   6.178   7.483   8.009 -0.9788  0.1813 -1.2529
   99SAPS  H18S 9951   6.323   7.385   7.974 -0.6589 -0.1847  0.3415
   99SAPS  C219 9952   6.176   7.279   8.104 -0.6363 -0.3228 -0.5241
   99SAPS  H19R 9953   6.068   7.292   8.127 -0.5772 -1.5714  0.5229
   99SAPS  H19S 9954   6.236   7.322   8.187  0.0340 -1.3984 -0.4294
   99SAPS  C220 9955   6.209   7.134   8.087 -0.0659 -0.1875  0.1162
   99SAPS  H20R 9956   6.212   7.083   8.185  2.1921  1.1156  0.8006
   99SAPS  H20S 9957   6.306   7.124   8.033  0.7100 -0.3015  1.4809
   99SAPS  H20T 9958   6.141   7.084   8.015  1.3837 -2.1379  0.0360
   99SAPS   C33 9959   6.470   6.153   6.945 -0.1119 -0.4573 -0.6248
   99SAPS   H3X 9960   6.465   6.263   6.930  0.9163 -0.0629  1.5295
   99SAPS   H3Y 9961   6.574   6.116   6.933 -0.1837 -0.6609 -0.6219
   99SAPS   C34 9962   6.430   6.113   7.089 -0.2276  0.4452  0.1407
   99SAPS   H4X 9963   6.447   6.005   7.108 -1.1919  0.4137  0.9373
   99SAPS   H4Y 9964   6.324   6.141   7.107  0.0282  1.6627 -0.1246
   99SAPS   C35 9965   6.504   6.184   7.196 -0.0311 -0.5069 -0.8178
   99SAPS   H5X 9966   6.475   6.292   7.195  0.1579 -0.4571 -0.9115
   99SAPS   H5Y 9967   6.613   6.169   7.180  0.0988 -0.9453  0.3498
   99SAPS   C36 9968   6.470   6.132   7.341  0.0871  0.1288  0.5905
   99SAPS   H6X 9969   6.484   6.022   7.352  1.6359  0.2872  0.4445
   99SAPS   H6Y 9970   6.365   6.166   7.353  0.5755  1.2924  1.7875
   99SAPS   C37 9971   6.543   6.201   7.451  0.2402 -0.3499  0.2426
   99SAPS   H7X 9972   6.497   6.302   7.451  0.8188 -0.0794 -0.1180
   99SAPS   H7Y 9973   6.652   6.197   7.429 -0.1277  3.0697 -3.3432
   99SAPS   C38 9974   6.521   6.128   7.585 -0.2004 -0.3600 -0.4232
   99SAPS   H8X 9975   6.537   6.019   7.576 -2.5006 -1.0734  2.6726
   99SAPS   H8Y 9976   6.417   6.133   7.622 -0.6677 -2.6421 -1.3031
   99SAPS   C39 9977   6.602   6.195   7.700  0.2177  0.6653 -0.0013
   99SAPS   H9X 9978   6.556   6.296   7.708  0.7606  0.9474 -0.3521
   99SAPS   H9Y 9979   6.710   6.206   7.674  0.0495  2.4353 -0.0678
   99SAPS  C310 9980   6.594   6.111   7.828 -0.1677  0.1756  0.1959
   99SAPS  H10X 9981   6.653   6.018   7.817  0.3405  0.1517  2.6070
   99SAPS  H10Y 9982   6.488   6.080   7.841 -0.3634 -1.7021 -4.1860
   99SAPS  C311 9983   6.654   6.183   7.951  0.2078  0.6423 -0.4037
   99SAPS  H11X 9984   6.618   6.287   7.964 -0.3891  0.6905 -2.1826
   99SAPS  H11Y 9985   6.765   6.188   7.939  0.2087 -1.9252 -2.4122
   99SAPS  C312 9986   6.636   6.104   8.085  0.3263 -0.7571  0.1511
   99SAPS  H12X 9987   6.698   6.012   8.091  0.0252 -0.8830  2.7391
   99SAPS  H12Y 9988   6.527   6.082   8.096 -0.2962  1.4265 -1.0730
   99SAPS  C313 9989   6.657   6.195   8.208  0.7330  0.2606  0.2550
   99SAPS  H13X 9990   6.642   6.130   8.297 -3.2703 -1.8235 -1.6505
   99SAPS  H13Y 9991   6.582   6.276   8.196  0.6100  0.1634  0.3626
   99SAPS  C314 9992   6.798   6.252   8.206 -0.1420  0.6387 -0.6034
   99SAPS  H14X 9993   6.809   6.326   8.124 -0.5752  0.8436 -0.4779
   99SAPS  H14Y 9994   6.860   6.161   8.189 -0.3510 -0.2373  2.6560
   99SAPS  C315 9995   6.839   6.317   8.343 -0.1603  0.2071 -0.0029
   99SAPS  H15X 9996   6.818   6.228   8.405 -0.8891  0.2974 -0.1052
   99SAPS  H15Y 9997   6.761   6.394   8.362 -0.0380  0.9105 -2.1303
   99SAPS  C316 9998   6.987   6.362   8.358  0.5347 -0.4774  0.1929
   99SAPS  H16X 9999   7.011   6.447   8.290 -1.5229  0.8251  1.0084
   99SAPS  H16Y10000   7.050   6.274   8.335 -0.4049 -1.3859  1.0132
   99SAPS  C31710001   7.024   6.426   8.499 -0.4761 -0.3577  0.7128
   99SAPS  H17X10002   6.957   6.514   8.510  0.6880  0.5557  0.7685
   99SAPS  H17Y10003   7.129   6.462   8.498 -0.0707 -1.4665  1.2128
   99SAPS  C31810004   7.008   6.328   8.617 -1.0712 -0.2842 -0.0050
   99SAPS  H18X10005   7.064   6.233   8.599 -1.1469 -0.0940 -1.3044
   99SAPS  H18Y10006   6.901   6.312   8.641 -1.2256 -0.1344 -0.5894
   99SAPS  H18Z10007   7.047   6.368   8.713 -0.8752  0.5767 -0.4350
  100SAPS     N10008   6.761   2.692   6.380  0.0792  0.1400  0.8283
  100SAPS   HN110009   6.851   2.675   6.428 -0.1550 -2.0890  0.6060
  100SAPS   HN210010   6.704   2.771   6.416 -2.0727 -1.4442  1.1175
  100SAPS   HN310011   6.709   2.603   6.396  0.1040 -0.1685 -0.6816
  100SAPS   C1210012   6.793   2.720   6.236  0.6891 -1.0550 -0.1890
  100SAPS  H12A10013   6.867   2.798   6.224 -0.1154 -0.6052 -2.6532
  100SAPS   C1310014   6.849   2.603   6.154 -0.0197 -0.2750  0.2010
  100SAPS  O13A10015   6.895   2.502   6.219  0.2458  0.2194  0.5091
  100SAPS  O13B10016   6.873   2.623   6.032 -0.1950  0.2827 -0.7521
  100SAPS   C1110017   6.667   2.772   6.176 -0.0418  0.3064  0.3864
  100SAPS  H11A10018   6.595   2.689   6.192 -0.3392  0.0320 -1.9131
  100SAPS  H11B10019   6.670   2.781   6.065 -1.3920  2.7342  0.4792
  100SAPS     P10020   6.486   2.941   6.173 -0.2274 -0.2773 -0.0597
  100SAPS   O1310021   6.475   3.084   6.158 -0.4264 -0.0042 -0.2792
  100SAPS   O1410022   6.444   2.860   6.060  0.3547  0.5210  0.4339
  100SAPS   O1210023   6.631   2.899   6.217 -0.2959 -0.2335 -0.1591
  100SAPS   O1110024   6.396   2.892   6.295 -0.8090 -0.1273 -0.0136
  100SAPS    C110025   6.327   2.989   6.378 -0.1042  0.4244 -0.2923
  100SAPS    HA10026   6.320   3.085   6.322 -0.5655 -0.6075 -2.1003
  100SAPS    HB10027   6.222   2.956   6.395  0.7758 -1.8320  1.1122
  100SAPS    C210028   6.390   3.016   6.515 -0.4443 -0.2337 -0.8219
  100SAPS    HS10029   6.496   3.049   6.500 -0.8260  3.4398  2.7125
  100SAPS   O2110030   6.378   2.900   6.601  0.2690 -0.0464  0.3278
  100SAPS   C2110031   6.474   2.813   6.585 -0.3449 -0.2270  1.1964
  100SAPS   O2210032   6.576   2.824   6.519 -0.1840 -0.1076  0.2805
  100SAPS   C2210033   6.443   2.696   6.680 -0.4854 -0.6821  0.2165
  100SAPS   H2R10034   6.377   2.741   6.757  2.1468  2.1442  1.0516
  100SAPS   H2S10035   6.383   2.625   6.619 -1.6430  0.1952  0.2960
  100SAPS    C310036   6.332   3.138   6.594  0.1187  0.6120 -0.6382
  100SAPS    HX10037   6.224   3.123   6.615 -0.9244  2.6963 -3.6666
  100SAPS    HY10038   6.339   3.223   6.523  2.0298  0.8564 -0.2163
  100SAPS   O3110039   6.407   3.166   6.707 -0.6694  0.1436 -0.4249
  100SAPS   C3110040   6.359   3.275   6.766 -0.2113 -0.6288  0.1630
  100SAPS   O3210041   6.278   3.351   6.715  0.2594  0.4779 -0.0796
  100SAPS   C3210042   6.432   3.302   6.894 -0.3330  0.4974 -1.2197
  100SAPS   H2X10043   6.531   3.339   6.862 -0.3615  1.1045 -0.6192
  100SAPS   H2Y10044   6.450   3.205   6.945 -2.9057 -0.5026 -2.0333
  100SAPS   C2310045   6.560   2.627   6.747  0.5920  0.3148 -0.1552
  100SAPS   H3R10046   6.653   2.622   6.686  1.4202  1.4467  0.9714
  100SAPS   H3S10047   6.532   2.521   6.760 -0.0732  0.5299  0.2325
  100SAPS   C2410048   6.607   2.676   6.885 -0.6654 -0.9575 -0.3446
  100SAPS   H4R10049   6.679   2.607   6.934  2.7524  1.6729 -1.2612
  100SAPS   H4S10050   6.510   2.674   6.940  0.4755  1.6794  2.0148
  100SAPS   C2510051   6.664   2.817   6.865  0.0090 -0.4266 -0.3276
  100SAPS   H5R10052   6.740   2.830   6.786  0.2585 -1.3989 -0.2606
  100SAPS   C2610053   6.614   2.939   6.920  0.7707  0.7653  0.5195
  100SAPS   H6R10054   6.659   3.037   6.902 -1.7167  2.1563  1.3966
  100SAPS   C2710055   6.502   2.933   7.031  0.2203 -0.8784 -0.0054
  100SAPS   H7R10056   6.517   3.016   7.104 -0.6703 -0.7298  0.0153
  100SAPS   H7S10057   6.498   2.834   7.080 -2.4209 -0.0292  1.7083
  100SAPS   C2810058   6.363   2.942   6.978  0.2604  0.1247  0.3955
  100SAPS   H8R10059   6.352   2.964   6.871 -0.9571  1.2404  0.7116
  100SAPS   C2910060   6.239   2.939   7.042 -0.7842  0.0099  0.5950
  100SAPS   H9R10061   6.144   2.949   6.987 -0.0469 -0.8659 -0.8939
  100SAPS  C21010062   6.219   2.929   7.188  0.3128 -0.5348 -0.2616
  100SAPS  H10R10063   6.315   2.948   7.240 -0.2047 -0.2434  0.5944
  100SAPS  H10S10064   6.187   2.826   7.214 -1.2136 -0.0889 -0.2874
  100SAPS  C21110065   6.104   3.017   7.237  0.1458  0.3174 -0.0643
  100SAPS  H11R10066   6.050   3.077   7.162  1.3472  3.0996  1.1395
  100SAPS  C21210067   6.052   3.017   7.361 -1.0375  0.2008 -0.3465
  100SAPS  H12R10068   5.959   3.075   7.372 -1.0370  0.2211 -0.4528
  100SAPS  C21310069   6.103   2.942   7.487 -0.9071 -0.0249  1.2746
  100SAPS  H13R10070   6.151   3.019   7.551 -0.0137  1.7071 -1.3410
  100SAPS  H13S10071   6.184   2.872   7.456  0.0412  1.2148  0.8350
  100SAPS  C21410072   5.999   2.859   7.553 -0.5717 -0.1153 -0.2653
  100SAPS  H14R10073   5.914   2.838   7.486  0.2997  0.2831 -1.5397
  100SAPS  C21510074   6.011   2.828   7.687  0.9298 -0.1707  0.4140
  100SAPS  H15R10075   5.932   2.772   7.740  1.6276 -0.7170  0.8943
  100SAPS  C21610076   6.117   2.872   7.781 -0.1888 -1.1072 -0.7080
  100SAPS  H16R10077   6.209   2.888   7.722 -1.0972  2.3060 -1.4035
  100SAPS  H16S10078   6.148   2.792   7.852  3.5347  0.7306 -0.0093
  100SAPS  C21710079   6.087   3.000   7.866 -0.5113 -0.0290  0.4059
  100SAPS  H17R10080   6.024   3.070   7.808 -4.2395 -3.0017  0.4283
  100SAPS  H17S10081   6.181   3.053   7.892  2.2888 -4.1672 -0.3437
  100SAPS  C21810082   6.012   2.966   7.986 -0.2214  0.1605 -0.8530
  100SAPS  H18R10083   6.062   2.891   8.050 -1.4848 -0.6519 -0.7771
  100SAPS  H18S10084   5.921   2.918   7.943  1.2670 -0.7433 -3.1591
  100SAPS  C21910085   5.983   3.087   8.082  0.1178 -0.2907  0.3583
  100SAPS  H19R10086   5.936   3.039   8.170  0.6112 -4.1558 -1.2710
  100SAPS  H19S10087   5.909   3.153   8.032 -0.5752 -1.2010  0.1610
  100SAPS  C22010088   6.106   3.165   8.135 -0.6903 -0.0650 -0.7962
  100SAPS  H20R10089   6.183   3.093   8.170  1.3991  2.5215  0.2726
  100SAPS  H20S10090   6.078   3.225   8.224  0.6209 -0.3104 -0.1984
  100SAPS  H20T10091   6.147   3.228   8.054  0.5910  1.4373  0.9434
  100SAPS   C3310092   6.357   3.400   6.982 -0.4971  0.0459 -0.4528
  100SAPS   H3X10093   6.301   3.479   6.927  0.6659  0.1609 -1.5001
  100SAPS   H3Y10094   6.440   3.456   7.028 -1.2325  0.8141 -0.0432
  100SAPS   C3410095   6.281   3.349   7.105  0.2043 -0.1422  0.4882
  100SAPS   H4X10096   6.321   3.254   7.148  1.6515  0.2813  0.1419
  100SAPS   H4Y10097   6.177   3.325   7.074  0.4094  0.7081 -0.9027
  100SAPS   C3510098   6.277   3.445   7.219 -0.0235  0.4338  0.4497
  100SAPS   H5X10099   6.238   3.545   7.192 -1.4245  0.7498  3.2642
  100SAPS   H5Y10100   6.381   3.461   7.253  0.7938 -0.3495 -1.5413
  100SAPS   C3610101   6.196   3.395   7.340 -0.5276 -0.3486 -0.3160
  100SAPS   H6X10102   6.233   3.296   7.375  1.4842  0.1233 -0.9552
  100SAPS   H6Y10103   6.091   3.378   7.309 -1.1469  0.7799  1.0624
  100SAPS   C3710104   6.199   3.499   7.455  0.0764 -0.3025  0.2747
  100SAPS   H7X10105   6.162   3.595   7.414  1.3459 -0.2228 -0.7344
  100SAPS   H7Y10106   6.307   3.512   7.477  0.7548 -1.6576 -1.9547
  100SAPS   C3810107   6.096   3.463   7.564 -0.1880  0.1736 -0.0134
  100SAPS   H8X10108   6.122   3.360   7.597  0.9227  0.8472  1.3301
  100SAPS   H8Y10109   5.992   3.462   7.526 -0.9213  1.7059  1.7914
  100SAPS   C3910110   6.100   3.552   7.689  0.5236 -0.3711  0.4950
  100SAPS   H9X10111   6.026   3.520   7.765  0.0403 -0.7718 -0.1266
  100SAPS   H9Y10112   6.075   3.655   7.656 -0.5322 -1.3073 -1.9019
  100SAPS  C31010113   6.237   3.556   7.751  0.1065 -0.3061  0.3731
  100SAPS  H10X10114   6.322   3.577   7.682  0.2216 -3.9631 -0.7767
  100SAPS  H10Y10115   6.275   3.454   7.771 -0.1090 -0.7064 -1.1165
  100SAPS  C31110116   6.250   3.645   7.873  0.1239 -0.1871  0.5557
  100SAPS  H11X10117   6.193   3.737   7.849  0.5473 -0.3610 -1.2534
  100SAPS  H11Y10118   6.353   3.679   7.896 -0.7813  2.0613  1.6060
  100SAPS  C31210119   6.194   3.576   7.997 -0.5213 -0.1394 -0.0053
  100SAPS  H12X10120   6.254   3.488   8.028 -0.1904  0.1500  0.1936
  100SAPS  H12Y10121   6.091   3.541   7.974 -1.3855  1.1452  1.6264
  100SAPS  C31310122   6.164   3.672   8.124 -0.3110  0.5542 -0.5650
  100SAPS  H13X10123   6.093   3.746   8.082  0.5476 -1.0710 -5.4569
  100SAPS  H13Y10124   6.259   3.719   8.157 -0.9609  0.5186  1.5023
  100SAPS  C31410125   6.089   3.600   8.241 -0.4410  0.5826  0.2017
  100SAPS  H14X10126   6.151   3.515   8.278  1.1135  1.1278 -1.0228
  100SAPS  H14Y10127   5.996   3.561   8.194 -0.4333  1.7641 -0.8342
  100SAPS  C31510128   6.073   3.694   8.362 -0.0715  0.3070  1.0774
  100SAPS  H15X10129   6.022   3.783   8.320  2.0960  1.7623  1.3530
  100SAPS  H15Y10130   6.178   3.711   8.395  0.2288 -0.2270  0.4364
  100SAPS  C31610131   5.987   3.643   8.476 -0.0915  0.3193  0.0110
  100SAPS  H16X10132   6.043   3.564   8.532  0.1054  0.6358  0.2646
  100SAPS  H16Y10133   5.905   3.581   8.434 -0.2133 -1.5539  2.7491
  100SAPS  C31710134   5.928   3.743   8.580 -0.3070  0.2089  0.2766
  100SAPS  H17X10135   5.881   3.677   8.656  0.1158 -1.1961 -0.6402
  100SAPS  H17Y10136   5.857   3.811   8.528  0.2464 -0.5668 -1.5818
  100SAPS  C31810137   6.033   3.819   8.654 -0.4171 -0.1152 -0.4927
  100SAPS  H18X10138   6.026   3.926   8.625 -1.4517 -1.1037 -4.4444
  100SAPS  H18Y10139   6.133   3.772   8.643 -1.8611 -2.9107 -3.1964
  100SAPS  H18Z10140   6.004   3.806   8.761 -1.4471 -1.7565 -0.9351
  101OSM      N10141   5.069   4.926  11.215  0.1214  0.9864 -0.8498
  101OSM    C1510142   5.219   4.900  11.227  0.6221  0.4106 -0.4405
  101OSM   H15A10143   5.260   4.944  11.317  1.5639  0.1302 -0.7217
  101OSM   H15B10144   5.266   4.942  11.140 -0.5513  1.4414 -0.6046
  101OSM   H15C10145   5.230   4.794  11.213 -0.5461 -0.0022  1.3792
  101OSM    C1410146   5.015   4.856  11.334 -1.1892 -1.0897  0.5944
  101OSM   H14A10147   4.907   4.861  11.340 -1.3012 -1.2582 -1.0292
  101OSM   H14B10148   5.055   4.901  11.424 -0.1041 -0.4672 -0.1821
  101OSM   H14C10149   5.038   4.751  11.332 -0.6663 -0.9660 -1.0478
  101OSM    C1310150   5.045   5.066  11.225 -0.4307 -0.5577  0.5543
  101OSM   H13A10151   5.096   5.113  11.142 -0.0119 -0.6928  0.7306
  101OSM   H13B10152   5.090   5.102  11.316  0.1888 -1.4244  0.6026
  101OSM   H13C10153   4.940   5.092  11.221 -0.5395 -0.9158  0.9744
  101OSM    C1210154   5.012   4.865  11.087 -0.5878  0.4928  0.4219
  101OSM   H12A10155   5.052   4.919  11.002 -1.6146  1.2980  0.4300
  101OSM   H12B10156   4.906   4.885  11.090 -0.3028  2.3249 -0.1731
  101OSM    C1110157   5.038   4.714  11.056  0.9527 -0.0516 -0.1079
  101OSM   H11A10158   4.984   4.679  10.965  1.9874 -1.1068 -0.3407
  101OSM   H11B10159   5.000   4.642  11.132  0.0274 -2.0353 -2.3204
  101OSM      P10160   5.236   4.559  10.989  0.2364 -0.0801 -0.5413
  101OSM    O1310161   5.378   4.562  10.950  0.3963  0.4797  0.2923
  101OSM    O1410162   5.194   4.454  11.083 -0.0699 -0.0142 -0.4714
  101OSM    O1110163   5.154   4.556  10.859  0.0675  0.1657  0.3294
  101OSM    O1210164   5.180   4.698  11.043 -0.0463 -0.6014  0.7168
  101OSM    C1S10165   5.217   4.558  10.732  0.3123 -0.0541  0.1758
  101OSM    H1S10166   5.312   4.500  10.734  2.2971  2.8636  4.1136
  101OSM    H1T10167   5.233   4.661  10.694 -0.3534  1.0479  2.6619
  101OSM     NF10168   5.204   4.517  10.503  0.0127 -0.0009 -0.0907
  101OSM    HNF10169   5.179   4.591  10.440  0.5489 -0.7809 -1.2639
  101OSM    C2S10170   5.124   4.496  10.630 -0.4352  0.2324  0.8555
  101OSM    H2S10171   5.115   4.388  10.654 -0.2609  0.1176  0.4198
  101OSM    C3S10172   4.985   4.556  10.639 -0.1774 -0.4838 -0.0860
  101OSM    H3S10173   4.993   4.667  10.647 -2.4375 -0.2705 -0.0403
  101OSM     O310174   4.923   4.528  10.766 -0.0765  0.2576 -0.2288
  101OSM    HO310175   4.998   4.529  10.826  1.0218  0.7044 -1.5454
  101OSM    C4S10176   4.903   4.514  10.521  0.1481  0.1833  0.3579
  101OSM    H4S10177   4.925   4.567  10.427 -0.1471  0.5697  0.5082
  101OSM    C5S10178   4.796   4.428  10.520 -0.1190 -0.7383 -1.0879
  101OSM    H5S10179   4.765   4.380  10.614 -0.0849  0.9843 -0.1619
  101OSM    C6S10180   4.719   4.398  10.398 -0.1029  0.2140  0.2071
  101OSM    H6S10181   4.619   4.440  10.422 -0.4202 -0.8039  0.7706
  101OSM    H6T10182   4.700   4.289  10.383  0.8869 -0.0921  1.0310
  101OSM    C7S10183   4.760   4.446  10.261 -0.3417 -0.4267  0.9967
  101OSM    H7S10184   4.866   4.421  10.238  0.2717  2.0955  0.7750
  101OSM    H7T10185   4.733   4.554  10.263 -1.2834 -0.5801 -0.8475
  101OSM    C8S10186   4.680   4.383  10.152  0.4826  1.0752  0.3105
  101OSM    H8S10187   4.576   4.405  10.186  0.3986  2.6632 -0.8580
  101OSM    H8T10188   4.690   4.273  10.148 -0.7745  0.9281  0.6111
  101OSM    C9S10189   4.700   4.455  10.014  0.1657 -0.0447 -0.9617
  101OSM    H9S10190   4.802   4.441   9.973  0.8465  0.8912  0.3319
  101OSM    H9T10191   4.686   4.565  10.023  1.1504  0.1661 -1.8872
  101OSM   C10S10192   4.597   4.414   9.911 -0.2193 -0.2884 -0.1278
  101OSM   H10S10193   4.490   4.405   9.939  0.0188  0.7327  1.1800
  101OSM   H10T10194   4.627   4.317   9.865  0.4725 -0.1769  0.0723
  101OSM   C11S10195   4.607   4.520   9.794  0.5944  0.0147  0.1382
  101OSM   H11S10196   4.715   4.524   9.769  0.3606 -0.2306 -0.9198
  101OSM   H11T10197   4.568   4.611   9.844 -1.4828  0.2223 -1.7234
  101OSM   C12S10198   4.537   4.476   9.663  0.2334  0.5861 -0.9473
  101OSM   H12S10199   4.428   4.459   9.677  0.5463 -1.3694 -0.6297
  101OSM   H12T10200   4.567   4.370   9.650 -1.9125 -0.5796  2.3760
  101OSM   C13S10201   4.543   4.577   9.551 -0.7916  0.1058 -0.6239
  101OSM   H13S10202   4.641   4.629   9.545 -1.5365  1.4503 -2.0124
  101OSM   H13T10203   4.472   4.661   9.569  1.5591  2.0271  0.1888
  101OSM   C14S10204   4.499   4.512   9.418  0.2203  0.1324  0.1144
  101OSM   H14S10205   4.390   4.492   9.418  0.1793  0.2546  2.0409
  101OSM   H14T10206   4.546   4.412   9.401 -0.4595 -0.4974  1.7171
  101OSM   C15S10207   4.533   4.600   9.297  0.1472  0.2978  0.1212
  101OSM   H15S10208   4.635   4.634   9.322  0.3247 -0.0805 -0.0827
  101OSM   H15T10209   4.467   4.689   9.302  0.0424  0.3061 -1.1770
  101OSM   C16S10210   4.537   4.517   9.170  0.6767  0.2181 -0.0378
  101OSM   H16S10211   4.434   4.480   9.150  0.3744  1.0091  0.0157
  101OSM   H16T10212   4.609   4.435   9.189  0.7354  0.3331  0.2367
  101OSM   C17S10213   4.589   4.595   9.044 -0.0389  0.2835 -0.5784
  101OSM   H17S10214   4.530   4.686   9.022  2.9738  2.2049 -1.2939
  101OSM   H17T10215   4.584   4.525   8.958  3.0001 -1.4943  0.5401
  101OSM   C18S10216   4.737   4.648   9.054 -0.6790 -0.0289 -0.4972
  101OSM   H18S10217   4.760   4.691   8.954  2.4656 -0.7352 -0.2104
  101OSM   H18T10218   4.798   4.555   9.061 -2.6394 -1.2569  1.4247
  101OSM   H18U10219   4.759   4.721   9.135 -0.0527  0.7527 -1.3334
  101OSM    C1F10220   5.316   4.457  10.471  0.3133 -0.2197  0.8778
  101OSM     OF10221   5.355   4.364  10.538  0.4076 -0.5797 -0.4446
  101OSM    C2F10222   5.378   4.507  10.349  0.4111  0.0842  0.3442
  101OSM    H2F10223   5.436   4.599  10.372 -1.7334  1.3376  0.9747
  101OSM    H2G10224   5.301   4.545  10.279 -0.6821 -1.3618  0.7210
  101OSM    C3F10225   5.461   4.402  10.263  0.1498 -0.8826 -0.1158
  101OSM    H3F10226   5.558   4.379  10.312  0.0092 -1.3232 -0.0358
  101OSM    H3G10227   5.484   4.446  10.164 -0.1437 -0.9962 -0.2356
  101OSM    C4F10228   5.383   4.282  10.216  0.1991 -0.0111  0.4940
  101OSM    H4F10229   5.303   4.310  10.143  1.0051  1.0577  0.0034
  101OSM    H4G10230   5.332   4.234  10.302  0.4252 -0.3187  0.4604
  101OSM    C5F10231   5.480   4.173  10.169  0.0583  0.3204 -0.3608
  101OSM    H5F10232   5.527   4.129  10.260  1.6320  1.4656 -0.5981
  101OSM    H5G10233   5.564   4.221  10.115  1.0912  1.3513  2.0415
  101OSM    C6F10234   5.409   4.066  10.088 -0.9305  0.2656 -0.0056
  101OSM    H6F10235   5.379   4.121   9.996  0.7011  1.5040  0.1645
  101OSM    H6G10236   5.314   4.030  10.132 -1.5263  1.4893 -0.2481
  101OSM    C7F10237   5.491   3.946  10.050 -0.1987  0.2569 -0.3326
  101OSM    H7F10238   5.531   3.885  10.133 -0.0734 -1.1597 -1.3859
  101OSM    H7G10239   5.581   3.972   9.990  1.1977 -0.2516  1.4492
  101OSM    C8F10240   5.420   3.845   9.965  0.2305  0.6010 -0.2893
  101OSM    H8F10241   5.327   3.829  10.023  0.0946  2.8161  0.1880
  101OSM    H8G10242   5.475   3.749   9.956  3.0163  2.0178  0.4563
  101OSM    C9F10243   5.382   3.890   9.826 -0.0132 -0.0768  0.2942
  101OSM    H9F10244   5.292   3.950   9.809 -0.3487 -1.2263 -2.5465
  101OSM   C10F10245   5.464   3.873   9.718  0.0930 -0.4654  0.0027
  101OSM   H10F10246   5.437   3.921   9.623  0.3581 -0.2019  0.0568
  101OSM   C11F10247   5.593   3.799   9.725  0.4823 -0.4796  0.0382
  101OSM   H11F10248   5.646   3.811   9.822 -0.8098  2.4490  0.4984
  101OSM   H11G10249   5.663   3.858   9.662 -1.2175  1.3896 -0.1993
  101OSM   C12F10250   5.592   3.656   9.683 -0.6465  0.4283 -0.2232
  101OSM   H12F10251   5.521   3.593   9.740  0.5621 -1.5834 -0.8381
  101OSM   H12G10252   5.690   3.606   9.690 -0.8148 -0.3132 -2.4728
  101OSM   C13F10253   5.539   3.636   9.535 -0.1692 -0.0139  0.7298
  101OSM   H13F10254   5.435   3.674   9.520  0.3493  0.8232 -1.0121
  101OSM   H13G10255   5.527   3.528   9.513 -1.5315  0.3343 -0.4204
  101OSM   C14F10256   5.629   3.702   9.424 -1.2650  0.0497  0.0856
  101OSM   H14F10257   5.725   3.750   9.454 -0.2172 -0.3014 -2.4707
  101OSM   H14G10258   5.566   3.784   9.383  0.1020  0.3726 -1.4834
  101OSM   C15F10259   5.664   3.605   9.314 -0.0675 -0.0950  0.2929
  101OSM   H15F10260   5.568   3.560   9.281 -0.3290  0.7080 -0.0647
  101OSM   H15G10261   5.734   3.525   9.344  1.5753 -0.6923 -4.3693
  101OSM   C16F10262   5.732   3.692   9.205  0.7642 -0.2259 -0.4658
  101OSM   H16F10263   5.790   3.773   9.254  0.4764 -0.1478 -0.2508
  101OSM   H16G10264   5.644   3.744   9.160 -0.7128 -3.4345 -1.5711
  101OSM   C17F10265   5.802   3.621   9.097 -0.1402 -0.5853 -0.4005
  101OSM   H17F10266   5.727   3.561   9.040  0.7090 -2.0554 -0.0413
  101OSM   H17G10267   5.881   3.551   9.134  2.5675  0.8682 -3.0111
  101OSM   C18F10268   5.864   3.718   9.002 -0.1297 -0.2247 -0.5433
  101OSM   H18F10269   5.938   3.663   8.940  2.1204 -0.1802  1.9618
  101OSM   H18G10270   5.923   3.789   9.063  0.3579  0.7420 -2.0820
  101OSM   H18H10271   5.792   3.778   8.942 -0.6584 -0.1483  0.1591
  102OSM      N10272   3.094   3.137  10.869  0.0434  0.0644 -0.7333
  102OSM    C1510273   3.200   3.223  10.915 -0.1580 -0.6922 -0.1696
  102OSM   H15A10274   3.283   3.216  10.846 -0.9475  0.5516 -1.2837
  102OSM   H15B10275   3.238   3.201  11.014  0.1480 -1.2762 -0.4086
  102OSM   H15C10276   3.168   3.326  10.916 -0.3045 -0.7334 -0.5216
  102OSM    C1410277   3.142   2.996  10.870 -0.0958  0.4133 -0.4434
  102OSM   H14A10278   3.061   2.926  10.856  1.0775 -1.0155 -0.2725
  102OSM   H14B10279   3.178   2.976  10.969 -3.8513 -0.8663  0.8544
  102OSM   H14C10280   3.220   2.968  10.801  0.5967 -2.8643  1.4418
  102OSM    C1310281   2.984   3.139  10.968  0.5504 -0.2074 -0.1814
  102OSM   H13A10282   2.918   3.059  10.940  2.1415 -2.0965  1.2036
  102OSM   H13B10283   2.930   3.233  10.972  3.7017  1.8077 -0.7206
  102OSM   H13C10284   3.022   3.121  11.067  2.5941 -1.2867 -1.0928
  102OSM    C1210285   3.041   3.173  10.736  0.0698  0.1796 -0.6720
  102OSM   H12A10286   2.973   3.100  10.694 -0.3133  0.7555 -1.0781
  102OSM   H12B10287   3.122   3.171  10.665 -2.4763 -1.4802 -3.8021
  102OSM    C1110288   2.974   3.314  10.731  0.7742 -0.1805 -0.1772
  102OSM   H11A10289   2.867   3.308  10.761  0.7603  1.0087  0.0394
  102OSM   H11B10290   2.970   3.330  10.621  2.2043  0.3441 -0.1714
  102OSM      P10291   2.964   3.533  10.871  0.1979  0.5038  0.0439
  102OSM    O1310292   2.859   3.459  10.943 -0.1750 -0.1881  0.2235
  102OSM    O1410293   3.053   3.615  10.954 -0.7404 -0.3852  0.3202
  102OSM    O1110294   2.888   3.627  10.766 -0.3785 -0.1422 -0.4884
  102OSM    O1210295   3.050   3.428  10.786 -0.4066  0.5867  0.2218
  102OSM    C1S10296   2.946   3.711  10.667  0.2750 -0.6322  0.5556
  102OSM    H1S10297   3.004   3.646  10.597  0.8203 -1.6537  1.9195
  102OSM    H1T10298   3.016   3.783  10.715 -0.1859  0.0534  0.2147
  102OSM     NF10299   2.900   3.860  10.480 -0.3185  0.0272  0.2363
  102OSM    HNF10300   2.934   3.952  10.496 -0.5694  0.6336 -2.2649
  102OSM    C2S10301   2.842   3.801  10.597  0.1376 -0.4194 -0.2515
  102OSM    H2S10302   2.750   3.747  10.567 -0.1295 -0.0720 -0.0569
  102OSM    C3S10303   2.791   3.907  10.695 -0.1703  1.0156 -0.0971
  102OSM    H3S10304   2.870   3.980  10.723  1.2855  0.2077 -1.8882
  102OSM     O310305   2.724   3.851  10.813 -0.8382  0.2516 -0.1123
  102OSM    HO310306   2.775   3.769  10.812  0.4646  1.0135 -2.2961
  102OSM    C4S10307   2.686   3.988  10.624 -0.4776  0.4351  0.9618
  102OSM    H4S10308   2.589   3.938  10.611  0.4882 -1.0533 -0.9935
  102OSM    C5S10309   2.714   4.112  10.573 -0.3144 -0.4430  0.8659
  102OSM    H5S10310   2.812   4.162  10.573  0.5194 -1.8780 -1.6234
  102OSM    C6S10311   2.618   4.197  10.494  0.1284  0.3264  0.1931
  102OSM    H6S10312   2.675   4.220  10.402  1.8051 -1.6755  0.6489
  102OSM    H6T10313   2.591   4.290  10.549  1.5816  1.2780 -0.6495
  102OSM    C7S10314   2.485   4.125  10.454  0.0946 -0.3611  0.6510
  102OSM    H7S10315   2.442   4.105  10.555  0.5670 -1.8683  0.5871
  102OSM    H7T10316   2.501   4.032  10.395 -3.0234  0.1642 -1.2417
  102OSM    C8S10317   2.390   4.205  10.368  0.7842 -0.6590  0.4093
  102OSM    H8S10318   2.428   4.247  10.272  0.2864  1.1340  0.9613
  102OSM    H8T10319   2.350   4.288  10.428  2.2448  0.0275  0.4797
  102OSM    C9S10320   2.266   4.119  10.331 -0.2548  0.1813 -0.0425
  102OSM    H9S10321   2.182   4.185  10.300 -1.7646 -0.6790  1.9703
  102OSM    H9T10322   2.227   4.075  10.425 -0.0252  0.4190  0.1630
  102OSM   C10S10323   2.279   4.010  10.217 -0.9286 -0.3325 -0.7525
  102OSM   H10S10324   2.329   3.926  10.269  3.5325  2.7062  0.4638
  102OSM   H10T10325   2.348   4.042  10.136  0.7760  1.7173  1.3569
  102OSM   C11S10326   2.141   3.968  10.166  0.2193 -0.1187 -0.4339
  102OSM   H11S10327   2.108   4.046  10.094  0.6128 -0.9424 -1.5176
  102OSM   H11T10328   2.066   3.981  10.247 -0.5343 -2.4477 -0.7072
  102OSM   C12S10329   2.142   3.835  10.094 -0.0587  0.2811  0.0889
  102OSM   H12S10330   2.145   3.749  10.165  1.0025 -0.4559 -0.7979
  102OSM   H12T10331   2.241   3.829  10.042 -0.1598 -1.9749  0.0437
  102OSM   C13S10332   2.024   3.816  10.000  0.1102  0.3431 -0.3483
  102OSM   H13S10333   2.041   3.713   9.962  1.8215 -0.6140  2.6245
  102OSM   H13T10334   2.029   3.880   9.909  1.0694 -1.6823 -1.7985
  102OSM   C14S10335   1.894   3.824  10.078 -0.3376 -0.1682 -0.0697
  102OSM   H14S10336   1.879   3.929  10.113  1.0695  0.1446 -0.3578
  102OSM   H14T10337   1.916   3.764  10.169 -1.1514 -0.9926 -0.3943
  102OSM   C15S10338   1.762   3.777  10.012  0.0035  0.2912  0.1245
  102OSM   H15S10339   1.677   3.775  10.084 -1.0629 -0.0883 -1.0911
  102OSM   H15T10340   1.764   3.671   9.980 -2.2366  0.7469 -1.8138
  102OSM   C16S10341   1.730   3.840   9.883 -0.6953  0.4020 -0.1723
  102OSM   H16S10342   1.806   3.796   9.814 -3.0714 -0.8852 -2.1219
  102OSM   H16T10343   1.747   3.949   9.892  0.5278  0.4873 -2.5592
  102OSM   C17S10344   1.585   3.819   9.836 -0.3011  0.1051  0.0023
  102OSM   H17S10345   1.515   3.852   9.915  1.5520 -0.2196  1.8546
  102OSM   H17T10346   1.566   3.709   9.837 -2.1410  0.3758 -0.7843
  102OSM   C18S10347   1.544   3.868   9.692  0.5084 -0.4301  0.8777
  102OSM   H18S10348   1.438   3.837   9.680  0.3312 -0.6056  2.6373
  102OSM   H18T10349   1.611   3.832   9.610 -1.7242 -1.4868 -0.5805
  102OSM   H18U10350   1.540   3.978   9.699  1.0735 -0.1855 -1.6996
  102OSM    C1F10351   2.933   3.793  10.366 -0.2283 -0.5749 -0.0438
  102OSM     OF10352   2.884   3.683  10.355  0.2132 -0.4853  0.0779
  102OSM    C2F10353   3.017   3.863  10.260 -0.3612  0.2307  0.3317
  102OSM    H2F10354   3.114   3.878  10.312 -0.8592  0.3613  1.2434
  102OSM    H2G10355   2.976   3.964  10.240 -3.2624 -0.1103  3.6420
  102OSM    C3F10356   3.047   3.781  10.140  0.5041 -0.3467  0.3068
  102OSM    H3F10357   3.066   3.676  10.170  2.3949 -0.0013  0.4473
  102OSM    H3G10358   3.141   3.823  10.099 -1.0056  0.7683 -2.3156
  102OSM    C4F10359   2.939   3.795  10.021 -0.3698  0.2669 -0.9203
  102OSM    H4F10360   2.938   3.902   9.992  0.4674  1.1842  2.0141
  102OSM    H4G10361   2.843   3.770  10.072 -0.5822  0.8501 -1.0265
  102OSM    C5F10362   2.975   3.684   9.920  0.3481  1.6848  0.4645
  102OSM    H5F10363   2.935   3.592   9.966 -0.1611  1.1886 -0.9060
  102OSM    H5G10364   3.086   3.680   9.912  0.2605 -0.4821 -0.3641
  102OSM    C6F10365   2.905   3.705   9.784  0.3372 -0.0249  0.2741
  102OSM    H6F10366   2.931   3.811   9.765  0.5947 -0.1545 -0.1292
  102OSM    H6G10367   2.798   3.720   9.808  1.2259  1.9160  3.7018
  102OSM    C7F10368   2.940   3.593   9.685 -0.2180 -0.2412 -0.3647
  102OSM    H7F10369   2.927   3.496   9.736  0.5242  0.9332  2.2259
  102OSM    H7G10370   3.051   3.595   9.682 -0.1527 -1.3698  0.5153
  102OSM    C8F10371   2.875   3.594   9.543 -0.6174  0.8642  0.0001
  102OSM    H8F10372   2.918   3.676   9.481  2.0209 -0.8560 -0.6197
  102OSM    H8G10373   2.766   3.604   9.564 -0.5635  1.6133 -0.0186
  102OSM    C9F10374   2.902   3.462   9.482  0.2416 -0.5746  0.2009
  102OSM    H9F10375   3.006   3.426   9.490  1.1300  1.7950  0.4288
  102OSM   C10F10376   2.813   3.375   9.430  0.3221  0.2453 -0.2002
  102OSM   H10F10377   2.850   3.279   9.391 -0.7596  0.0267 -0.7190
  102OSM   C11F10378   2.668   3.392   9.418  0.4190 -0.3681  0.1715
  102OSM   H11F10379   2.631   3.489   9.458 -0.8760 -0.2247 -1.2698
  102OSM   H11G10380   2.617   3.316   9.481  0.9487 -1.0468 -0.2108
  102OSM   C12F10381   2.629   3.388   9.274  0.0536 -0.0095  0.1797
  102OSM   H12F10382   2.677   3.303   9.220 -0.3187 -0.3073  0.3088
  102OSM   H12G10383   2.676   3.474   9.221  3.0550 -0.9659  1.0732
  102OSM   C13F10384   2.478   3.385   9.250  0.1042  0.0054 -0.5687
  102OSM   H13F10385   2.424   3.464   9.306 -1.5936 -1.6452  0.2609
  102OSM   H13G10386   2.439   3.295   9.303 -1.7359  1.3103  0.4039
  102OSM   C14F10387   2.426   3.399   9.103 -0.1284 -0.2080  0.7384
  102OSM   H14F10388   2.466   3.326   9.030 -0.1408  1.1781 -0.7244
  102OSM   H14G10389   2.472   3.487   9.053  0.3003 -2.0843 -2.4656
  102OSM   C15F10390   2.267   3.408   9.090  0.0490 -0.7080  0.3479
  102OSM   H15F10391   2.243   3.489   9.162 -0.8702 -0.4422 -0.2330
  102OSM   H15G10392   2.211   3.320   9.128  0.3674 -0.4001  1.5530
  102OSM   C16F10393   2.231   3.441   8.947  0.0797 -0.3467  0.1800
  102OSM   H16F10394   2.245   3.356   8.877  0.4433  0.9397 -1.3653
  102OSM   H16G10395   2.306   3.519   8.919 -0.4049  0.0773  0.0337
  102OSM   C17F10396   2.084   3.479   8.922  0.0504 -0.9425  0.1877
  102OSM   H17F10397   2.058   3.563   8.991 -0.4362  0.7551 -1.9559
  102OSM   H17G10398   2.013   3.398   8.947 -1.9240  1.1820  1.9108
  102OSM   C18F10399   2.055   3.533   8.780 -0.6510  0.1980  1.0195
  102OSM   H18F10400   2.131   3.605   8.744  0.0481  0.0078  2.0883
  102OSM   H18G10401   1.957   3.586   8.772  0.0200  1.2168 -1.5337
  102OSM   H18H10402   2.054   3.444   8.712 -0.9282 -0.1983  1.5331
  103OSM      N10403   6.103   4.954  11.143 -0.5129  0.3145  0.1159
  103OSM    C1510404   6.212   5.046  11.105 -0.2651  0.1615 -0.2582
  103OSM   H15A10405   6.220   5.069  11.000  2.1890  3.0288  0.4049
  103OSM   H15B10406   6.310   5.005  11.125 -1.4730 -2.3554  1.0504
  103OSM   H15C10407   6.207   5.144  11.150  2.4783  0.0472  0.4633
  103OSM    C1410408   6.112   4.931  11.291 -0.4141  0.8420  0.2971
  103OSM   H14A10409   6.094   5.022  11.346 -0.8973 -0.0832  1.7262
  103OSM   H14B10410   6.208   4.893  11.324  0.1396  1.5859 -0.4182
  103OSM   H14C10411   6.041   4.856  11.322 -0.8089  1.8676  2.0259
  103OSM    C1310412   5.965   5.027  11.124 -0.7671 -0.3531 -0.9790
  103OSM   H13A10413   5.937   5.107  11.190 -1.0163 -2.1089  1.1370
  103OSM   H13B10414   5.890   4.955  11.153  0.1734 -0.1399  2.3413
  103OSM   H13C10415   5.967   5.059  11.020  1.2702  0.4204 -0.7480
  103OSM    C1210416   6.118   4.824  11.061  0.9879  0.4700 -0.5408
  103OSM   H12A10417   6.218   4.787  11.082  0.0758 -0.2778  3.4969
  103OSM   H12B10418   6.112   4.844  10.955  2.0813  4.0274 -0.0469
  103OSM    C1110419   6.021   4.707  11.102 -0.4026  0.1067  0.0736
  103OSM   H11A10420   6.026   4.688  11.211 -0.9022  0.2411  0.1250
  103OSM   H11B10421   6.062   4.613  11.059  2.1175  0.7546  0.9065
  103OSM      P10422   5.817   4.694  10.935 -0.3709  0.0617 -0.1553
  103OSM    O1310423   5.803   4.548  10.923 -0.3065  0.5161 -0.0729
  103OSM    O1410424   5.690   4.768  10.932 -0.6039 -0.1217 -0.3494
  103OSM    O1110425   5.908   4.748  10.821 -0.3870  0.2294 -0.0046
  103OSM    O1210426   5.885   4.740  11.075 -0.5524  0.4732  0.1973
  103OSM    C1S10427   5.849   4.746  10.689  0.3252 -0.3429  0.3103
  103OSM    H1S10428   5.763   4.814  10.674 -0.9624 -1.6128  1.5598
  103OSM    H1T10429   5.804   4.647  10.667 -1.2124  0.2725  0.5709
  103OSM     NF10430   5.898   4.790  10.454  0.1355  0.3498 -0.3064
  103OSM    HNF10431   5.923   4.724  10.384 -2.5089  0.7319 -1.7451
  103OSM    C2S10432   5.957   4.764  10.587 -0.3589  0.0585 -0.2484
  103OSM    H2S10433   6.003   4.859  10.619 -0.2091  0.5635 -1.8573
  103OSM    C3S10434   6.059   4.638  10.596  0.3938 -0.0724  0.5920
  103OSM    H3S10435   6.006   4.547  10.562  0.1616 -0.8476  2.8443
  103OSM     O310436   6.106   4.605  10.728  0.4576  0.4661 -0.7056
  103OSM    HO310437   6.063   4.672  10.782  1.5779  0.2076  0.5457
  103OSM    C4S10438   6.173   4.659  10.499 -0.4222  0.0832  0.6985
  103OSM    H4S10439   6.165   4.594  10.410  1.5534  1.0402 -0.2302
  103OSM    C5S10440   6.286   4.732  10.503  0.4543  0.0005  0.4031
  103OSM    H5S10441   6.313   4.779  10.598 -1.8968  1.4686  0.4472
  103OSM    C6S10442   6.390   4.744  10.397 -0.2744 -0.0785 -0.0257
  103OSM    H6S10443   6.471   4.670  10.410  1.6333  2.0638  0.8608
  103OSM    H6T10444   6.446   4.835  10.426 -0.8756  0.0196  0.8499
  103OSM    C7S10445   6.341   4.750  10.250  0.3298 -1.1514  0.3712
  103OSM    H7S10446   6.283   4.845  10.250  0.0316 -1.3318  0.9704
  103OSM    H7T10447   6.281   4.662  10.221  2.5859 -2.9956  1.0467
  103OSM    C8S10448   6.450   4.779  10.148 -0.6384  0.2915  0.2019
  103OSM    H8S10449   6.530   4.702  10.153 -1.3924 -0.4354  1.5767
  103OSM    H8T10450   6.499   4.877  10.168  1.5719 -0.7931  0.4291
  103OSM    C9S10451   6.412   4.781  10.000  0.5304  0.3640 -0.2513
  103OSM    H9S10452   6.337   4.861   9.986  0.7613  0.5885 -0.2195
  103OSM    H9T10453   6.370   4.684   9.965  0.1774 -0.4424  2.1503
  103OSM   C10S10454   6.521   4.823   9.902 -0.7403 -0.7340 -0.0359
  103OSM   H10S10455   6.602   4.749   9.922 -2.5104 -3.1468 -1.2287
  103OSM   H10T10456   6.555   4.927   9.921  2.5250 -1.2763 -2.0405
  103OSM   C11S10457   6.476   4.818   9.754 -0.2825  0.1105 -0.9337
  103OSM   H11S10458   6.546   4.875   9.689  1.0408  1.1100  1.2431
  103OSM   H11T10459   6.377   4.865   9.741  0.6256  3.0731  1.5659
  103OSM   C12S10460   6.480   4.673   9.696 -0.3409  0.5445 -0.2181
  103OSM   H12S10461   6.453   4.596   9.772  1.2928  0.0839 -0.0793
  103OSM   H12T10462   6.577   4.650   9.648 -0.1756  2.1976 -0.7342
  103OSM   C13S10463   6.373   4.649   9.584  0.7077 -0.7689 -0.2670
  103OSM   H13S10464   6.273   4.669   9.629  1.8531  1.9654  1.2683
  103OSM   H13T10465   6.379   4.544   9.545  0.9375 -0.2780 -1.6301
  103OSM   C14S10466   6.379   4.737   9.460 -0.3961 -0.4753 -0.3454
  103OSM   H14S10467   6.478   4.724   9.412  0.0993 -0.8367  0.7302
  103OSM   H14T10468   6.376   4.843   9.491  1.5613 -0.0844 -1.2859
  103OSM   C15S10469   6.258   4.712   9.375  0.2003  0.0597  0.3954
  103OSM   H15S10470   6.173   4.759   9.428 -0.3650 -0.1718 -0.2844
  103OSM   H15T10471   6.231   4.605   9.367  1.4448 -0.2163 -0.3770
  103OSM   C16S10472   6.280   4.774   9.237 -0.3802  0.0655 -0.1596
  103OSM   H16S10473   6.384   4.757   9.202 -1.3792  0.7331 -3.8621
  103OSM   H16T10474   6.265   4.884   9.239  0.3861  0.2115 -1.2451
  103OSM   C17S10475   6.200   4.717   9.129 -0.2178  0.1429  0.6417
  103OSM   H17S10476   6.220   4.609   9.115  3.7322  0.5773  1.8138
  103OSM   H17T10477   6.239   4.764   9.036  3.2520 -3.8455 -0.2005
  103OSM   C18S10478   6.047   4.731   9.147 -0.4221  0.4309  0.1572
  103OSM   H18S10479   6.021   4.691   9.248  2.1509 -0.0324  0.7191
  103OSM   H18T10480   5.999   4.659   9.078  0.4894 -1.1498  1.0834
  103OSM   H18U10481   6.003   4.832   9.148  1.6064  1.3735 -0.0942
  103OSM    C1F10482   5.820   4.892  10.417 -0.1518 -0.1850  0.3924
  103OSM     OF10483   5.785   4.976  10.497 -0.2693 -0.2136 -0.6449
  103OSM    C2F10484   5.782   4.905  10.273 -1.0821  0.9233 -0.0906
  103OSM    H2F10485   5.832   4.824  10.215  0.5012  1.1391  0.9004
  103OSM    H2G10486   5.795   5.008  10.235  0.0188  0.4526 -1.0590
  103OSM    C3F10487   5.627   4.884  10.254 -0.0118 -0.0522  0.0349
  103OSM    H3F10488   5.566   4.956  10.313 -1.0461 -0.3972 -0.5800
  103OSM    H3G10489   5.610   4.781  10.293  0.2578  0.7588  2.4081
  103OSM    C4F10490   5.582   4.907  10.111 -0.4307 -0.1968 -0.0215
  103OSM    H4F10491   5.654   4.879  10.030 -1.6224 -0.4378 -1.0270
  103OSM    H4G10492   5.563   5.016  10.111 -2.1398 -0.4454  1.9759
  103OSM    C5F10493   5.456   4.828  10.080 -0.1953 -0.5046  0.3191
  103OSM    H5F10494   5.379   4.892  10.032  0.9827 -0.2268 -1.2578
  103OSM    H5G10495   5.415   4.782  10.173  0.8936 -1.4958  0.3203
  103OSM    C6F10496   5.472   4.716   9.979 -0.1082  0.1607  0.7416
  103OSM    H6F10497   5.556   4.649  10.008 -0.3463  0.3807  1.9933
  103OSM    H6G10498   5.488   4.755   9.876 -0.9115 -1.2053  0.0896
  103OSM    C7F10499   5.341   4.641   9.954  0.1273  0.1213 -0.2597
  103OSM    H7F10500   5.265   4.720   9.936  0.9510  1.4585  1.8320
  103OSM    H7G10501   5.310   4.589  10.047 -2.7074 -0.2751 -1.3462
  103OSM    C8F10502   5.343   4.541   9.838  0.1623  0.2061 -0.2399
  103OSM    H8F10503   5.373   4.592   9.744 -2.7190 -0.1256 -1.4285
  103OSM    H8G10504   5.240   4.503   9.823  0.6584 -0.7812 -1.4202
  103OSM    C9F10505   5.445   4.424   9.853 -0.1241  0.7544 -0.0940
  103OSM    H9F10506   5.506   4.421   9.944  1.9071  0.7325 -1.3887
  103OSM   C10F10507   5.488   4.350   9.745  0.2697 -0.4054 -0.4528
  103OSM   H10F10508   5.571   4.279   9.754  1.6632  0.9247 -2.0873
  103OSM   C11F10509   5.437   4.349   9.602 -0.0840 -0.0407  0.1602
  103OSM   H11F10510   5.503   4.423   9.551 -2.2865  1.4934 -0.5820
  103OSM   H11G10511   5.333   4.379   9.578  0.1991 -0.7498 -2.2307
  103OSM   C12F10512   5.472   4.211   9.531 -0.0885 -0.4012 -0.2865
  103OSM   H12F10513   5.429   4.129   9.594  0.7928 -2.7276 -2.5303
  103OSM   H12G10514   5.583   4.200   9.537 -0.2539 -1.7686  1.2904
  103OSM   C13F10515   5.434   4.210   9.383 -0.3345  0.0988  0.0681
  103OSM   H13F10516   5.325   4.206   9.364 -0.2064 -0.3452 -0.6178
  103OSM   H13G10517   5.469   4.312   9.356  2.8474 -0.3532  1.9866
  103OSM   C14F10518   5.508   4.098   9.303 -0.0752  0.5707 -0.3584
  103OSM   H14F10519   5.480   4.003   9.353 -1.3151  1.1617  0.1188
  103OSM   H14G10520   5.617   4.110   9.323 -0.5480  2.0177  1.7253
  103OSM   C15F10521   5.483   4.103   9.153 -0.3660 -0.3691  0.4660
  103OSM   H15F10522   5.527   4.197   9.112  0.5702 -0.8120  0.4500
  103OSM   H15G10523   5.373   4.093   9.143 -0.0414 -3.0315 -1.2302
  103OSM   C16F10524   5.554   3.993   9.076  0.7884 -0.0898  0.0725
  103OSM   H16F10525   5.511   3.895   9.105 -0.9328  0.5920 -0.0588
  103OSM   H16G10526   5.662   3.990   9.101  0.7267 -1.5286  0.2700
  103OSM   C17F10527   5.562   4.029   8.919  0.0649  0.1464 -0.6253
  103OSM   H17F10528   5.477   4.091   8.883 -0.7900  0.3264  1.5605
  103OSM   H17G10529   5.558   3.927   8.875 -0.2236 -0.8662  1.6416
  103OSM   C18F10530   5.693   4.105   8.876 -0.6909 -0.4407 -1.0256
  103OSM   H18F10531   5.788   4.056   8.907 -0.2286  1.7514  1.3398
  103OSM   H18G10532   5.691   4.210   8.911  1.0578  0.1458 -2.5434
  103OSM   H18H10533   5.703   4.113   8.766  1.6832  1.0120 -0.7728
  104OSM      N10534   3.309   5.636  10.839 -0.0303 -0.8162 -0.2418
  104OSM    C1510535   3.293   5.491  10.796 -0.0649 -0.2290  0.9239
  104OSM   H15A10536   3.359   5.427  10.852 -1.2428 -0.1494  2.4879
  104OSM   H15B10537   3.300   5.489  10.688  0.4419  0.2340  0.9422
  104OSM   H15C10538   3.192   5.456  10.813  0.1660 -0.7248  1.2898
  104OSM    C1410539   3.316   5.644  10.991  0.3408 -0.6504 -0.1897
  104OSM   H14A10540   3.399   5.580  11.018  1.3239 -0.0489 -1.6397
  104OSM   H14B10541   3.227   5.614  11.043 -0.4914 -0.6408 -1.5550
  104OSM   H14C10542   3.342   5.745  11.021  0.8216 -0.9623  0.4483
  104OSM    C1310543   3.438   5.691  10.776  0.4931  0.2511 -0.3659
  104OSM   H13A10544   3.428   5.688  10.669  0.1612  0.7857 -0.3589
  104OSM   H13B10545   3.531   5.645  10.805 -0.4062 -3.3276 -2.5345
  104OSM   H13C10546   3.437   5.796  10.804  0.6662  0.0310  0.4917
  104OSM    C1210547   3.195   5.728  10.788 -0.5002 -0.2614  0.2591
  104OSM   H12A10548   3.194   5.731  10.680  0.7799  2.8693  0.2345
  104OSM   H12B10549   3.214   5.831  10.812 -0.6160 -0.4398  1.1767
  104OSM    C1110550   3.053   5.684  10.825 -0.4292 -0.1718  0.5757
  104OSM   H11A10551   2.976   5.763  10.815 -3.0583 -2.5848  0.3781
  104OSM   H11B10552   3.048   5.653  10.931  1.0916  1.4870  1.1803
  104OSM      P10553   2.898   5.558  10.645  0.3459  0.4245  0.2159
  104OSM    O1310554   2.916   5.430  10.572  0.9365  0.1479  0.3685
  104OSM    O1410555   2.773   5.566  10.727  0.4946  0.1401 -0.1949
  104OSM    O1110556   2.909   5.678  10.540 -0.9532  0.2893  0.9721
  104OSM    O1210557   3.022   5.575  10.742 -0.0836 -0.3399  0.4010
  104OSM    C1S10558   3.016   5.701  10.454 -0.4420 -0.4674 -0.0850
  104OSM    H1S10559   3.103   5.639  10.483 -1.3244 -1.9636 -0.5268
  104OSM    H1T10560   3.053   5.805  10.465 -0.1544 -0.0865 -3.5731
  104OSM     NF10561   3.109   5.712  10.234 -0.8374 -0.0186  0.1027
  104OSM    HNF10562   3.107   5.791  10.174 -0.7926 -0.2373 -0.1885
  104OSM    C2S10563   2.990   5.671  10.305  0.6128 -0.5685  0.1131
  104OSM    H2S10564   2.981   5.561  10.293  0.4107 -0.7092  1.3826
  104OSM    C3S10565   2.856   5.732  10.258  0.1097 -0.4434 -0.0326
  104OSM    H3S10566   2.869   5.841  10.274 -0.0152 -0.7361  2.3014
  104OSM     O310567   2.739   5.701  10.327  0.0333 -0.2453  0.0197
  104OSM    HO310568   2.769   5.687  10.417 -1.9490 -2.9149  0.4111
  104OSM    C4S10569   2.849   5.695  10.109  0.8875 -0.5676 -0.0123
  104OSM    H4S10570   2.866   5.590  10.082  1.5133 -0.7768  1.1426
  104OSM    C5S10571   2.820   5.783  10.011  0.1047 -0.1775 -0.1721
  104OSM    H5S10572   2.808   5.888  10.041 -0.3640 -0.3065  0.1015
  104OSM    C6S10573   2.824   5.761   9.862 -0.2679 -0.7065  0.2475
  104OSM    H6S10574   2.915   5.801   9.812  0.2095 -2.5465 -0.4596
  104OSM    H6T10575   2.740   5.812   9.809  0.8421 -0.9226 -1.8416
  104OSM    C7S10576   2.812   5.617   9.820  0.4709  0.5409 -0.5818
  104OSM    H7S10577   2.728   5.572   9.876  1.1514 -1.5904 -1.1711
  104OSM    H7T10578   2.907   5.567   9.847  0.4109  2.0774  2.9367
  104OSM    C8S10579   2.797   5.601   9.670 -0.4518 -0.2481  0.0056
  104OSM    H8S10580   2.793   5.491   9.656 -0.2509 -0.3725  0.8766
  104OSM    H8T10581   2.891   5.636   9.622  0.8402 -1.5002  1.5144
  104OSM    C9S10582   2.666   5.652   9.611  0.5332  0.2551  0.2405
  104OSM    H9S10583   2.692   5.758   9.595 -0.3356  1.0059  3.2065
  104OSM    H9T10584   2.584   5.643   9.686 -0.2352 -2.2009 -0.7797
  104OSM   C10S10585   2.620   5.594   9.475  0.0317 -0.5412 -0.8692
  104OSM   H10S10586   2.525   5.648   9.457  0.0875 -0.1969 -0.1320
  104OSM   H10T10587   2.603   5.485   9.490  0.8273 -0.4616  0.8013
  104OSM   C11S10588   2.709   5.625   9.358  0.0054 -0.8886 -0.2101
  104OSM   H11S10589   2.817   5.602   9.377  0.9935  2.4267 -1.1722
  104OSM   H11T10590   2.708   5.731   9.325 -0.0710 -1.5433 -2.4491
  104OSM   C12S10591   2.666   5.535   9.248 -0.3521 -0.2367 -0.0345
  104OSM   H12S10592   2.563   5.561   9.217 -0.7802 -1.6533  0.1099
  104OSM   H12T10593   2.660   5.430   9.284  0.0583 -0.1997  0.1546
  104OSM   C13S10594   2.767   5.524   9.136  0.2820  0.3904 -0.2117
  104OSM   H13S10595   2.844   5.447   9.157  0.6279  0.4674 -1.1349
  104OSM   H13T10596   2.817   5.622   9.122  0.3628  0.1075 -2.2782
  104OSM   C14S10597   2.706   5.487   8.994  0.4779 -0.0674 -0.2608
  104OSM   H14S10598   2.628   5.562   8.969  0.3680  0.0697  0.4930
  104OSM   H14T10599   2.658   5.388   9.011  0.5170 -0.0166  0.1604
  104OSM   C15S10600   2.807   5.492   8.879 -0.0452  0.3430 -0.1569
  104OSM   H15S10601   2.746   5.460   8.793 -1.4827 -1.5922  1.4810
  104OSM   H15T10602   2.888   5.417   8.892 -0.0761  0.2196 -0.6607
  104OSM   C16S10603   2.870   5.632   8.864 -0.4545  0.0951 -0.2163
  104OSM   H16S10604   2.939   5.652   8.949  1.1487  1.2266 -1.7310
  104OSM   H16T10605   2.788   5.706   8.853 -2.4425 -1.8804  0.5424
  104OSM   C17S10606   2.949   5.659   8.737 -0.1616  0.7666  0.0447
  104OSM   H17S10607   2.988   5.761   8.756  0.8558  0.4582 -0.3206
  104OSM   H17T10608   2.883   5.655   8.648 -1.1969 -1.3546  0.8510
  104OSM   C18S10609   3.061   5.555   8.716 -0.3098  0.0872 -0.3219
  104OSM   H18S10610   3.115   5.565   8.619 -0.9732  1.5684 -0.5674
  104OSM   H18T10611   3.026   5.450   8.704 -0.7182  0.0571  1.0073
  104OSM   H18U10612   3.137   5.561   8.797 -0.1231 -0.9164 -0.4068
  104OSM    C1F10613   3.220   5.644  10.245 -0.4348  0.1866  0.3846
  104OSM     OF10614   3.242   5.557  10.332 -0.3075  0.3227 -0.0386
  104OSM    C2F10615   3.325   5.675  10.143  0.9573 -0.4734  0.0779
  104OSM    H2F10616   3.421   5.621  10.160  0.2157 -2.1172 -0.7026
  104OSM    H2G10617   3.341   5.785  10.140 -0.8246 -0.1896 -0.2548
  104OSM    C3F10618   3.275   5.627  10.002  0.5933  0.5979 -0.5623
  104OSM    H3F10619   3.172   5.667   9.987  0.8702  0.9685 -1.5332
  104OSM    H3G10620   3.262   5.517  10.005 -1.1387  0.7495 -1.2693
  104OSM    C4F10621   3.368   5.672   9.891  0.0118 -1.0958 -0.2551
  104OSM    H4F10622   3.469   5.630   9.913  0.3257  0.2545  0.9875
  104OSM    H4G10623   3.377   5.782   9.894  2.7937 -1.1634 -2.1999
  104OSM    C5F10624   3.329   5.628   9.753 -0.1068  0.1575  0.1933
  104OSM    H5F10625   3.345   5.518   9.742  1.4649  0.4026 -0.2247
  104OSM    H5G10626   3.404   5.686   9.695  0.1150  1.8394  2.0806
  104OSM    C6F10627   3.191   5.675   9.708 -0.0770  0.2139 -0.4279
  104OSM    H6F10628   3.166   5.775   9.749 -1.6949 -0.9079  1.5302
  104OSM    H6G10629   3.107   5.613   9.745 -0.3524  2.1221  2.5083
  104OSM    C7F10630   3.176   5.678   9.550 -0.1686  0.4392  0.2701
  104OSM    H7F10631   3.247   5.761   9.528 -1.0593  0.5761 -2.4073
  104OSM    H7G10632   3.073   5.709   9.523 -0.6287 -0.0652  1.3571
  104OSM    C8F10633   3.218   5.556   9.464  0.0356 -0.0442 -0.0521
  104OSM    H8F10634   3.241   5.467   9.526  0.5069 -0.1506 -0.3743
  104OSM    H8G10635   3.309   5.584   9.407 -0.0513 -3.6935 -2.3046
  104OSM    C9F10636   3.109   5.497   9.375  0.1096 -0.4274 -0.5688
  104OSM    H9F10637   3.023   5.447   9.422 -2.6677  3.1165 -1.4099
  104OSM   C10F10638   3.118   5.491   9.240 -0.1458  0.1272 -0.5589
  104OSM   H10F10639   3.041   5.427   9.195  0.7086 -0.6988 -0.8562
  104OSM   C11F10640   3.224   5.557   9.161 -0.5600 -0.1370 -0.0916
  104OSM   H11F10641   3.264   5.644   9.217 -0.5901  0.1837 -0.5666
  104OSM   H11G10642   3.180   5.610   9.074 -1.6243 -0.2957  0.3326
  104OSM   C12F10643   3.325   5.458   9.095  0.6366 -0.5484 -0.2321
  104OSM   H12F10644   3.263   5.406   9.018  1.7278 -2.7669  0.2996
  104OSM   H12G10645   3.372   5.376   9.154 -0.6176 -0.6764  0.6174
  104OSM   C13F10646   3.444   5.533   9.032  0.0781 -0.5446 -0.4005
  104OSM   H13F10647   3.492   5.599   9.107 -1.3797 -1.7166  1.6972
  104OSM   H13G10648   3.409   5.590   8.944  3.1788  1.5629 -0.4001
  104OSM   C14F10649   3.558   5.437   8.984  0.7253 -0.6089  0.7083
  104OSM   H14F10650   3.601   5.382   9.071 -0.0859 -0.9783  0.8859
  104OSM   H14G10651   3.642   5.497   8.943  0.0760 -0.0938  0.1128
  104OSM   C15F10652   3.524   5.336   8.867 -0.9253 -0.6359  0.2298
  104OSM   H15F10653   3.434   5.277   8.895 -0.3514 -1.3208  0.6543
  104OSM   H15G10654   3.602   5.258   8.861  0.0534  0.3643 -0.5221
  104OSM   C16F10655   3.518   5.407   8.734  0.4548  0.1799  0.3549
  104OSM   H16F10656   3.610   5.423   8.674 -1.0776  1.1098 -1.8966
  104OSM   H16G10657   3.470   5.507   8.746 -0.7469 -0.4719  1.1620
  104OSM   C17F10658   3.430   5.330   8.641 -0.1185 -0.3091 -0.0633
  104OSM   H17F10659   3.324   5.340   8.673 -0.5074 -0.8426 -1.1498
  104OSM   H17G10660   3.450   5.221   8.652  3.3215  0.1921 -0.1762
  104OSM   C18F10661   3.446   5.367   8.494  0.1761 -0.2914  0.3701
  104OSM   H18F10662   3.415   5.472   8.478 -1.5996 -0.8755 -0.1993
  104OSM   H18G10663   3.382   5.296   8.437  0.6893 -0.2421 -0.2731
  104OSM   H18H10664   3.549   5.354   8.455 -0.8166 -1.8596 -1.9493
  105OSM      N10665   2.460   4.383  10.851  1.0832  0.1012  0.5340
  105OSM    C1510666   2.527   4.250  10.862  0.2840 -0.5908  0.5255
  105OSM   H15A10667   2.563   4.242  10.964  2.5106  1.3998 -0.0146
  105OSM   H15B10668   2.614   4.243  10.799  1.1951 -0.5465  1.7337
  105OSM   H15C10669   2.460   4.168  10.840  1.2022 -1.0083 -0.7872
  105OSM    C1410670   2.425   4.408  10.709  0.3129 -0.5953 -0.4406
  105OSM   H14A10671   2.509   4.411  10.641  0.7825 -0.0972  0.1477
  105OSM   H14B10672   2.377   4.503  10.693  0.0794 -0.5251  0.6515
  105OSM   H14C10673   2.355   4.335  10.670 -1.9458  1.1281  0.2273
  105OSM    C1310674   2.328   4.389  10.915 -0.3411 -0.2139 -0.4305
  105OSM   H13A10675   2.335   4.369  11.021 -2.0111  3.5378  0.5375
  105OSM   H13B10676   2.269   4.305  10.880 -3.3798  1.4281  0.3725
  105OSM   H13C10677   2.273   4.481  10.911 -1.0688 -0.4348  2.1841
  105OSM    C1210678   2.559   4.490  10.898 -1.0598  0.1611  0.4199
  105OSM   H12A10679   2.577   4.500  11.004 -1.5540 -1.2644  0.6557
  105OSM   H12B10680   2.521   4.589  10.876 -0.6151  0.3524  0.4893
  105OSM    C1110681   2.704   4.492  10.838 -1.1513 -0.2062  0.3816
  105OSM   H11A10682   2.749   4.592  10.855 -1.6970  0.0330  0.4181
  105OSM   H11B10683   2.706   4.465  10.730 -0.7370  1.0018  0.0679
  105OSM      P10684   2.894   4.429  11.020  0.1115 -0.1710 -0.2575
  105OSM    O1310685   2.845   4.543  11.105  0.4400  0.3822 -0.3978
  105OSM    O1410686   2.930   4.305  11.089  0.7543 -0.2758 -0.5279
  105OSM    O1110687   3.026   4.472  10.941  0.5321  0.2292 -0.5057
  105OSM    O1210688   2.783   4.396  10.911  0.5260 -0.1465 -0.5272
  105OSM    C1S10689   3.068   4.412  10.823  0.2162  0.0159  0.2223
  105OSM    H1S10690   3.010   4.323  10.791  0.8951 -0.4881  0.3796
  105OSM    H1T10691   3.176   4.386  10.827  0.4336  0.3454 -2.1081
  105OSM     NF10692   3.125   4.480  10.591  0.3245  1.2549  0.0460
  105OSM    HNF10693   3.221   4.500  10.574  0.7181 -0.8943 -0.5183
  105OSM    C2S10694   3.079   4.528  10.721  0.1674  0.0218  1.0921
  105OSM    H2S10695   2.977   4.572  10.713 -0.9300 -2.5561 -0.0763
  105OSM    C3S10696   3.166   4.652  10.769 -0.4532 -0.8523  0.1043
  105OSM    H3S10697   3.264   4.613  10.803  0.4030 -0.1724 -1.4880
  105OSM     O310698   3.104   4.718  10.885  0.0613 -0.1222  0.1273
  105OSM    HO310699   3.045   4.654  10.925 -0.5238  0.1971 -0.2127
  105OSM    C4S10700   3.201   4.760  10.663  0.2608 -0.3753 -0.7012
  105OSM    H4S10701   3.108   4.791  10.614  0.1107  2.7365  1.2519
  105OSM    C5S10702   3.314   4.822  10.621  0.8867  0.4290  0.5317
  105OSM    H5S10703   3.410   4.785  10.660  0.4077 -1.7781 -0.2469
  105OSM    C6S10704   3.307   4.926  10.507  0.1512 -0.0470 -0.7795
  105OSM    H6S10705   3.408   4.972  10.514  0.6003 -0.7524 -2.1902
  105OSM    H6T10706   3.243   5.013  10.534  1.6752  0.4994  1.2768
  105OSM    C7S10707   3.279   4.856  10.380  0.3679  0.3229  0.3870
  105OSM    H7S10708   3.181   4.802  10.380  0.8379 -0.5451  0.4655
  105OSM    H7T10709   3.347   4.771  10.359 -0.1517 -0.9134  3.2413
  105OSM    C8S10710   3.277   4.955  10.269  0.3488 -0.2199 -0.1868
  105OSM    H8S10711   3.377   4.973  10.224 -0.7650  1.8257 -2.0680
  105OSM    H8T10712   3.221   5.050  10.288 -0.2468 -0.3511 -1.1721
  105OSM    C9S10713   3.180   4.899  10.155  0.2947 -0.5424  0.1004
  105OSM    H9S10714   3.164   4.973  10.074 -1.8184  1.4741  2.2034
  105OSM    H9T10715   3.082   4.884  10.205 -0.9419  1.1112 -1.7155
  105OSM   C10S10716   3.223   4.766  10.096 -0.1988  0.5459 -0.7682
  105OSM   H10S10717   3.201   4.686  10.169 -2.5251 -0.0039 -1.9572
  105OSM   H10T10718   3.333   4.767  10.082 -0.2272  1.1778 -0.9906
  105OSM   C11S10719   3.152   4.719   9.971  0.2538  0.2647  0.0048
  105OSM   H11S10720   3.044   4.717   9.997 -0.0106  0.0341 -1.0704
  105OSM   H11T10721   3.172   4.611   9.954  0.0291  0.3470 -0.8376
  105OSM   C12S10722   3.184   4.791   9.837 -0.4950 -0.6774 -0.2821
  105OSM   H12S10723   3.288   4.759   9.812 -0.1405  0.1742  0.0746
  105OSM   H12T10724   3.189   4.897   9.868  0.3719 -0.8288  0.1360
  105OSM   C13S10725   3.090   4.764   9.723  0.5901  0.2604  0.2323
  105OSM   H13S10726   2.995   4.809   9.760  1.3782  2.6288 -0.4477
  105OSM   H13T10727   3.069   4.655   9.722  0.0942  0.3555 -0.1532
  105OSM   C14S10728   3.143   4.802   9.585  0.2698 -0.2707 -0.1663
  105OSM   H14S10729   3.245   4.758   9.581  0.7627  0.7662  0.4343
  105OSM   H14T10730   3.162   4.911   9.572  1.0158 -0.5925 -2.0136
  105OSM   C15S10731   3.055   4.743   9.476  0.0008  0.7618  0.0303
  105OSM   H15S10732   2.950   4.773   9.495 -0.0714 -0.4348  1.7032
  105OSM   H15T10733   3.043   4.633   9.481 -1.3854  0.8854 -0.2157
  105OSM   C16S10734   3.098   4.777   9.334 -0.2542 -0.3999  0.0277
  105OSM   H16S10735   3.208   4.769   9.342 -0.2752 -0.7741 -0.0509
  105OSM   H16T10736   3.077   4.883   9.306  0.1580 -0.7034 -1.5824
  105OSM   C17S10737   3.032   4.687   9.240  0.0680 -0.3848  0.3637
  105OSM   H17S10738   2.925   4.719   9.237 -0.3585 -1.5781  1.8040
  105OSM   H17T10739   3.053   4.582   9.268  0.4667 -0.1960  0.7597
  105OSM   C18S10740   3.093   4.705   9.099  0.0930 -0.0191 -0.2993
  105OSM   H18S10741   3.026   4.661   9.022  2.1879  0.1670 -2.3721
  105OSM   H18T10742   3.189   4.654   9.077 -1.3513 -2.5011 -1.2892
  105OSM   H18U10743   3.101   4.815   9.081  0.5184  0.0590  0.3552
  105OSM    C1F10744   3.056   4.395  10.507  0.0172  0.3874 -0.0558
  105OSM     OF10745   2.943   4.356  10.530  0.6792  0.3464  0.1396
  105OSM    C2F10746   3.126   4.378  10.372  0.6808  0.2791 -0.9329
  105OSM    H2F10747   3.231   4.348  10.390  1.1267  1.0835 -2.0972
  105OSM    H2G10748   3.121   4.479  10.327 -1.7284  0.0689 -1.2852
  105OSM    C3F10749   3.063   4.274  10.281 -0.7288 -0.6010  0.4468
  105OSM    H3F10750   2.955   4.297  10.268 -0.2714  1.8918  0.5696
  105OSM    H3G10751   3.076   4.167  10.307 -1.2753 -0.8048 -0.0850
  105OSM    C4F10752   3.137   4.277  10.142  0.3639  0.2438  0.4526
  105OSM    H4F10753   3.243   4.247  10.156 -0.2369 -2.2017  0.1048
  105OSM    H4G10754   3.140   4.378  10.094  0.3995 -1.1445 -2.7136
  105OSM    C5F10755   3.062   4.186  10.035 -0.7403 -0.0633 -0.9701
  105OSM    H5F10756   2.955   4.215  10.029 -1.0371 -0.9013 -0.0096
  105OSM    H5G10757   3.075   4.082  10.071  1.2584  0.9630  1.5323
  105OSM    C6F10758   3.119   4.199   9.899  0.3100 -0.0270 -0.6286
  105OSM    H6F10759   3.229   4.186   9.908  0.0502 -1.3552  1.2233
  105OSM    H6G10760   3.102   4.300   9.857  0.3639  0.7322  1.1064
  105OSM    C7F10761   3.061   4.091   9.808 -0.1312 -0.3785 -0.3490
  105OSM    H7F10762   2.950   4.090   9.811 -0.1223 -0.9220  1.7593
  105OSM    H7G10763   3.086   3.990   9.846  1.2294 -0.8106 -2.2610
  105OSM    C8F10764   3.119   4.103   9.669 -0.4015 -0.1731 -0.6639
  105OSM    H8F10765   3.228   4.086   9.678 -0.1374  0.6274 -2.1327
  105OSM    H8G10766   3.102   4.207   9.634 -2.0536 -0.3699 -0.5416
  105OSM    C9F10767   3.060   4.012   9.560 -0.1720 -0.5559  0.5991
  105OSM    H9F10768   3.064   3.904   9.579  0.1475 -0.8594 -1.0224
  105OSM   C10F10769   2.994   4.054   9.445 -0.2155 -0.6482 -0.3578
  105OSM   H10F10770   2.959   3.976   9.375 -0.0035 -1.9611  0.9325
  105OSM   C11F10771   2.968   4.191   9.396 -0.1137  0.0605 -0.0896
  105OSM   H11F10772   2.978   4.271   9.472  2.0245 -0.6592  0.4337
  105OSM   H11G10773   2.862   4.194   9.361 -0.7321 -2.7811  1.2775
  105OSM   C12F10774   3.060   4.212   9.274 -0.2218 -0.3439  0.2957
  105OSM   H12F10775   3.163   4.194   9.310  0.1681  0.5781 -0.3270
  105OSM   H12G10776   3.060   4.317   9.237  3.7706 -0.2489  0.1685
  105OSM   C13F10777   3.017   4.132   9.151 -0.7830  0.3155 -0.5493
  105OSM   H13F10778   3.011   4.024   9.179 -1.1101  0.7157  1.0205
  105OSM   H13G10779   3.099   4.124   9.076  1.1827 -1.1673  1.6088
  105OSM   C14F10780   2.880   4.174   9.084 -0.9728 -0.2278  0.7433
  105OSM   H14F10781   2.894   4.280   9.054 -0.3275 -0.6574 -0.5001
  105OSM   H14G10782   2.789   4.159   9.147 -1.3062  0.1034  0.3503
  105OSM   C15F10783   2.858   4.086   8.960  0.2752  0.2556 -0.1718
  105OSM   H15F10784   2.824   3.982   8.979 -0.0876  0.4912  0.5262
  105OSM   H15G10785   2.960   4.079   8.917  0.3301  2.1594 -0.4348
  105OSM   C16F10786   2.767   4.145   8.862  0.5005 -0.4830  0.3101
  105OSM   H16F10787   2.795   4.252   8.850 -0.6045 -0.3022 -0.8048
  105OSM   H16G10788   2.661   4.152   8.891  0.6042 -1.8138  1.0963
  105OSM   C17F10789   2.767   4.081   8.724 -0.0524 -0.4276  0.0137
  105OSM   H17F10790   2.878   4.081   8.709  0.3060  0.9521  2.2442
  105OSM   H17G10791   2.709   4.143   8.653 -2.0672 -1.1291  0.9741
  105OSM   C18F10792   2.715   3.934   8.718 -0.0408  0.0579  0.1603
  105OSM   H18F10793   2.779   3.867   8.781 -0.8496 -0.5602  0.3444
  105OSM   H18G10794   2.719   3.895   8.614  1.8351  1.2101 -0.2434
  105OSM   H18H10795   2.613   3.930   8.763 -0.2481 -0.3630 -0.3407
  106OSM      N10796   1.923   3.399  10.909  0.3006  0.2876  0.5933
  106OSM    C1510797   1.971   3.388  10.769 -0.0270  0.0495 -0.6586
  106OSM   H15A10798   1.924   3.464  10.708  0.5701  2.1785  1.3960
  106OSM   H15B10799   1.956   3.288  10.731 -1.5195  0.0450 -0.1233
  106OSM   H15C10800   2.075   3.404  10.744 -0.0482 -0.5121 -1.1298
  106OSM    C1410801   1.794   3.339  10.914  0.1678 -0.2525  0.2541
  106OSM   H14A10802   1.750   3.359  11.011  1.1669 -0.3540  0.7402
  106OSM   H14B10803   1.800   3.233  10.897 -1.1179 -0.0486 -1.7551
  106OSM   H14C10804   1.727   3.386  10.843  1.2201 -0.2089 -0.7476
  106OSM    C1310805   2.015   3.320  10.998  0.3797 -0.6012  0.0001
  106OSM   H13A10806   2.008   3.219  10.962  2.6917 -0.0516 -2.3421
  106OSM   H13B10807   2.003   3.348  11.101  2.5106  1.1041 -0.1356
  106OSM   H13C10808   2.119   3.343  10.981  0.2268 -0.4275 -0.7501
  106OSM    C1210809   1.917   3.546  10.955 -0.2962  0.4730 -0.0409
  106OSM   H12A10810   1.918   3.553  11.063 -1.9584  1.4746 -0.0536
  106OSM   H12B10811   1.825   3.589  10.919 -0.7581 -0.7461 -0.3710
  106OSM    C1110812   2.043   3.630  10.921 -0.2281  0.1836 -0.5444
  106OSM   H11A10813   2.133   3.571  10.949 -0.4517  0.6061  1.2257
  106OSM   H11B10814   2.026   3.719  10.985 -0.7350  0.6227 -1.2739
  106OSM      P10815   2.181   3.749  10.741  0.0478  0.1285  0.6423
  106OSM    O1310816   2.138   3.846  10.641  0.4004  0.2572 -0.0767
  106OSM    O1410817   2.244   3.799  10.862 -0.0651  0.2704 -0.7522
  106OSM    O1110818   2.275   3.642  10.674 -0.2666 -0.3668  0.4025
  106OSM    O1210819   2.057   3.663  10.785  0.7370 -0.4083 -0.4378
  106OSM    C1S10820   2.219   3.546  10.577  0.2748 -0.5773 -0.4486
  106OSM    H1S10821   2.108   3.551  10.571  0.2839 -0.4637 -0.5318
  106OSM    H1T10822   2.260   3.447  10.606  0.8868 -0.7009 -1.6576
  106OSM     NF10823   2.180   3.525  10.331 -0.0744  0.2353  0.6345
  106OSM    HNF10824   2.218   3.446  10.282 -0.7756  0.1023  0.2811
  106OSM    C2S10825   2.256   3.595  10.434 -0.5953  0.2206  0.1478
  106OSM    H2S10826   2.227   3.702  10.428  0.7172  0.5051 -2.8504
  106OSM    C3S10827   2.416   3.590  10.411 -0.6669  0.5739 -0.2111
  106OSM    H3S10828   2.450   3.485  10.401 -1.4991  0.4558 -2.3277
  106OSM     O310829   2.491   3.636  10.521 -0.1237 -0.1299 -0.0319
  106OSM    HO310830   2.427   3.640  10.592  1.1966 -0.4753  1.2204
  106OSM    C4S10831   2.459   3.660  10.281 -0.1593  0.1542  0.4968
  106OSM    H4S10832   2.389   3.633  10.201  1.1400 -1.0542 -0.2973
  106OSM    C5S10833   2.557   3.755  10.256  0.0605  0.0654 -0.0191
  106OSM    H5S10834   2.605   3.801  10.344  0.5046 -0.7688  0.1780
  106OSM    C6S10835   2.564   3.827  10.122 -0.1691 -0.1549 -0.0440
  106OSM    H6S10836   2.462   3.845  10.081  1.0551  0.4392 -3.1081
  106OSM    H6T10837   2.613   3.755  10.052  0.5576  0.1274  0.1632
  106OSM    C7S10838   2.642   3.963  10.101  0.3456  0.6092 -0.3933
  106OSM    H7S10839   2.732   3.940  10.162 -0.4484 -0.1191  0.5549
  106OSM    H7T10840   2.592   4.048  10.152 -1.4571 -0.7856  0.3098
  106OSM    C8S10841   2.660   4.000   9.951 -0.2847 -0.6098 -0.0186
  106OSM    H8S10842   2.722   3.918   9.909  0.7098 -0.3466  0.8759
  106OSM    H8T10843   2.710   4.099   9.942 -0.5859 -0.5772 -1.6260
  106OSM    C9S10844   2.534   3.997   9.867 -0.4614 -0.0244 -0.2432
  106OSM    H9S10845   2.457   4.057   9.920  1.2186 -0.0176  2.4041
  106OSM    H9T10846   2.493   3.894   9.880  0.8651 -0.4367  1.0117
  106OSM   C10S10847   2.554   4.041   9.717 -0.3836 -0.4623 -0.1140
  106OSM   H10S10848   2.610   4.137   9.712  1.3677 -1.1916  2.6257
  106OSM   H10T10849   2.449   4.054   9.684 -0.4151  0.3125  0.2621
  106OSM   C11S10850   2.626   3.937   9.631  0.1196 -0.6183  0.5813
  106OSM   H11S10851   2.590   3.838   9.666  0.2413 -0.1038  2.2784
  106OSM   H11T10852   2.737   3.939   9.640  0.0765  0.9624  1.0662
  106OSM   C12S10853   2.606   3.953   9.476 -0.2471  0.2160  0.0167
  106OSM   H12S10854   2.638   4.057   9.452  0.0445  0.0238 -0.4312
  106OSM   H12T10855   2.499   3.937   9.452 -0.8263  2.3648  0.9278
  106OSM   C13S10856   2.685   3.853   9.397 -0.0788  0.0311 -0.2839
  106OSM   H13S10857   2.656   3.748   9.418  0.1283 -0.0210 -0.2566
  106OSM   H13T10858   2.793   3.869   9.419 -0.2100  2.1630 -0.9020
  106OSM   C14S10859   2.681   3.868   9.248  0.6123 -0.2113 -0.5867
  106OSM   H14S10860   2.768   3.823   9.196  0.5482  0.4226 -1.2528
  106OSM   H14T10861   2.687   3.976   9.222  0.8663  0.6175  2.5209
  106OSM   C15S10862   2.551   3.801   9.186 -0.4892  0.3229  0.7607
  106OSM   H15S10863   2.468   3.847   9.243  0.3589  1.4589  1.1025
  106OSM   H15T10864   2.554   3.691   9.205  2.2775  0.9316  5.4033
  106OSM   C16S10865   2.537   3.844   9.045 -0.2239 -0.1932  0.4049
  106OSM   H16S10866   2.638   3.818   9.005 -1.2060 -1.1481 -1.5654
  106OSM   H16T10867   2.509   3.951   9.032 -0.3281  0.0219  2.1663
  106OSM   C17S10868   2.436   3.778   8.953 -0.2367  0.1725  0.3715
  106OSM   H17S10869   2.458   3.669   8.957  0.3608  0.1953 -1.3552
  106OSM   H17T10870   2.461   3.799   8.847  0.4988 -0.9112  0.3164
  106OSM   C18S10871   2.294   3.805   8.985  0.4770  0.3279  0.0634
  106OSM   H18S10872   2.273   3.914   8.980 -0.8020  0.1053  0.2302
  106OSM   H18T10873   2.264   3.770   9.086 -1.2219 -0.5391 -0.7068
  106OSM   H18U10874   2.219   3.752   8.923 -0.1057  1.0121  0.1757
  106OSM    C1F10875   2.051   3.530  10.314  0.2431  0.9164 -0.6694
  106OSM     OF10876   1.984   3.616  10.368 -0.0777 -0.4408  0.0212
  106OSM    C2F10877   1.979   3.430  10.225  0.3867  0.3383 -0.5947
  106OSM    H2F10878   1.978   3.332  10.277  0.4853 -0.3067 -1.7889
  106OSM    H2G10879   2.032   3.417  10.128  0.6466 -1.5445 -0.2315
  106OSM    C3F10880   1.826   3.459  10.195 -0.3872 -0.0620 -0.1146
  106OSM    H3F10881   1.833   3.554  10.137 -0.1122  0.8640  1.3781
  106OSM    H3G10882   1.766   3.478  10.287 -0.1093  3.2614 -0.4679
  106OSM    C4F10883   1.761   3.371  10.092  0.7712  0.5882 -0.3663
  106OSM    H4F10884   1.658   3.409  10.075  1.2685  1.5641 -1.2654
  106OSM    H4G10885   1.752   3.270  10.139 -1.8548  0.2791 -1.3938
  106OSM    C5F10886   1.838   3.372   9.962  0.1261 -0.2197 -0.1412
  106OSM    H5F10887   1.946   3.350   9.976 -0.1576  0.2802  3.9011
  106OSM    H5G10888   1.844   3.479   9.932  0.7444 -0.1261  0.2882
  106OSM    C6F10889   1.775   3.281   9.850 -0.0275 -0.4682  0.7979
  106OSM    H6F10890   1.673   3.321   9.831  0.4175  0.4043  0.1418
  106OSM    H6G10891   1.763   3.175   9.881  3.9231 -0.8036  1.6816
  106OSM    C7F10892   1.860   3.286   9.714  0.3520 -0.3121 -0.5151
  106OSM    H7F10893   1.810   3.229   9.633 -0.1143 -0.3144 -0.2273
  106OSM    H7G10894   1.956   3.231   9.725  0.9566 -0.0870 -3.8507
  106OSM    C8F10895   1.889   3.427   9.662 -0.1342 -0.4049 -1.2673
  106OSM    H8F10896   1.977   3.473   9.711  0.3191 -0.3273 -2.1484
  106OSM    H8G10897   1.806   3.492   9.696 -0.6610 -1.1194 -1.1428
  106OSM    C9F10898   1.902   3.450   9.514 -0.1955  0.0877 -0.0191
  106OSM    H9F10899   1.992   3.409   9.466 -0.9212 -0.7698 -0.6971
  106OSM   C10F10900   1.828   3.514   9.426 -0.7715 -0.4517 -0.0504
  106OSM   H10F10901   1.873   3.532   9.328  0.7244  2.3949  1.0384
  106OSM   C11F10902   1.698   3.590   9.449  0.0944  0.7745 -0.0511
  106OSM   H11F10903   1.702   3.698   9.422  0.3930  0.4382 -1.3847
  106OSM   H11G10904   1.662   3.586   9.554  0.3564 -1.3017 -0.0154
  106OSM   C12F10905   1.588   3.538   9.356  0.3873 -0.2604 -0.5201
  106OSM   H12F10906   1.497   3.591   9.389 -0.6930 -2.4461  0.2406
  106OSM   H12G10907   1.560   3.435   9.388 -0.2339 -0.4953 -1.7298
  106OSM   C13F10908   1.607   3.575   9.210  0.1042 -0.1976  0.3188
  106OSM   H13F10909   1.702   3.528   9.176 -0.4920 -1.3419  0.1618
  106OSM   H13G10910   1.631   3.683   9.215  0.1958 -0.0130 -2.6553
  106OSM   C14F10911   1.497   3.521   9.114  0.5795  0.5951  0.0173
  106OSM   H14F10912   1.412   3.591   9.106 -2.4404 -2.6172  1.4145
  106OSM   H14G10913   1.459   3.427   9.160 -3.3540  2.6457  1.4113
  106OSM   C15F10914   1.548   3.499   8.971  0.0701 -0.4010  0.6797
  106OSM   H15F10915   1.626   3.420   8.980  0.7491  0.3173  1.2440
  106OSM   H15G10916   1.605   3.576   8.915  0.5015 -1.4808 -0.4082
  106OSM   C16F10917   1.441   3.442   8.866 -0.1026  0.1178  0.2163
  106OSM   H16F10918   1.374   3.376   8.924  1.5483 -0.0150  2.0797
  106OSM   H16G10919   1.481   3.382   8.782 -2.2222  0.8884 -1.4439
  106OSM   C17F10920   1.348   3.550   8.802  0.2628  0.3129  0.3437
  106OSM   H17F10921   1.289   3.592   8.886 -0.5586  0.0178 -0.0755
  106OSM   H17G10922   1.272   3.489   8.748  2.3346 -2.4504  0.3410
  106OSM   C18F10923   1.419   3.667   8.728  0.1598 -0.5240  0.0676
  106OSM   H18F10924   1.486   3.720   8.799 -0.9480  1.7842 -0.4984
  106OSM   H18G10925   1.358   3.746   8.679 -0.5891 -1.3405 -0.3443
  106OSM   H18H10926   1.491   3.634   8.651 -0.6431 -2.8676  0.2418
  107OSM      N10927   4.669   6.642  11.193 -0.0478  0.0108  0.2138
  107OSM    C1510928   4.794   6.630  11.273 -0.3085  1.1981 -0.5517
  107OSM   H15A10929   4.836   6.532  11.260 -1.3673  0.8187 -1.2878
  107OSM   H15B10930   4.773   6.638  11.379 -1.0289 -2.8950 -0.2381
  107OSM   H15C10931   4.869   6.705  11.254  2.1189 -0.8823  0.3288
  107OSM    C1410932   4.578   6.524  11.218 -0.5431  0.0702 -0.1593
  107OSM   H14A10933   4.472   6.547  11.214 -1.3761 -3.3071 -0.3863
  107OSM   H14B10934   4.587   6.477  11.315  0.4073  0.3731 -0.0870
  107OSM   H14C10935   4.594   6.448  11.143 -2.2192 -0.8429  0.3537
  107OSM    C1310936   4.602   6.763  11.247  0.8287  0.0961  0.8232
  107OSM   H13A10937   4.565   6.753  11.347 -0.8840 -1.0817  0.1110
  107OSM   H13B10938   4.516   6.785  11.186  0.5539 -0.8332  0.8572
  107OSM   H13C10939   4.673   6.845  11.246  0.6124  0.2846 -0.3614
  107OSM    C1210940   4.688   6.669  11.047  0.7643 -0.3397 -0.6992
  107OSM   H12A10941   4.736   6.763  11.025 -0.4357  0.7080  0.9431
  107OSM   H12B10942   4.587   6.673  11.009  0.7291 -1.2648 -0.7277
  107OSM    C1110943   4.769   6.562  10.967  0.3414 -0.6294 -0.1944
  107OSM   H11A10944   4.870   6.557  11.011 -0.1197  2.0319  1.3804
  107OSM   H11B10945   4.753   6.602  10.865 -0.5268 -1.1787 -0.2863
  107OSM      P10946   4.777   6.297  10.937  0.3804  0.0813 -0.2987
  107OSM    O1310947   4.916   6.284  10.990 -0.7036  0.1159 -0.2542
  107OSM    O1410948   4.686   6.187  10.978  0.0023 -0.0183 -0.2952
  107OSM    O1110949   4.780   6.288  10.777 -0.2453  0.2410 -0.8338
  107OSM    O1210950   4.713   6.435  10.963 -0.9350 -0.2815 -0.2635
  107OSM    C1S10951   4.904   6.322  10.711  0.0092 -0.0386  0.0755
  107OSM    H1S10952   4.989   6.273  10.763 -1.4878 -1.2188  1.5110
  107OSM    H1T10953   4.922   6.432  10.717 -0.2101 -0.0507  0.9875
  107OSM     NF10954   5.041   6.292  10.502  0.3428 -0.1008  0.3635
  107OSM    HNF10955   5.055   6.371  10.442 -1.2655  0.4446  0.6728
  107OSM    C2S10956   4.904   6.268  10.564 -0.8120 -0.8720  0.4301
  107OSM    H2S10957   4.890   6.158  10.562 -0.6443 -0.8889 -1.8738
  107OSM    C3S10958   4.793   6.340  10.483  0.0575  0.4803  1.1006
  107OSM    H3S10959   4.825   6.446  10.482  0.2671  0.4240  1.5787
  107OSM     O310960   4.657   6.334  10.527  0.2952  0.0797 -0.4161
  107OSM    HO310961   4.662   6.331  10.623  0.0031  1.0555 -0.3575
  107OSM    C4S10962   4.793   6.287  10.341  0.1441  0.2238 -0.0002
  107OSM    H4S10963   4.748   6.187  10.326  2.0254 -0.5533 -0.8060
  107OSM    C5S10964   4.832   6.350  10.227  0.6523 -0.1171  0.3734
  107OSM    H5S10965   4.855   6.458  10.231  2.9505 -0.5941  1.1794
  107OSM    C6S10966   4.833   6.290  10.088 -0.6698  0.0674 -0.2409
  107OSM    H6S10967   4.934   6.255  10.056 -0.8366 -3.0509  2.1453
  107OSM    H6T10968   4.807   6.380  10.028  1.6515 -0.2170 -1.8165
  107OSM    C7S10969   4.718   6.184  10.050 -0.2252 -0.1954 -0.1803
  107OSM    H7S10970   4.621   6.218  10.093 -0.0408 -1.7248  1.5620
  107OSM    H7T10971   4.751   6.092  10.102  1.3673  0.9027  0.8467
  107OSM    C8S10972   4.699   6.155   9.899  0.0734  0.4935  0.9016
  107OSM    H8S10973   4.629   6.071   9.882  0.2018  0.1213  2.1000
  107OSM    H8T10974   4.784   6.106   9.847 -1.2703 -1.7776  0.7005
  107OSM    C9S10975   4.624   6.268   9.834  0.2474  0.1313 -0.2702
  107OSM    H9S10976   4.682   6.361   9.819 -1.1258  1.7164  3.2054
  107OSM    H9T10977   4.533   6.301   9.889  0.6251  0.6517  0.0428
  107OSM   C10S10978   4.586   6.222   9.692 -0.4824  0.5034 -0.1981
  107OSM   H10S10979   4.509   6.142   9.693  0.0650 -0.0324  0.2725
  107OSM   H10T10980   4.675   6.177   9.642  1.5199  0.2143  3.2850
  107OSM   C11S10981   4.532   6.339   9.610 -0.5742  0.5721  0.2775
  107OSM   H11S10982   4.614   6.412   9.595 -0.2371 -0.0833 -1.2664
  107OSM   H11T10983   4.459   6.397   9.671 -1.2696  0.9949 -0.9151
  107OSM   C12S10984   4.476   6.299   9.473 -0.4249 -0.6772  0.2551
  107OSM   H12S10985   4.378   6.252   9.498 -1.4552  0.8263 -0.7765
  107OSM   H12T10986   4.534   6.216   9.429  0.7309  0.1038  0.2663
  107OSM   C13S10987   4.469   6.415   9.375  0.1589 -0.2474 -0.4750
  107OSM   H13S10988   4.561   6.475   9.385 -1.8593  2.9189  0.7200
  107OSM   H13T10989   4.395   6.495   9.399 -2.1552 -2.2343 -0.5936
  107OSM   C14S10990   4.431   6.369   9.238  0.4960 -0.3103 -0.4123
  107OSM   H14S10991   4.327   6.330   9.241  0.7681 -1.0004  0.4323
  107OSM   H14T10992   4.497   6.284   9.211  2.6924  1.2794 -0.3215
  107OSM   C15S10993   4.457   6.476   9.129  0.3172 -0.1178  0.7935
  107OSM   H15S10994   4.565   6.500   9.133  1.1417 -2.7874 -1.7256
  107OSM   H15T10995   4.394   6.566   9.145 -2.7243 -1.8149 -0.6969
  107OSM   C16S10996   4.427   6.429   8.983 -0.1903 -0.7634  0.5047
  107OSM   H16S10997   4.354   6.345   8.977 -1.8875  0.5805  1.4423
  107OSM   H16T10998   4.521   6.405   8.929 -0.6064  0.6633 -0.9521
  107OSM   C17S10999   4.348   6.536   8.906  0.6543 -0.6875  0.2557
  107OSM   H17S11000   4.405   6.630   8.920 -1.3245  0.4012  1.4821
  107OSM   H17T11001   4.251   6.562   8.953  0.8284  0.5006 -0.0008
  107OSM   C18S11002   4.322   6.506   8.760 -0.2368  1.0102  0.0546
  107OSM   H18S11003   4.244   6.427   8.754 -2.1071  2.7079  1.0974
  107OSM   H18T11004   4.415   6.472   8.708  0.5839  0.8886  1.5487
  107OSM   H18U11005   4.279   6.598   8.716  0.8868  1.6655  0.2963
  107OSM    C1F11006   5.152   6.225  10.538  0.0614  0.3196 -0.2116
  107OSM     OF11007   5.132   6.139  10.623 -0.5469  0.0784  0.3426
  107OSM    C2F11008   5.282   6.257  10.489  0.6834 -0.3604  0.3909
  107OSM    H2F11009   5.355   6.217  10.562  0.7634 -1.1631 -0.1068
  107OSM    H2G11010   5.288   6.368  10.491 -2.7913 -0.0864  1.0435
  107OSM    C3F11011   5.296   6.197  10.348  0.0168 -0.5088 -0.9251
  107OSM    H3F11012   5.200   6.215  10.296 -0.0039  2.1088 -0.1208
  107OSM    H3G11013   5.326   6.090  10.350  2.9986  0.0628 -4.2398
  107OSM    C4F11014   5.399   6.280  10.271  0.4710  0.9580  0.2410
  107OSM    H4F11015   5.501   6.272  10.315  0.8390  3.5316  0.0384
  107OSM    H4G11016   5.375   6.388  10.261  0.0434  0.6566 -3.5538
  107OSM    C5F11017   5.405   6.239  10.124  0.1084  0.3733  0.5066
  107OSM    H5F11018   5.307   6.247  10.072  1.3389  2.8078 -1.6841
  107OSM    H5G11019   5.426   6.130  10.128 -2.6188 -0.2156  0.9284
  107OSM    C6F11020   5.503   6.325  10.033  0.3183  0.3676 -0.2793
  107OSM    H6F11021   5.608   6.296  10.053  0.6620  0.6443 -1.5705
  107OSM    H6G11022   5.503   6.431  10.064 -0.6484  0.7240 -1.4111
  107OSM    C7F11023   5.474   6.309   9.885 -0.6833  0.7241  0.2951
  107OSM    H7F11024   5.377   6.352   9.853 -2.4555 -1.6498  2.0292
  107OSM    H7G11025   5.479   6.200   9.863  0.2769  0.8592 -0.2170
  107OSM    C8F11026   5.585   6.372   9.798 -0.0490 -0.3948  0.1789
  107OSM    H8F11027   5.568   6.337   9.693  0.3042 -2.9859  0.9045
  107OSM    H8G11028   5.685   6.340   9.834 -0.3578 -1.1994  0.3508
  107OSM    C9F11029   5.585   6.521   9.812  0.2350 -0.1078  0.3150
  107OSM    H9F11030   5.647   6.558   9.895  0.9724 -0.0475 -0.2602
  107OSM   C10F11031   5.534   6.613   9.724 -0.9056 -0.4810 -0.4132
  107OSM   H10F11032   5.538   6.720   9.751 -2.7464 -0.7111  0.9872
  107OSM   C11F11033   5.466   6.589   9.597 -0.7345  0.7998 -0.2434
  107OSM   H11F11034   5.387   6.658   9.561 -1.5753 -1.2703 -2.7466
  107OSM   H11G11035   5.420   6.488   9.592  2.6665 -0.9229  0.3054
  107OSM   C12F11036   5.574   6.601   9.492  0.1538  0.2307 -0.6293
  107OSM   H12F11037   5.667   6.542   9.506  0.2853 -0.5418 -3.8609
  107OSM   H12G11038   5.612   6.705   9.506  1.0399 -0.2977  1.1759
  107OSM   C13F11039   5.533   6.592   9.344  0.2063  0.5447 -0.0224
  107OSM   H13F11040   5.611   6.610   9.267  1.7348 -3.3959  0.3438
  107OSM   H13G11041   5.454   6.667   9.320 -0.9758 -0.7647 -0.3711
  107OSM   C14F11042   5.496   6.456   9.297 -0.1241  0.9783  0.1352
  107OSM   H14F11043   5.400   6.426   9.344 -0.2484  1.5270  0.2346
  107OSM   H14G11044   5.571   6.377   9.318 -1.7567 -0.6274  0.2540
  107OSM   C15F11045   5.478   6.439   9.141 -0.1999 -0.2078 -0.3232
  107OSM   H15F11046   5.491   6.331   9.116  0.7856 -0.4677  1.1354
  107OSM   H15G11047   5.563   6.495   9.096 -0.1883 -0.1429 -0.2196
  107OSM   C16F11048   5.346   6.493   9.098 -0.1148 -0.5402  0.7112
  107OSM   H16F11049   5.337   6.601   9.121 -2.0901 -0.3355 -0.7215
  107OSM   H16G11050   5.272   6.431   9.154  0.0621 -1.2517  0.1837
  107OSM   C17F11051   5.331   6.482   8.941 -0.4260 -0.5617 -0.6996
  107OSM   H17F11052   5.375   6.383   8.919 -1.2079 -1.3514  1.1649
  107OSM   H17G11053   5.381   6.568   8.890 -0.8346 -0.4965 -0.9939
  107OSM   C18F11054   5.186   6.485   8.888 -0.6603 -0.7532  0.4431
  107OSM   H18F11055   5.183   6.472   8.778  0.4399  0.7406  0.1972
  107OSM   H18G11056   5.142   6.586   8.901 -0.0209 -0.4599  0.3672
  107OSM   H18H11057   5.126   6.403   8.933 -1.3027 -0.8934 -0.6568
  108OSM      N11058   1.311   4.938  10.775 -0.5615 -0.1307  0.4801
  108OSM    C1511059   1.219   5.033  10.835  0.7094 -0.0622 -0.2436
  108OSM   H15A11060   1.146   5.070  10.765  0.2048 -0.5912 -0.0086
  108OSM   H15B11061   1.261   5.125  10.872 -2.8152  2.1288 -1.1570
  108OSM   H15C11062   1.163   4.985  10.914  0.0185  0.4046 -0.4359
  108OSM    C1411063   1.243   4.803  10.747 -0.2388 -0.3389 -0.0520
  108OSM   H14A11064   1.173   4.811  10.665 -1.0783  0.8552  0.7527
  108OSM   H14B11065   1.195   4.766  10.837  0.2658  2.5209  1.4907
  108OSM   H14C11066   1.321   4.742  10.703  0.3294  0.5372 -0.2713
  108OSM    C1311067   1.368   4.993  10.648 -0.6543  0.6087  0.3381
  108OSM   H13A11068   1.444   4.933  10.600 -0.1407  1.0680  0.5662
  108OSM   H13B11069   1.421   5.085  10.665 -1.1714  1.2760 -1.4005
  108OSM   H13C11070   1.286   5.003  10.578  0.1446 -0.3247 -0.7759
  108OSM    C1211071   1.418   4.905  10.874  0.2036 -0.0999  0.9696
  108OSM   H12A11072   1.469   4.821  10.831 -0.5352  0.1822 -0.5170
  108OSM   H12B11073   1.372   4.873  10.967 -1.8851 -0.0006  0.0433
  108OSM    C1111074   1.507   5.023  10.918  0.3739  0.2782 -1.0652
  108OSM   H11A11075   1.591   4.989  10.982 -1.8697 -1.7115  1.0206
  108OSM   H11B11076   1.452   5.095  10.982  1.2971  0.1760 -0.1303
  108OSM      P11077   1.575   5.250  10.784  0.1764  0.2583 -0.6689
  108OSM    O1311078   1.438   5.287  10.741 -0.0798 -0.8224 -0.1814
  108OSM    O1411079   1.629   5.319  10.902 -0.5064 -0.8317  0.8158
  108OSM    O1111080   1.664   5.266  10.650 -0.5692 -0.7022 -0.3570
  108OSM    O1211081   1.571   5.096  10.812  0.2628 -0.2896  0.4508
  108OSM    C1S11082   1.688   5.161  10.563  0.0193 -0.0131  1.5119
  108OSM    H1S11083   1.611   5.082  10.557 -1.5219  1.5011 -0.9869
  108OSM    H1T11084   1.790   5.119  10.575 -0.2612 -1.7145 -1.2951
  108OSM     NF11085   1.681   5.109  10.318  0.3748 -0.0915  0.3374
  108OSM    HNF11086   1.764   5.057  10.299  1.1020  1.2844 -0.4054
  108OSM    C2S11087   1.702   5.218  10.414  0.1563  0.2824 -0.2484
  108OSM    H2S11088   1.624   5.297  10.404 -1.2897 -1.1490 -0.7023
  108OSM    C3S11089   1.835   5.287  10.396 -0.5880  0.2873 -0.0104
  108OSM    H3S11090   1.916   5.216  10.423  1.5366  2.1534 -1.1947
  108OSM     O311091   1.851   5.400  10.491  0.0729 -0.3946  0.1601
  108OSM    HO311092   1.774   5.388  10.546  0.8138 -1.2745  1.0477
  108OSM    C4S11093   1.857   5.336  10.255  0.9418  0.0551 -0.2410
  108OSM    H4S11094   1.779   5.299  10.187 -0.3895  2.0023  0.1600
  108OSM    C5S11095   1.967   5.395  10.207 -0.5645  0.5495  0.2088
  108OSM    H5S11096   2.059   5.398  10.266 -0.0714  2.1316 -0.5897
  108OSM    C6S11097   1.990   5.428  10.059  0.0159 -0.0037  0.8905
  108OSM    H6S11098   2.096   5.406  10.034 -1.0853 -3.4130 -1.4626
  108OSM    H6T11099   1.969   5.534  10.031 -0.9835 -0.7364 -1.3181
  108OSM    C7S11100   1.909   5.347   9.958 -0.0473 -0.0026 -0.9370
  108OSM    H7S11101   1.803   5.353   9.990  0.6964  1.0970  1.5476
  108OSM    H7T11102   1.940   5.241   9.956  0.6661  0.1224  1.0215
  108OSM    C8S11103   1.926   5.406   9.812  0.2126  0.0149 -0.2167
  108OSM    H8S11104   2.031   5.421   9.777  0.2597  0.1032 -0.0379
  108OSM    H8T11105   1.889   5.510   9.825 -0.5678 -0.6006  3.3674
  108OSM    C9S11106   1.847   5.333   9.706 -0.6293 -0.0373 -0.2362
  108OSM    H9S11107   1.742   5.307   9.734  0.3430 -1.6137  2.4006
  108OSM    H9T11108   1.890   5.232   9.688  0.7657  0.0794  2.0528
  108OSM   C10S11109   1.847   5.417   9.579 -0.0274 -0.2775  0.1568
  108OSM   H10S11110   1.953   5.435   9.551 -0.1108 -0.2117 -0.1190
  108OSM   H10T11111   1.795   5.514   9.591  1.8964  0.9831 -1.0303
  108OSM   C11S11112   1.782   5.329   9.476 -0.4820 -0.4735  0.3621
  108OSM   H11S11113   1.672   5.316   9.484 -0.9369  1.3729 -1.8331
  108OSM   H11T11114   1.831   5.230   9.484  0.2514 -0.1718 -0.1661
  108OSM   C12S11115   1.819   5.372   9.332 -0.0851 -0.0697  0.5224
  108OSM   H12S11116   1.929   5.390   9.330 -0.0517 -0.0685  1.5238
  108OSM   H12T11117   1.777   5.472   9.312  1.4678  0.6208  0.5782
  108OSM   C13S11118   1.794   5.268   9.224  1.0671 -0.0152 -0.2377
  108OSM   H13S11119   1.689   5.233   9.237  1.0256 -0.9296 -2.5164
  108OSM   H13T11120   1.856   5.178   9.248 -0.5966 -1.6850 -1.8319
  108OSM   C14S11121   1.827   5.318   9.087  0.5479  0.1187 -0.3683
  108OSM   H14S11122   1.918   5.382   9.092 -0.2300  1.2847 -0.7772
  108OSM   H14T11123   1.741   5.383   9.061 -0.3309 -1.6508 -2.1113
  108OSM   C15S11124   1.833   5.217   8.969  0.3977  0.2877 -0.2547
  108OSM   H15S11125   1.905   5.134   8.984  1.0849  1.0318  0.6399
  108OSM   H15T11126   1.870   5.279   8.884 -0.1844 -0.8646 -1.3824
  108OSM   C16S11127   1.697   5.159   8.931  0.4558  0.3859 -0.4273
  108OSM   H16S11128   1.626   5.236   8.896 -0.9110 -0.7636 -0.2533
  108OSM   H16T11129   1.659   5.107   9.021 -1.4870  1.4070 -0.6146
  108OSM   C17S11130   1.711   5.062   8.810 -0.5111 -0.4125 -0.2544
  108OSM   H17S11131   1.754   4.968   8.851 -0.8117 -0.2242  0.5021
  108OSM   H17T11132   1.774   5.115   8.736 -1.7458  0.5525 -0.6432
  108OSM   C18S11133   1.575   5.018   8.745 -0.3528 -0.3047  0.4052
  108OSM   H18S11134   1.581   5.006   8.635 -0.5232  0.6140  0.2914
  108OSM   H18T11135   1.496   5.096   8.744  0.2197  0.2827  0.5931
  108OSM   H18U11136   1.540   4.920   8.785  0.0970 -0.8090 -0.4125
  108OSM    C1F11137   1.557   5.059  10.284 -0.5049 -0.6390  0.0426
  108OSM     OF11138   1.460   5.109  10.337 -0.2693 -0.1219  0.3170
  108OSM    C2F11139   1.556   4.947  10.181  0.5786  0.3397  1.0416
  108OSM    H2F11140   1.531   4.848  10.224 -1.6460 -1.1308 -3.0346
  108OSM    H2G11141   1.656   4.942  10.132 -0.4157  1.2269 -1.2275
  108OSM    C3F11142   1.437   4.951  10.074  0.4011 -0.0214  0.3738
  108OSM    H3F11143   1.341   4.949  10.130 -0.1151 -0.5623 -0.5182
  108OSM    H3G11144   1.451   4.859  10.014  0.8144 -1.4466  2.5243
  108OSM    C4F11145   1.443   5.077   9.981  0.5654 -0.5446 -0.7566
  108OSM    H4F11146   1.482   5.165  10.036  1.1503  0.3971 -2.6173
  108OSM    H4G11147   1.345   5.107   9.939 -0.5022 -2.4607  0.2430
  108OSM    C5F11148   1.526   5.049   9.851  0.0908 -0.1888  0.1359
  108OSM    H5F11149   1.468   4.964   9.809 -1.0309 -0.9316  2.9147
  108OSM    H5G11150   1.633   5.023   9.867  1.1686  2.3562 -2.1699
  108OSM    C6F11151   1.519   5.171   9.766  0.6710 -0.3147 -0.2957
  108OSM    H6F11152   1.598   5.168   9.688 -0.0311 -2.0270 -0.9728
  108OSM    H6G11153   1.537   5.272   9.809  0.1983 -0.2230 -0.3096
  108OSM    C7F11154   1.386   5.186   9.689 -0.2859  0.1492 -0.6504
  108OSM    H7F11155   1.300   5.196   9.758  0.3908  3.3385 -0.0869
  108OSM    H7G11156   1.383   5.081   9.654 -0.0924  0.3198 -1.1799
  108OSM    C8F11157   1.378   5.290   9.582 -0.7535  0.1132 -0.5706
  108OSM    H8F11158   1.473   5.294   9.525  0.7452 -0.3501  1.7840
  108OSM    H8G11159   1.383   5.386   9.639 -2.2629 -0.3070  0.3273
  108OSM    C9F11160   1.244   5.280   9.511 -0.6306 -0.0477  0.4061
  108OSM    H9F11161   1.161   5.263   9.582 -1.0430  0.4759  0.0510
  108OSM   C10F11162   1.226   5.294   9.380  0.3757  0.0142  0.2039
  108OSM   H10F11163   1.123   5.280   9.343  0.3980  1.1459 -0.3184
  108OSM   C11F11164   1.336   5.334   9.279  0.4035 -0.4473  0.0570
  108OSM   H11F11165   1.325   5.274   9.187  0.6259 -0.4226  0.0130
  108OSM   H11G11166   1.433   5.296   9.317  0.8859 -1.0880 -1.7147
  108OSM   C12F11167   1.350   5.486   9.254  0.0210  0.0335  0.1635
  108OSM   H12F11168   1.350   5.527   9.358 -0.5134 -0.0158  0.1834
  108OSM   H12G11169   1.258   5.527   9.207 -0.5002 -0.4548  0.7462
  108OSM   C13F11170   1.469   5.528   9.170 -0.2553  0.1696  0.3343
  108OSM   H13F11171   1.542   5.444   9.168 -0.4753 -0.0046 -1.7029
  108OSM   H13G11172   1.527   5.612   9.215  0.5154 -0.0652 -0.1882
  108OSM   C14F11173   1.435   5.576   9.028 -0.7982  0.7154 -0.5972
  108OSM   H14F11174   1.354   5.652   9.031 -1.8329 -0.3045 -1.6632
  108OSM   H14G11175   1.409   5.480   8.978  1.1053  0.5956 -1.4739
  108OSM   C15F11176   1.556   5.645   8.953  0.3896 -0.0984  0.3144
  108OSM   H15F11177   1.513   5.670   8.853 -3.3337  0.3544  1.8508
  108OSM   H15G11178   1.640   5.574   8.939  1.4888  0.9725  1.3030
  108OSM   C16F11179   1.599   5.783   8.993  0.8799  0.8090  0.0896
  108OSM   H16F11180   1.675   5.777   9.074 -0.9768  0.4659  1.9133
  108OSM   H16G11181   1.510   5.830   9.040 -0.1327 -0.4711 -0.4665
  108OSM   C17F11182   1.645   5.874   8.875 -0.1943 -0.6099 -0.0180
  108OSM   H17F11183   1.686   5.805   8.797  0.4077  0.6028 -0.8094
  108OSM   H17G11184   1.729   5.934   8.914  0.0826 -0.5078 -0.7477
  108OSM   C18F11185   1.533   5.958   8.809 -0.0083  0.1219 -0.2029
  108OSM   H18F11186   1.569   6.018   8.722 -2.1607 -0.2146 -1.3976
  108OSM   H18G11187   1.493   6.024   8.888 -0.5800 -2.0607  1.4340
  108OSM   H18H11188   1.449   5.890   8.783 -0.6593  0.7467  0.2533
  109OSM      N11189   2.022   5.563  10.848 -0.3727  0.1972  0.4149
  109OSM    C1511190   2.131   5.547  10.950 -0.0314 -0.0816  0.6488
  109OSM   H15A11191   2.228   5.529  10.906 -0.7159 -0.9182 -0.5609
  109OSM   H15B11192   2.115   5.469  11.023 -0.1054 -0.7736 -0.0941
  109OSM   H15C11193   2.149   5.637  11.007  0.8722 -0.1931  0.5683
  109OSM    C1411194   1.995   5.439  10.773 -0.3339  0.1546 -0.1468
  109OSM   H14A11195   1.896   5.444  10.730 -0.2576  0.7815 -0.2701
  109OSM   H14B11196   1.988   5.363  10.849  0.7279  1.0134  0.8362
  109OSM   H14C11197   2.071   5.413  10.701  0.2236  0.4879  0.3134
  109OSM    C1311198   1.901   5.596  10.933 -0.3199  0.1428  0.7282
  109OSM   H13A11199   1.869   5.508  10.987  1.9563 -1.3242 -0.1209
  109OSM   H13B11200   1.823   5.623  10.864  0.6794 -0.1770 -0.5924
  109OSM   H13C11201   1.916   5.682  10.996  5.7472  0.0851  0.0113
  109OSM    C1211202   2.057   5.675  10.752 -0.2806  0.0853 -0.4835
  109OSM   H12A11203   1.972   5.676  10.685 -0.6338 -2.7006 -0.1748
  109OSM   H12B11204   2.156   5.653  10.712  2.0021  1.4934  3.7608
  109OSM    C1111205   2.078   5.822  10.806 -1.1424  0.5574  0.1155
  109OSM   H11A11206   1.984   5.850  10.857 -3.1179 -3.4601 -0.8773
  109OSM   H11B11207   2.085   5.881  10.711  0.6438  0.7698  0.3401
  109OSM      P11208   2.335   5.827  10.865 -0.2153  0.4100  0.1782
  109OSM    O1311209   2.401   5.936  10.939 -0.2858 -0.4254  0.2258
  109OSM    O1411210   2.386   5.690  10.881  0.5210  0.4920 -0.9212
  109OSM    O1111211   2.342   5.863  10.708 -0.1453 -0.0607  0.5648
  109OSM    O1211212   2.180   5.838  10.897 -0.4591  0.6002 -0.3547
  109OSM    C1S11213   2.414   5.775  10.622  0.6238 -0.3152  0.8306
  109OSM    H1S11214   2.348   5.687  10.602  1.9780 -1.3012  0.5412
  109OSM    H1T11215   2.509   5.729  10.658  0.4858 -0.2495  1.2827
  109OSM     NF11216   2.460   5.726  10.383 -0.3060  0.5377  0.3827
  109OSM    HNF11217   2.556   5.731  10.354  0.0335  3.0982  1.6416
  109OSM    C2S11218   2.435   5.838  10.482 -0.4297  0.6958 -0.2994
  109OSM    H2S11219   2.345   5.897  10.455 -1.4149 -0.8466 -0.4839
  109OSM    C3S11220   2.558   5.930  10.499  0.0186  0.0523 -0.2087
  109OSM    H3S11221   2.653   5.876  10.521  0.6619  1.2445  0.0795
  109OSM     O311222   2.554   6.017  10.613  0.2672 -1.0321 -0.2907
  109OSM    HO311223   2.481   5.986  10.669  1.8211 -0.3068  2.3151
  109OSM    C4S11224   2.588   5.997  10.370 -0.3849 -0.2862  0.6327
  109OSM    H4S11225   2.629   5.933  10.290 -2.2756 -1.9258  0.9011
  109OSM    C5S11226   2.545   6.119  10.333  0.1222 -0.4791  0.3606
  109OSM    H5S11227   2.494   6.185  10.404 -1.2658  0.6333 -1.6037
  109OSM    C6S11228   2.558   6.196  10.205  0.2892 -0.4012 -0.4448
  109OSM    H6S11229   2.628   6.281  10.216 -0.5986  0.2060  0.8498
  109OSM    H6T11230   2.455   6.231  10.184  0.0005 -0.4561  0.7864
  109OSM    C7S11231   2.609   6.122  10.079 -0.4804  0.7350 -0.1594
  109OSM    H7S11232   2.539   6.044  10.042  2.4799 -0.2524 -4.4218
  109OSM    H7T11233   2.707   6.074  10.101 -0.5849  2.1207  4.2748
  109OSM    C8S11234   2.633   6.218   9.960  0.7896 -0.1377  0.5148
  109OSM    H8S11235   2.706   6.290  10.001  1.6909 -0.7435 -0.0040
  109OSM    H8T11236   2.537   6.268   9.934  0.8330 -0.2894  0.0700
  109OSM    C9S11237   2.686   6.137   9.844 -0.1628  0.1145 -0.3959
  109OSM    H9S11238   2.640   6.036   9.837  0.0807 -0.0947  0.8607
  109OSM    H9T11239   2.793   6.110   9.856  0.3506  0.3359 -3.6845
  109OSM   C10S11240   2.664   6.207   9.706 -0.3583  0.3829 -0.7142
  109OSM   H10S11241   2.727   6.299   9.707  1.4931 -0.8211  0.3228
  109OSM   H10T11242   2.558   6.237   9.690 -0.4076  0.7923  0.2875
  109OSM   C11S11243   2.718   6.121   9.597 -0.0332  0.0533  0.7784
  109OSM   H11S11244   2.659   6.028   9.615 -1.7063  1.3875  2.7075
  109OSM   H11T11245   2.823   6.092   9.617 -0.3834 -0.1594  2.4296
  109OSM   C12S11246   2.702   6.183   9.457  0.3697  0.2683  0.0959
  109OSM   H12S11247   2.793   6.246   9.442 -1.0306  1.8647 -2.5335
  109OSM   H12T11248   2.622   6.260   9.462 -0.1018 -0.1616 -0.7411
  109OSM   C13S11249   2.676   6.086   9.348  0.0221  0.7113 -0.5702
  109OSM   H13S11250   2.587   6.025   9.374 -0.3358  1.1467 -0.7417
  109OSM   H13T11251   2.762   6.017   9.338 -0.8483 -1.2737  3.5032
  109OSM   C14S11252   2.648   6.158   9.213  0.4471 -0.0670  0.5389
  109OSM   H14S11253   2.731   6.230   9.196  1.9289 -2.1526 -1.7416
  109OSM   H14T11254   2.548   6.205   9.226 -0.3316 -1.4454 -0.2055
  109OSM   C15S11255   2.627   6.055   9.096  0.1498  0.2660  0.4759
  109OSM   H15S11256   2.561   5.971   9.127 -0.0722  0.0697 -0.4995
  109OSM   H15T11257   2.719   6.003   9.064  0.0915  0.6572 -0.3406
  109OSM   C16S11258   2.559   6.125   8.976 -0.4991 -0.8602  0.3696
  109OSM   H16S11259   2.621   6.217   8.967  0.7830 -1.3647  3.1868
  109OSM   H16T11260   2.455   6.162   8.989  0.0933  0.9098  0.3318
  109OSM   C17S11261   2.563   6.054   8.837  0.0953 -0.4465 -0.6305
  109OSM   H17S11262   2.666   6.057   8.795  1.4495  1.2241  2.4394
  109OSM   H17T11263   2.510   6.116   8.761 -0.7315 -0.4571 -0.0796
  109OSM   C18S11264   2.487   5.919   8.823  0.1173 -0.1634  0.4569
  109OSM   H18S11265   2.405   5.911   8.899  1.4441  0.2977  1.9894
  109OSM   H18T11266   2.548   5.834   8.859 -0.6521 -0.6793  0.5841
  109OSM   H18U11267   2.462   5.900   8.717  2.1254 -2.6015  0.3270
  109OSM    C1F11268   2.362   5.642  10.340 -0.1762  0.0366  0.5128
  109OSM     OF11269   2.248   5.670  10.372 -0.0364  0.0939 -0.0194
  109OSM    C2F11270   2.403   5.519  10.270  0.1720 -0.2752 -0.4364
  109OSM    H2F11271   2.371   5.443  10.344  4.1723  1.5505  3.6145
  109OSM    H2G11272   2.514   5.512  10.261  0.1272 -1.3284 -0.2816
  109OSM    C3F11273   2.338   5.513  10.132  0.6890 -0.0060 -0.0618
  109OSM    H3F11274   2.232   5.544  10.141  0.9171  0.7898 -0.0750
  109OSM    H3G11275   2.338   5.408  10.095  1.1479 -0.7841  2.0279
  109OSM    C4F11276   2.416   5.604  10.037 -0.5967  0.2677  0.3616
  109OSM    H4F11277   2.526   5.584  10.031 -1.1675 -3.5206 -0.1648
  109OSM    H4G11278   2.400   5.708  10.073  0.9442  1.0192 -0.9820
  109OSM    C5F11279   2.347   5.607   9.896  0.1022  0.1064  0.5130
  109OSM    H5F11280   2.389   5.694   9.841  2.2597 -0.1700  1.5999
  109OSM    H5G11281   2.239   5.629   9.907  0.2238 -0.1641  2.7784
  109OSM    C6F11282   2.369   5.474   9.817 -0.2821 -0.2477 -0.3014
  109OSM    H6F11283   2.318   5.388   9.864 -0.8310 -1.1868 -2.5064
  109OSM    H6G11284   2.475   5.450   9.794 -0.2385 -1.4731  1.0256
  109OSM    C7F11285   2.307   5.500   9.682 -0.2247  0.1389 -0.5232
  109OSM    H7F11286   2.372   5.574   9.631 -0.0551  2.4522  2.7647
  109OSM    H7G11287   2.207   5.548   9.694  0.8620  2.1571  1.1260
  109OSM    C8F11288   2.310   5.388   9.576  0.4277  0.7972  0.0658
  109OSM    H8F11289   2.288   5.287   9.617  2.6595  0.1519 -0.2127
  109OSM    H8G11290   2.419   5.381   9.556  1.2864  2.1231  3.6297
  109OSM    C9F11291   2.241   5.423   9.455  0.6391 -0.1358  0.0187
  109OSM    H9F11292   2.186   5.517   9.471  0.5209 -0.5886  2.7765
  109OSM   C10F11293   2.244   5.365   9.336 -0.6754  0.5191  0.0360
  109OSM   H10F11294   2.195   5.411   9.250 -0.7526  0.4080  0.0195
  109OSM   C11F11295   2.326   5.245   9.299 -0.6062 -0.2985  0.7492
  109OSM   H11F11296   2.422   5.234   9.354  0.0703  1.4696 -0.0211
  109OSM   H11G11297   2.365   5.263   9.196  0.4544  0.3627  1.2447
  109OSM   C12F11298   2.249   5.110   9.304  0.6505 -0.6051 -0.4275
  109OSM   H12F11299   2.154   5.113   9.362 -0.7917 -2.1549 -2.5620
  109OSM   H12G11300   2.310   5.043   9.369 -1.2885 -1.4131  0.6907
  109OSM   C13F11301   2.211   5.038   9.170  0.1828  0.0150 -0.1324
  109OSM   H13F11302   2.303   5.070   9.118  0.1991 -0.9573 -0.7450
  109OSM   H13G11303   2.119   5.080   9.123 -0.4512  0.2044  1.2237
  109OSM   C14F11304   2.206   4.882   9.186 -0.2320 -0.4224 -0.5818
  109OSM   H14F11305   2.116   4.859   9.247  0.0336  0.3458  0.1123
  109OSM   H14G11306   2.298   4.850   9.239 -0.9135 -1.9373 -0.2660
  109OSM   C15F11307   2.201   4.816   9.047  0.1379  0.4323  0.1648
  109OSM   H15F11308   2.106   4.840   8.996  0.1085 -0.5038 -0.2336
  109OSM   H15G11309   2.201   4.707   9.066 -0.9629  0.1615 -1.2791
  109OSM   C16F11310   2.313   4.847   8.956 -0.1384  0.5223 -0.3618
  109OSM   H16F11311   2.408   4.858   9.013 -0.5086  1.6784  0.0669
  109OSM   H16G11312   2.296   4.940   8.898 -0.6755 -0.9743 -2.7745
  109OSM   C17F11313   2.342   4.732   8.859 -0.7066  0.7883 -0.8888
  109OSM   H17F11314   2.326   4.634   8.910  0.2878 -0.3460 -2.6172
  109OSM   H17G11315   2.450   4.737   8.832  0.0676  1.5124  2.0012
  109OSM   C18F11316   2.258   4.733   8.730 -0.9854  0.3220 -0.0624
  109OSM   H18F11317   2.266   4.823   8.666 -0.7801  0.6529  0.4211
  109OSM   H18G11318   2.151   4.716   8.755 -0.1823 -2.5358  1.9615
  109OSM   H18H11319   2.287   4.644   8.671  3.0520 -0.0659  2.1735
  110OSM      N11320   3.666   3.728  10.951 -0.4455 -0.5125  0.3516
  110OSM    C1511321   3.603   3.864  10.943 -0.4236 -0.5109  0.8570
  110OSM   H15A11322   3.674   3.938  10.910 -0.7769 -0.4314  0.2645
  110OSM   H15B11323   3.567   3.896  11.040  1.1004  2.3924  0.5849
  110OSM   H15C11324   3.517   3.854  10.878  0.2226 -2.0154  0.1827
  110OSM    C1411325   3.773   3.727  11.055  0.8433 -0.0491  0.1648
  110OSM   H14A11326   3.738   3.719  11.157  2.7979 -0.7844  0.8219
  110OSM   H14B11327   3.831   3.818  11.059  0.1740  0.5202 -1.9793
  110OSM   H14C11328   3.842   3.644  11.049  0.9636  0.0587  0.0596
  110OSM    C1311329   3.559   3.637  10.997 -0.2085 -0.0751  0.0651
  110OSM   H13A11330   3.497   3.675  11.077 -0.3314 -0.0462 -0.0413
  110OSM   H13B11331   3.591   3.537  11.021  1.5271 -0.6094 -3.7300
  110OSM   H13C11332   3.494   3.612  10.914  1.6047 -0.6894 -1.2412
  110OSM    C1211333   3.712   3.681  10.818 -0.0805  0.4185  0.8218
  110OSM   H12A11334   3.748   3.763  10.759 -3.0763 -0.9565 -3.3693
  110OSM   H12B11335   3.630   3.650  10.756  0.0658 -0.7350  1.1695
  110OSM    C1111336   3.806   3.561  10.814 -0.2876  0.5418  0.5769
  110OSM   H11A11337   3.897   3.584  10.874  0.0053  1.4257 -0.1832
  110OSM   H11B11338   3.845   3.557  10.710 -0.0498  1.6869  0.6091
  110OSM      P11339   3.820   3.306  10.891 -0.2855  0.2216  0.4603
  110OSM    O1311340   3.930   3.339  10.986  0.1418 -0.3902  0.2321
  110OSM    O1411341   3.715   3.207  10.930  0.0407 -0.2251  0.0217
  110OSM    O1111342   3.886   3.273  10.752  0.1217 -0.4557 -0.5783
  110OSM    O1211343   3.737   3.435  10.855  0.5708  0.4048 -0.6012
  110OSM    C1S11344   3.811   3.279  10.632  0.6600 -0.4826 -0.0445
  110OSM    H1S11345   3.728   3.353  10.637  2.4994  1.6713  0.1832
  110OSM    H1T11346   3.773   3.177  10.610  0.2163 -1.0215  2.7737
  110OSM     NF11347   3.795   3.347  10.392  0.0617 -0.1470  0.1042
  110OSM    HNF11348   3.794   3.284  10.314  2.3349 -1.4659  1.0620
  110OSM    C2S11349   3.891   3.322  10.502  0.6036 -0.1194  0.3573
  110OSM    H2S11350   3.929   3.425  10.520 -0.3963  0.2384  0.4765
  110OSM    C3S11351   3.998   3.223  10.473  0.6996  0.3896  0.1316
  110OSM    H3S11352   3.945   3.127  10.462  0.9593  0.2231  0.3277
  110OSM     O311353   4.087   3.202  10.582 -0.4550  0.1849 -0.0877
  110OSM    HO311354   4.036   3.238  10.654 -2.1764 -1.4176 -0.4316
  110OSM    C4S11355   4.071   3.264  10.353  0.5214 -0.2941  0.4606
  110OSM    H4S11356   4.013   3.252  10.260  1.5630  1.0238 -0.3926
  110OSM    C5S11357   4.190   3.325  10.338  0.3953  0.2651  0.4034
  110OSM    H5S11358   4.244   3.349  10.430  0.0638  0.0551  0.6567
  110OSM    C6S11359   4.253   3.380  10.214  0.0879 -0.0992 -0.1714
  110OSM    H6S11360   4.345   3.322  10.192  0.4314 -0.3075  1.6725
  110OSM    H6T11361   4.288   3.485  10.228 -0.3975  0.1016 -0.4477
  110OSM    C7S11362   4.171   3.376  10.084  0.3805 -1.0721 -0.1892
  110OSM    H7S11363   4.065   3.402  10.102  0.7231  1.1865 -1.0978
  110OSM    H7T11364   4.161   3.274  10.042 -1.5333 -1.8874  2.0146
  110OSM    C8S11365   4.234   3.465   9.980 -0.0875  0.2461 -0.3128
  110OSM    H8S11366   4.333   3.417   9.962 -0.9284 -2.0189  0.6970
  110OSM    H8T11367   4.255   3.565  10.024  1.5715  0.4194 -1.3828
  110OSM    C9S11368   4.170   3.476   9.840 -0.4170  0.1066 -0.9077
  110OSM    H9S11369   4.162   3.583   9.810 -1.5621 -0.4768 -2.8412
  110OSM    H9T11370   4.065   3.439   9.847 -0.7808  0.9595 -1.6434
  110OSM   C10S11371   4.242   3.400   9.734 -0.5313 -0.1963 -0.2268
  110OSM   H10S11372   4.175   3.406   9.646 -0.1982 -0.3177 -0.4903
  110OSM   H10T11373   4.248   3.297   9.776  1.1085  0.2735  0.7724
  110OSM   C11S11374   4.388   3.443   9.693 -0.3184  0.5189  0.0538
  110OSM   H11S11375   4.464   3.398   9.760  0.6669 -1.2722 -2.1280
  110OSM   H11T11376   4.389   3.554   9.705 -1.1643  0.6642 -1.0001
  110OSM   C12S11377   4.427   3.426   9.546 -0.7487  0.4738 -0.5640
  110OSM   H12S11378   4.368   3.499   9.487  0.6236  0.7638 -1.6463
  110OSM   H12T11379   4.403   3.326   9.506  0.6743 -0.5041  0.9057
  110OSM   C13S11380   4.576   3.467   9.515  0.0839  0.3432  1.1128
  110OSM   H13S11381   4.648   3.403   9.570  1.2486 -0.6733 -1.4498
  110OSM   H13T11382   4.593   3.573   9.545 -1.9763  1.2616 -0.7394
  110OSM   C14S11383   4.631   3.461   9.365  0.8725  0.4690 -0.1910
  110OSM   H14S11384   4.594   3.365   9.322  0.6009 -0.3955  1.8434
  110OSM   H14T11385   4.741   3.450   9.371  0.9532  0.9672 -0.6299
  110OSM   C15S11386   4.609   3.583   9.277  0.2204  0.1333 -1.0728
  110OSM   H15S11387   4.629   3.675   9.337  2.3939 -0.5246 -0.6755
  110OSM   H15T11388   4.500   3.584   9.256 -0.0239  1.1406  0.1249
  110OSM   C16S11389   4.701   3.581   9.159  0.3706  0.3590 -0.3327
  110OSM   H16S11390   4.671   3.493   9.099 -1.3709  0.3443  0.4949
  110OSM   H16T11391   4.808   3.568   9.186  0.1850 -0.6546 -0.0563
  110OSM   C17S11392   4.682   3.713   9.076  0.1857 -0.3184  0.6752
  110OSM   H17S11393   4.663   3.799   9.143  1.4064  1.0243 -0.6012
  110OSM   H17T11394   4.596   3.697   9.007 -0.0751  0.9776  0.6865
  110OSM   C18S11395   4.801   3.754   8.984  0.4106  0.9788 -0.1109
  110OSM   H18S11396   4.844   3.660   8.943 -1.9954 -0.5198  0.5897
  110OSM   H18T11397   4.881   3.805   9.042  0.8383  1.2404 -0.9227
  110OSM   H18U11398   4.758   3.813   8.901 -2.8575  0.4509  1.0416
  110OSM    C1F11399   3.716   3.455  10.376 -0.0911 -0.2831 -0.7591
  110OSM     OF11400   3.723   3.548  10.456 -0.1464  0.1696  0.4724
  110OSM    C2F11401   3.612   3.449  10.265 -0.0831  0.2473  0.1312
  110OSM    H2F11402   3.518   3.396  10.292 -0.2120 -1.3524 -2.9749
  110OSM    H2G11403   3.652   3.375  10.192  0.7487 -0.4098  1.2304
  110OSM    C3F11404   3.578   3.585  10.199 -0.1146 -0.9817  0.2744
  110OSM    H3F11405   3.665   3.654  10.208 -1.2780  0.9131 -1.9647
  110OSM    H3G11406   3.501   3.632  10.263  1.0192  0.7584  0.4327
  110OSM    C4F11407   3.547   3.576  10.052 -0.3671  0.2340 -0.4697
  110OSM    H4F11408   3.481   3.488  10.036 -2.7655  2.2030 -2.3385
  110OSM    H4G11409   3.635   3.553   9.988  0.8715 -2.3067  1.9585
  110OSM    C5F11410   3.473   3.699  10.000  0.5566  0.2331 -0.1813
  110OSM    H5F11411   3.539   3.786  10.020  3.0978 -1.9059  1.4222
  110OSM    H5G11412   3.383   3.720  10.061 -0.1035  0.6121 -1.2615
  110OSM    C6F11413   3.433   3.690   9.847 -0.0264 -0.7608  0.3080
  110OSM    H6F11414   3.353   3.612   9.844  0.6100 -1.4650  1.1720
  110OSM    H6G11415   3.514   3.638   9.791 -0.4346 -1.6087  0.4817
  110OSM    C7F11416   3.384   3.818   9.785 -0.7507 -0.5139 -0.0608
  110OSM    H7F11417   3.466   3.892   9.800 -0.3786 -0.6319 -1.3323
  110OSM    H7G11418   3.300   3.854   9.849  0.0905 -1.5121  1.6595
  110OSM    C8F11419   3.355   3.819   9.636 -0.1024  0.4004  0.0853
  110OSM    H8F11420   3.337   3.925   9.609 -2.7082  0.8023  2.9469
  110OSM    H8G11421   3.269   3.754   9.608  1.5128 -1.3871 -0.9712
  110OSM    C9F11422   3.467   3.754   9.560  0.1719 -0.1832 -0.1855
  110OSM    H9F11423   3.564   3.735   9.609  1.1657 -1.0542 -2.3729
  110OSM   C10F11424   3.451   3.718   9.431  0.5848  0.0132  0.2324
  110OSM   H10F11425   3.532   3.668   9.376 -0.6228 -1.2999 -0.4102
  110OSM   C11F11426   3.318   3.751   9.353 -0.4732  0.2678 -0.4527
  110OSM   H11F11427   3.331   3.812   9.261 -0.8537  3.5425  1.5401
  110OSM   H11G11428   3.250   3.816   9.411  1.2610  1.4009  0.3804
  110OSM   C12F11429   3.228   3.633   9.308 -0.5420  0.4693 -0.2770
  110OSM   H12F11430   3.182   3.566   9.384 -3.0076  2.4581  0.1002
  110OSM   H12G11431   3.287   3.571   9.237 -0.1795 -1.4932  1.6243
  110OSM   C13F11432   3.098   3.676   9.228 -0.4796 -0.6229 -0.6167
  110OSM   H13F11433   3.134   3.756   9.159  2.2435 -1.0002  0.2528
  110OSM   H13G11434   3.022   3.716   9.298  0.7422 -3.2477  2.4597
  110OSM   C14F11435   3.043   3.572   9.135 -0.5411  0.9439 -0.4232
  110OSM   H14F11436   2.977   3.502   9.190  1.3790  0.1265  0.9418
  110OSM   H14G11437   3.123   3.506   9.096  0.8391  1.1564  1.8588
  110OSM   C15F11438   2.964   3.626   9.019 -0.3541  0.0894 -0.4247
  110OSM   H15F11439   3.023   3.698   8.958 -0.5008  0.7000  0.1407
  110OSM   H15G11440   2.879   3.689   9.054  0.8868  1.6866 -0.1421
  110OSM   C16F11441   2.904   3.517   8.932 -0.0614  0.2509 -0.8638
  110OSM   H16F11442   2.853   3.573   8.851 -2.5727 -1.8968 -0.9030
  110OSM   H16G11443   2.824   3.461   8.985  0.3432  0.2909 -0.2004
  110OSM   C17F11444   2.998   3.413   8.879 -0.2624  0.1847 -0.6547
  110OSM   H17F11445   2.944   3.336   8.819 -0.8891  0.0907  0.0151
  110OSM   H17G11446   3.045   3.357   8.963  0.7714  1.7135 -0.1856
  110OSM   C18F11447   3.108   3.463   8.787  0.6900 -0.3501 -0.9504
  110OSM   H18F11448   3.176   3.381   8.756  1.6146 -0.4820  1.2110
  110OSM   H18G11449   3.162   3.546   8.837  0.1618 -0.5937  0.0512
  110OSM   H18H11450   3.056   3.508   8.700 -1.5435 -0.0360  0.4440
  111OSM      N11451   2.255   1.837  10.786  0.3946  0.2199  0.4006
  111OSM    C1511452   2.369   1.800  10.874  1.0884 -0.0815  0.3555
  111OSM   H15A11453   2.467   1.836  10.845  0.9041  0.4237  0.3426
  111OSM   H15B11454   2.366   1.692  10.876  1.1881 -0.1815 -2.0101
  111OSM   H15C11455   2.365   1.831  10.977  1.4313 -0.8213  0.5972
  111OSM    C1411456   2.259   1.739  10.669 -0.2286 -0.5983 -0.4101
  111OSM   H14A11457   2.223   1.638  10.687  1.6372 -1.6402 -2.0379
  111OSM   H14B11458   2.360   1.722  10.636 -0.1246  1.3051 -1.1549
  111OSM   H14C11459   2.202   1.768  10.581 -1.1567 -1.1627 -0.0191
  111OSM    C1311460   2.129   1.819  10.858  0.4962 -0.1272 -0.4867
  111OSM   H13A11461   2.124   1.717  10.895 -0.1353 -0.1734 -0.6980
  111OSM   H13B11462   2.038   1.839  10.803  0.4077  0.6952 -0.0515
  111OSM   H13C11463   2.127   1.878  10.949 -0.3423  0.7689 -1.0660
  111OSM    C1211464   2.259   1.978  10.728 -0.2807  0.2965  0.5249
  111OSM   H12A11465   2.261   2.046  10.812 -0.3850 -0.4691  1.1551
  111OSM   H12B11466   2.173   1.984  10.663 -0.1113  0.1048  0.2842
  111OSM    C1111467   2.383   2.021  10.654  0.5860 -0.1251  0.1898
  111OSM   H11A11468   2.346   2.112  10.602 -1.3723  0.2080  2.0074
  111OSM   H11B11469   2.410   1.938  10.586 -0.9248  0.3091 -0.9924
  111OSM      P11470   2.485   2.199  10.806 -0.6700 -0.1056  0.0560
  111OSM    O1311471   2.357   2.229  10.871  0.0182 -0.3605  0.0487
  111OSM    O1411472   2.607   2.203  10.893  0.7314 -0.7458  0.0154
  111OSM    O1111473   2.516   2.276  10.673 -0.0086  0.0107  0.0715
  111OSM    O1211474   2.483   2.051  10.752  0.1123 -0.3092 -0.0279
  111OSM    C1S11475   2.620   2.252  10.573  0.8802  0.0662  0.1959
  111OSM    H1S11476   2.672   2.156  10.597 -0.0075 -0.4018  0.2789
  111OSM    H1T11477   2.696   2.332  10.564  2.0018 -0.9448  0.3775
  111OSM     NF11478   2.629   2.172  10.338  0.0173  0.3660 -0.1803
  111OSM    HNF11479   2.666   2.239  10.275  1.3026  1.4893  1.6768
  111OSM    C2S11480   2.546   2.240  10.441  0.5801 -0.4560 -0.2276
  111OSM    H2S11481   2.450   2.184  10.453  0.7738 -0.6813  0.2918
  111OSM    C3S11482   2.499   2.388  10.396 -0.8559  0.1759  0.6534
  111OSM    H3S11483   2.598   2.435  10.377  0.8635 -3.6285 -0.9995
  111OSM     O311484   2.435   2.466  10.496  0.3829  0.2191 -0.0598
  111OSM    HO311485   2.455   2.424  10.580  0.3081 -0.8731 -0.5762
  111OSM    C4S11486   2.426   2.387  10.261  0.0708  0.1102 -0.1526
  111OSM    H4S11487   2.501   2.381  10.181  0.7756 -1.4374  0.5833
  111OSM    C5S11488   2.295   2.399  10.228 -1.1443 -0.1600 -0.0852
  111OSM    H5S11489   2.220   2.407  10.307 -1.9563  1.2014 -0.9540
  111OSM    C6S11490   2.237   2.390  10.092  0.1270 -0.1597  0.8481
  111OSM    H6S11491   2.129   2.416  10.087 -0.0636 -0.1055  3.7145
  111OSM    H6T11492   2.260   2.287  10.055  0.3247  0.7316 -1.7056
  111OSM    C7S11493   2.305   2.491   9.994  0.1428 -0.0592 -0.6704
  111OSM    H7S11494   2.406   2.455   9.968  0.3655  0.8953 -1.1762
  111OSM    H7T11495   2.298   2.585  10.052  1.3203 -0.7812  0.6963
  111OSM    C8S11496   2.225   2.507   9.866 -0.4383  0.0544 -0.6503
  111OSM    H8S11497   2.136   2.571   9.882  1.8216  2.7565  2.9234
  111OSM    H8T11498   2.191   2.408   9.830  0.5245 -0.4883 -0.1187
  111OSM    C9S11499   2.315   2.568   9.756  0.3850 -0.0920 -0.6496
  111OSM    H9S11500   2.404   2.501   9.749  1.6202  1.3621  0.5418
  111OSM    H9T11501   2.363   2.665   9.782  0.1263 -0.1225 -0.0506
  111OSM   C10S11502   2.227   2.576   9.627 -0.2708  0.0176 -0.0258
  111OSM   H10S11503   2.130   2.629   9.636 -0.8535 -1.2248  1.3071
  111OSM   H10T11504   2.192   2.471   9.613 -0.9246  0.1409  0.6234
  111OSM   C11S11505   2.301   2.626   9.501  0.4117 -0.5596 -0.3124
  111OSM   H11S11506   2.385   2.555   9.487  1.1896 -0.3334  2.5791
  111OSM   H11T11507   2.332   2.733   9.511 -4.6788  1.1973 -0.3372
  111OSM   C12S11508   2.213   2.617   9.373 -0.0941 -0.0508 -0.0625
  111OSM   H12S11509   2.126   2.686   9.377 -0.5177 -0.5876  0.1303
  111OSM   H12T11510   2.168   2.516   9.366  1.6043 -0.7431 -1.9612
  111OSM   C13S11511   2.307   2.649   9.254 -0.5641  0.1410  0.1747
  111OSM   H13S11512   2.394   2.580   9.254  0.8574  1.7795  2.6133
  111OSM   H13T11513   2.346   2.750   9.280 -1.9860  0.3185  1.7879
  111OSM   C14S11514   2.235   2.650   9.119  0.1979  0.2165 -0.0252
  111OSM   H14S11515   2.163   2.732   9.100 -0.6204 -1.0603 -2.9620
  111OSM   H14T11516   2.180   2.555   9.127  0.9861 -0.1433  1.6693
  111OSM   C15S11517   2.326   2.636   8.996 -0.0217  0.0428  0.0169
  111OSM   H15S11518   2.388   2.545   9.016  1.3497  1.1934  1.2488
  111OSM   H15T11519   2.394   2.724   8.991  0.8597 -0.6204  0.0540
  111OSM   C16S11520   2.249   2.627   8.866 -0.6665  0.0900  0.4926
  111OSM   H16S11521   2.187   2.718   8.854 -1.5690 -0.6164 -0.4165
  111OSM   H16T11522   2.175   2.544   8.876  0.6878 -1.1249  0.7021
  111OSM   C17S11523   2.326   2.595   8.738 -0.8494  0.4098  0.0456
  111OSM   H17S11524   2.379   2.499   8.758 -0.4896  0.1423 -2.0410
  111OSM   H17T11525   2.396   2.675   8.709 -2.0471  0.4380 -3.1375
  111OSM   C18S11526   2.232   2.562   8.621  0.6948 -0.1603 -0.1074
  111OSM   H18S11527   2.302   2.519   8.547 -0.0470 -1.5776 -0.0223
  111OSM   H18T11528   2.185   2.653   8.578 -1.1682 -1.4129 -0.8700
  111OSM   H18U11529   2.146   2.503   8.662  2.0895 -1.4169  1.1384
  111OSM    C1F11530   2.656   2.047  10.346 -0.4173  0.2131 -0.0922
  111OSM     OF11531   2.596   1.968  10.423 -0.0369  0.1882 -0.1672
  111OSM    C2F11532   2.784   2.002  10.272  0.4379 -1.0749  0.2009
  111OSM    H2F11533   2.823   1.929  10.346 -0.7835 -0.7357  1.2215
  111OSM    H2G11534   2.849   2.089  10.250 -1.9221  0.7162 -0.1801
  111OSM    C3F11535   2.744   1.937  10.140  0.2361 -0.0444  0.3202
  111OSM    H3F11536   2.719   2.005  10.056  0.2460 -0.9891 -0.4724
  111OSM    H3G11537   2.652   1.876  10.154  1.3950 -2.0422 -0.2348
  111OSM    C4F11538   2.853   1.846  10.083  0.6527  0.0965 -0.2937
  111OSM    H4F11539   2.888   1.792  10.173  0.6654 -0.2301 -0.4932
  111OSM    H4G11540   2.938   1.906  10.044 -0.8696  2.6329  0.0306
  111OSM    C5F11541   2.807   1.757   9.972  0.4055 -0.1992  0.0737
  111OSM    H5F11542   2.714   1.714  10.016  1.2454 -0.3057  1.8298
  111OSM    H5G11543   2.879   1.674   9.955 -1.4785 -1.8488 -0.3227
  111OSM    C6F11544   2.783   1.822   9.833  0.2001 -0.4344 -0.3687
  111OSM    H6F11545   2.879   1.871   9.805 -0.3587  0.1346 -1.3359
  111OSM    H6G11546   2.713   1.907   9.844  2.8766  1.9678 -0.6126
  111OSM    C7F11547   2.725   1.724   9.735 -0.4896  0.5662  0.4910
  111OSM    H7F11548   2.624   1.692   9.768  0.2491 -2.0580  0.4117
  111OSM    H7G11549   2.785   1.631   9.737 -1.0709  0.1907  2.2947
  111OSM    C8F11550   2.714   1.793   9.599 -0.3104  0.5454  0.3116
  111OSM    H8F11551   2.815   1.835   9.582  0.0408 -0.5994 -0.5642
  111OSM    H8G11552   2.645   1.880   9.601  0.5729  1.3069 -0.9671
  111OSM    C9F11553   2.677   1.695   9.491 -0.2963  0.2276  0.5704
  111OSM    H9F11554   2.587   1.639   9.520  0.0052 -1.3286 -1.3312
  111OSM   C10F11555   2.745   1.653   9.382 -0.1070  0.4438  0.1556
  111OSM   H10F11556   2.703   1.570   9.324  1.8121 -1.5796  1.5099
  111OSM   C11F11557   2.882   1.702   9.342 -0.1992 -0.1312 -0.3773
  111OSM   H11F11558   2.952   1.616   9.348 -0.2200 -0.0676  1.7641
  111OSM   H11G11559   2.925   1.772   9.417  0.9802 -0.4971 -0.6764
  111OSM   C12F11560   2.893   1.783   9.212  0.1370 -0.1574 -0.7404
  111OSM   H12F11561   2.995   1.826   9.201  0.7958 -1.3901  0.2420
  111OSM   H12G11562   2.821   1.866   9.225  0.8012  0.0901  2.2194
  111OSM   C13F11563   2.858   1.704   9.086 -0.7869 -0.4035  0.0182
  111OSM   H13F11564   2.757   1.659   9.092 -0.0070 -2.0286  3.3672
  111OSM   H13G11565   2.925   1.617   9.070 -1.0603 -1.1896  2.6535
  111OSM   C14F11566   2.872   1.801   8.961  0.6229  0.1372 -0.0744
  111OSM   H14F11567   2.823   1.896   8.993 -1.1847 -0.8163  0.1367
  111OSM   H14G11568   2.815   1.753   8.879  0.5651 -2.9536  1.6030
  111OSM   C15F11569   3.008   1.836   8.917 -0.5373 -0.0239 -0.7160
  111OSM   H15F11570   3.056   1.739   8.893  0.5749  0.3005  0.1036
  111OSM   H15G11571   3.060   1.879   9.005 -1.7928 -2.4211  1.3118
  111OSM   C16F11572   3.018   1.944   8.811 -0.2060  0.1812  0.2528
  111OSM   H16F11573   2.981   2.037   8.859  4.5217  1.7056  1.4370
  111OSM   H16G11574   2.962   1.923   8.718 -1.5349  3.6385  0.1329
  111OSM   C17F11575   3.159   1.980   8.764 -0.0215  0.9947 -1.0182
  111OSM   H17F11576   3.192   1.905   8.688 -0.6756  1.4495 -1.7682
  111OSM   H17G11577   3.232   1.974   8.847 -1.2091 -0.7704 -0.0262
  111OSM   C18F11578   3.158   2.122   8.709  0.3363  0.4723  0.0828
  111OSM   H18F11579   3.119   2.200   8.777 -0.1607 -1.5883  2.3237
  111OSM   H18G11580   3.095   2.113   8.618 -1.6505 -0.2697  1.4719
  111OSM   H18H11581   3.262   2.141   8.676  0.4918  0.5961  0.6485
  112OSM      N11582   5.937   5.509  11.051  0.2173 -0.1402 -0.2648
  112OSM    C1511583   6.022   5.536  11.168 -0.1607  0.0100 -0.2520
  112OSM   H15A11584   6.116   5.484  11.153 -1.6158 -2.1836 -2.5540
  112OSM   H15B11585   5.976   5.492  11.256 -0.4592 -1.3766 -1.0663
  112OSM   H15C11586   6.039   5.640  11.190 -0.3242 -0.0165  0.0016
  112OSM    C1411587   6.010   5.547  10.929  0.8381  0.5516  0.3664
  112OSM   H14A11588   6.103   5.493  10.928 -0.0643 -1.0360 -0.1844
  112OSM   H14B11589   6.040   5.651  10.932  0.3093  0.6970  0.7477
  112OSM   H14C11590   5.946   5.516  10.848 -1.2568  1.0590  1.7331
  112OSM    C1311591   5.900   5.364  11.049  0.8717  0.2275 -0.0529
  112OSM   H13A11592   5.828   5.354  10.969  2.5587 -1.6440 -1.4303
  112OSM   H13B11593   5.859   5.334  11.145  1.3537  0.2762  0.1721
  112OSM   H13C11594   5.982   5.303  11.016  0.6502 -0.9380  1.4021
  112OSM    C1211595   5.815   5.594  11.074 -0.4132  0.5415  0.1446
  112OSM   H12A11596   5.856   5.689  11.106  3.8704 -0.8322 -0.7116
  112OSM   H12B11597   5.759   5.557  11.159 -0.0588 -1.5099 -0.4621
  112OSM    C1111598   5.710   5.595  10.966 -0.0484 -0.4383  0.3439
  112OSM   H11A11599   5.749   5.644  10.875 -1.1856  1.2160  0.7098
  112OSM   H11B11600   5.628   5.659  11.005 -0.9355 -0.6327 -1.1209
  112OSM      P11601   5.532   5.394  11.003  0.3719 -0.1258 -0.1012
  112OSM    O1311602   5.533   5.248  10.983 -0.2959 -0.9209  0.6280
  112OSM    O1411603   5.520   5.438  11.149  0.7597  0.1690 -0.0711
  112OSM    O1111604   5.420   5.454  10.913 -0.4926  0.4277 -0.2995
  112OSM    O1211605   5.662   5.464  10.935  1.4265 -0.5802 -0.0397
  112OSM    C1S11606   5.435   5.469  10.771 -0.4136  0.5518  0.0807
  112OSM    H1S11607   5.541   5.464  10.741 -0.2712  1.9030  0.3074
  112OSM    H1T11608   5.400   5.569  10.738 -2.1058 -0.7507 -2.4127
  112OSM     NF11609   5.399   5.355  10.554 -0.1721  0.2785 -1.5355
  112OSM    HNF11610   5.329   5.383  10.488 -3.3309 -1.5445  0.7639
  112OSM    C2S11611   5.360   5.355  10.692 -0.4113  0.3019 -0.2860
  112OSM    H2S11612   5.396   5.266  10.749  0.0556  0.9178  0.3900
  112OSM    C3S11613   5.210   5.375  10.707  0.2897 -1.0897 -0.2210
  112OSM    H3S11614   5.203   5.479  10.670  1.8188 -1.1152 -0.6229
  112OSM     O311615   5.165   5.383  10.842  0.2676 -0.0563  0.1328
  112OSM    HO311616   5.239   5.390  10.903  0.2534 -0.1396  0.1607
  112OSM    C4S11617   5.137   5.278  10.628  0.4582  0.0603 -0.2707
  112OSM    H4S11618   5.181   5.178  10.615 -0.1447 -0.2139 -0.2593
  112OSM    C5S11619   5.034   5.318  10.546  0.0002 -0.3691 -0.2192
  112OSM    H5S11620   5.003   5.424  10.554  0.9136 -0.0963 -0.2393
  112OSM    C6S11621   4.954   5.225  10.453  0.4551  1.4704  0.5164
  112OSM    H6S11622   4.845   5.231  10.471  0.4653 -0.7132  1.8075
  112OSM    H6T11623   4.978   5.119  10.478 -1.8225  1.0360  1.0893
  112OSM    C7S11624   4.984   5.268  10.305  0.4110 -0.3231  0.1916
  112OSM    H7S11625   4.934   5.193  10.239 -1.3010 -1.8817  3.0813
  112OSM    H7T11626   5.095   5.268  10.292  0.3441  1.8569 -0.8535
  112OSM    C8S11627   4.933   5.407  10.264 -0.9460  0.3537 -0.3333
  112OSM    H8S11628   5.007   5.483  10.298  1.5226 -1.2070 -1.8897
  112OSM    H8T11629   4.837   5.413  10.320 -0.5795 -0.5823  0.4131
  112OSM    C9S11630   4.906   5.405  10.114  0.1722 -0.1109  0.1166
  112OSM    H9S11631   4.817   5.341  10.102 -1.4868  1.9201  0.9762
  112OSM    H9T11632   4.987   5.355  10.057 -1.8676 -2.6973 -0.6872
  112OSM   C10S11633   4.865   5.540  10.057  0.2386  0.5535  0.7536
  112OSM   H10S11634   4.953   5.607  10.058  1.2541 -0.5172 -2.5527
  112OSM   H10T11635   4.770   5.584  10.096  0.2395  2.5267 -1.2511
  112OSM   C11S11636   4.833   5.521   9.908  0.2603  0.0827  1.1811
  112OSM   H11S11637   4.765   5.437   9.883  1.3267 -0.4569 -0.0060
  112OSM   H11T11638   4.924   5.515   9.845 -1.4320  1.0630 -1.4992
  112OSM   C12S11639   4.750   5.647   9.857 -0.5059  0.3907 -0.0416
  112OSM   H12S11640   4.792   5.743   9.895 -0.7744 -0.7558  3.5470
  112OSM   H12T11641   4.645   5.647   9.893 -0.9625 -0.1112 -1.3105
  112OSM   C13S11642   4.745   5.647   9.701 -0.4762 -0.1583  0.0601
  112OSM   H13S11643   4.680   5.567   9.659  0.1727  0.9571 -3.3370
  112OSM   H13T11644   4.843   5.657   9.651 -1.0462 -1.1896 -1.3198
  112OSM   C14S11645   4.672   5.774   9.656  0.0332 -0.2224 -0.0088
  112OSM   H14S11646   4.699   5.862   9.718  1.1082  0.5046 -1.4462
  112OSM   H14T11647   4.563   5.760   9.675  0.4351  1.0193  4.0473
  112OSM   C15S11648   4.691   5.808   9.503  0.1299 -0.0873  0.4004
  112OSM   H15S11649   4.708   5.711   9.451 -1.7822 -1.2714  1.8686
  112OSM   H15T11650   4.789   5.861   9.504  0.5988 -0.9426  0.5125
  112OSM   C16S11651   4.585   5.892   9.439 -0.0323  0.2994 -0.5983
  112OSM   H16S11652   4.566   5.984   9.499 -0.9557  0.0336 -0.4748
  112OSM   H16T11653   4.497   5.825   9.441 -0.6649  1.0825  2.0070
  112OSM   C17S11654   4.629   5.927   9.292  0.4447  0.0254 -0.2664
  112OSM   H17S11655   4.730   5.973   9.290 -0.2586  1.6017 -2.3242
  112OSM   H17T11656   4.577   6.019   9.258  1.6677  2.1591  3.1010
  112OSM   C18S11657   4.630   5.818   9.181 -0.2471 -0.2589 -0.4096
  112OSM   H18S11658   4.678   5.870   9.096 -0.3813 -0.9952 -0.9479
  112OSM   H18T11659   4.536   5.772   9.143  0.6568 -2.7926  0.2149
  112OSM   H18U11660   4.702   5.741   9.219 -0.2216  0.3472  0.8292
  112OSM    C1F11661   5.519   5.313  10.520 -0.2588 -0.2301 -0.5159
  112OSM     OF11662   5.598   5.256  10.601 -0.2414 -0.4471  0.4820
  112OSM    C2F11663   5.556   5.328  10.373 -0.2707  0.0352  0.1209
  112OSM    H2F11664   5.541   5.434  10.343 -2.3246 -0.7675 -1.9791
  112OSM    H2G11665   5.482   5.261  10.326 -0.9434 -1.3546  2.9252
  112OSM    C3F11666   5.705   5.294  10.357  0.4183  0.2352 -0.8379
  112OSM    H3F11667   5.708   5.188  10.391 -2.6739  0.2179 -0.3425
  112OSM    H3G11668   5.763   5.364  10.421  1.5334  0.9882 -2.5925
  112OSM    C4F11669   5.760   5.308  10.218  0.4035  0.7135 -0.4056
  112OSM    H4F11670   5.689   5.269  10.142 -0.3948 -0.4781  0.9021
  112OSM    H4G11671   5.852   5.246  10.221 -1.2242 -1.8638  1.3085
  112OSM    C5F11672   5.801   5.454  10.192 -0.1785 -0.4002  0.6082
  112OSM    H5F11673   5.890   5.469  10.256  1.3081 -1.5857 -1.0719
  112OSM    H5G11674   5.732   5.526  10.240 -2.0944 -2.0878  0.5326
  112OSM    C6F11675   5.830   5.507  10.048 -1.2763 -0.4736 -0.2183
  112OSM    H6F11676   5.895   5.436   9.991 -2.5557 -3.5545  1.8889
  112OSM    H6G11677   5.891   5.599  10.057  1.2200 -2.1369  1.2729
  112OSM    C7F11678   5.694   5.532   9.968  0.2553  0.5285 -0.0789
  112OSM    H7F11679   5.634   5.608  10.022  1.4517  0.7297  1.0272
  112OSM    H7G11680   5.642   5.434   9.972  3.5547 -1.4044 -0.4583
  112OSM    C8F11681   5.717   5.605   9.832 -0.3692 -0.3334  0.0021
  112OSM    H8F11682   5.759   5.706   9.852 -0.1939 -0.0562 -1.6264
  112OSM    H8G11683   5.620   5.637   9.789 -0.0247 -0.4132 -0.8575
  112OSM    C9F11684   5.804   5.522   9.739  0.3167 -0.1485 -0.2021
  112OSM    H9F11685   5.906   5.511   9.777  0.4054  0.1351 -0.3588
  112OSM   C10F11686   5.783   5.477   9.619  0.3905  0.3672  0.2431
  112OSM   H10F11687   5.861   5.416   9.570 -1.2794 -0.9013 -0.9808
  112OSM   C11F11688   5.647   5.486   9.548 -0.5810  0.3277 -0.2381
  112OSM   H11F11689   5.658   5.577   9.484  0.7394  0.6662  0.4399
  112OSM   H11G11690   5.563   5.509   9.616 -0.1808 -0.3442  0.5005
  112OSM   C12F11691   5.611   5.368   9.461 -0.3043 -0.4605 -0.0512
  112OSM   H12F11692   5.602   5.268   9.510  0.1994 -0.7680 -0.5769
  112OSM   H12G11693   5.693   5.356   9.387 -1.1490 -0.7858 -0.9570
  112OSM   C13F11694   5.482   5.386   9.374  0.3902  1.2118  0.5263
  112OSM   H13F11695   5.497   5.456   9.289 -0.7596  1.0838  0.2042
  112OSM   H13G11696   5.401   5.435   9.432  0.1059  0.8665  0.4197
  112OSM   C14F11697   5.427   5.255   9.320  0.5048 -0.6084  0.1766
  112OSM   H14F11698   5.417   5.190   9.409 -1.5074 -3.7791 -2.1481
  112OSM   H14G11699   5.498   5.214   9.245 -0.7023  0.2330 -1.4977
  112OSM   C15F11700   5.297   5.275   9.234  0.1480 -0.7214 -0.3510
  112OSM   H15F11701   5.315   5.362   9.167 -3.1016  1.2662  1.0935
  112OSM   H15G11702   5.220   5.320   9.300 -0.7739 -0.3304 -1.6478
  112OSM   C16F11703   5.245   5.150   9.171 -0.1263  0.4563 -0.0968
  112OSM   H16F11704   5.136   5.163   9.151 -0.4663 -4.2779 -2.9515
  112OSM   H16G11705   5.265   5.067   9.241 -0.9575  1.0413  0.8654
  112OSM   C17F11706   5.314   5.116   9.037  0.2245  0.4475 -1.4541
  112OSM   H17F11707   5.275   5.021   8.996  1.1424 -1.5816  1.9855
  112OSM   H17G11708   5.424   5.104   9.044  0.1811 -0.2649 -1.9041
  112OSM   C18F11709   5.285   5.228   8.935  0.2017  0.4627  0.0374
  112OSM   H18F11710   5.175   5.246   8.937  0.0676 -0.3311  0.1003
  112OSM   H18G11711   5.292   5.196   8.829 -1.2947 -1.5571  0.4823
  112OSM   H18H11712   5.347   5.319   8.951 -1.0083  1.2205  0.5892
  113OSM      N11713   6.706   1.976  10.861  0.0579 -0.5755  0.0297
  113OSM    C1511714   6.835   1.954  10.928  0.3654  0.3421  0.0027
  113OSM   H15A11715   6.920   1.987  10.871 -0.4599 -0.2942 -1.6708
  113OSM   H15B11716   6.847   1.851  10.958 -0.5042  0.3806  0.5211
  113OSM   H15C11717   6.844   2.012  11.019  2.6696  0.9417 -0.5598
  113OSM    C1411718   6.610   1.947  10.972  0.2874  0.0303  0.5781
  113OSM   H14A11719   6.627   2.014  11.055 -0.7501  0.5305  0.4139
  113OSM   H14B11720   6.620   1.845  11.005  1.9475 -0.6101 -1.6488
  113OSM   H14C11721   6.507   1.959  10.939  0.3319 -2.4339 -0.6561
  113OSM    C1311722   6.699   2.123  10.821  0.1900  0.3135 -1.2385
  113OSM   H13A11723   6.688   2.189  10.905  1.7586 -0.8872 -0.0236
  113OSM   H13B11724   6.604   2.142  10.774 -0.9432  3.4760  1.8538
  113OSM   H13C11725   6.784   2.159  10.764 -0.6338 -0.0451 -2.7496
  113OSM    C1211726   6.683   1.891  10.739  0.1396  0.3384  1.1852
  113OSM   H12A11727   6.697   1.786  10.760  1.0418 -0.2867 -2.0093
  113OSM   H12B11728   6.761   1.917  10.669 -2.0477 -0.6425 -1.8395
  113OSM    C1111729   6.544   1.902  10.670 -0.1818  1.4065 -0.9311
  113OSM   H11A11730   6.549   1.874  10.563  0.2826  0.5501 -0.6976
  113OSM   H11B11731   6.533   2.011  10.655 -0.3281  1.0428 -4.3171
  113OSM      P11732   6.433   1.678  10.751 -0.7783  0.4363  0.4028
  113OSM    O1311733   6.564   1.616  10.791 -0.1445  0.7109 -0.2311
  113OSM    O1411734   6.303   1.630  10.807 -0.1674 -0.1339 -0.3876
  113OSM    O1111735   6.429   1.647  10.594 -0.0582 -0.4588 -0.3019
  113OSM    O1211736   6.443   1.837  10.746 -0.3249 -0.2768 -0.2211
  113OSM    C1S11737   6.339   1.540  10.545  0.4719  0.1153  0.3783
  113OSM    H1S11738   6.242   1.530  10.598 -0.2804 -0.3254 -1.0589
  113OSM    H1T11739   6.381   1.440  10.565  0.7405  0.0478 -0.4923
  113OSM     NF11740   6.193   1.475  10.356  0.3360  0.1891  0.2690
  113OSM    HNF11741   6.211   1.390  10.307 -0.7777 -1.2298  2.1731
  113OSM    C2S11742   6.304   1.561  10.398 -0.0605  0.5860 -0.1603
  113OSM    H2S11743   6.276   1.668  10.385  1.5300  0.8000 -2.2653
  113OSM    C3S11744   6.425   1.538  10.301 -1.3003  0.5233  0.4451
  113OSM    H3S11745   6.456   1.431  10.304 -2.7943  0.0086 -0.7380
  113OSM     O311746   6.536   1.619  10.322  0.0506  0.5920  0.6897
  113OSM    HO311747   6.523   1.645  10.414  0.6008  1.1820  0.6057
  113OSM    C4S11748   6.380   1.575  10.165 -0.2766  0.0923  0.2063
  113OSM    H4S11749   6.328   1.672  10.166  0.4970  0.6173 -2.4811
  113OSM    C5S11750   6.380   1.510  10.049  0.1543 -0.0807  0.2414
  113OSM    H5S11751   6.422   1.408  10.044  1.9460  0.6705 -2.0589
  113OSM    C6S11752   6.329   1.557   9.918  0.0120  0.2021 -0.4898
  113OSM    H6S11753   6.396   1.640   9.888 -0.4768  0.3604 -1.1911
  113OSM    H6T11754   6.229   1.601   9.939  0.1144 -1.0624  3.3305
  113OSM    C7S11755   6.306   1.461   9.801 -0.3455 -0.4104  0.1849
  113OSM    H7S11756   6.238   1.380   9.836  0.4132 -0.3106  1.9682
  113OSM    H7T11757   6.401   1.406   9.783 -0.4590 -0.7276  0.5518
  113OSM    C8S11758   6.262   1.532   9.672 -0.0184  0.2352 -0.9173
  113OSM    H8S11759   6.328   1.621   9.661 -1.1630  1.7927  3.0891
  113OSM    H8T11760   6.154   1.554   9.683 -0.4365 -1.8018 -0.5103
  113OSM    C9S11761   6.275   1.447   9.550 -0.5885  0.2508 -0.0005
  113OSM    H9S11762   6.382   1.430   9.526 -0.5125 -0.9519  1.0743
  113OSM    H9T11763   6.245   1.515   9.468 -0.6837 -2.2776 -2.2075
  113OSM   C10S11764   6.194   1.311   9.550  0.0414 -0.4262  0.6045
  113OSM   H10S11765   6.086   1.325   9.569 -0.2508  0.6619 -1.5511
  113OSM   H10T11766   6.234   1.249   9.633 -0.1752  0.0315  1.0584
  113OSM   C11S11767   6.190   1.224   9.427  0.0598  0.1483  0.3341
  113OSM   H11S11768   6.134   1.131   9.449  0.8218 -0.2989  0.4371
  113OSM   H11T11769   6.292   1.190   9.399 -0.6786 -0.6958 -1.5386
  113OSM   C12S11770   6.123   1.298   9.302 -0.4468  0.3408 -0.4956
  113OSM   H12S11771   6.180   1.390   9.274 -1.5213  0.9170 -0.8604
  113OSM   H12T11772   6.022   1.336   9.327 -0.5721 -0.8732  0.9838
  113OSM   C13S11773   6.126   1.205   9.178  0.3770 -0.2921 -0.5878
  113OSM   H13S11774   6.233   1.212   9.149 -0.1662 -2.1267 -3.4584
  113OSM   H13T11775   6.083   1.250   9.086  2.0271 -2.7970 -2.7274
  113OSM   C14S11776   6.078   1.056   9.198 -0.1208 -0.1086 -0.6891
  113OSM   H14S11777   5.970   1.065   9.222  0.6253  1.8669  2.5530
  113OSM   H14T11778   6.112   1.019   9.296 -1.2413  3.0248  1.0261
  113OSM   C15S11779   6.121   0.969   9.078  0.3348  0.2816 -0.3259
  113OSM   H15S11780   6.092   0.862   9.090  0.6908  0.3760  1.9310
  113OSM   H15T11781   6.230   0.975   9.056  0.1610  2.2614 -0.8377
  113OSM   C16S11782   6.052   0.998   8.945  0.0878 -0.4444 -0.8069
  113OSM   H16S11783   6.088   1.098   8.910 -0.3372  0.4371  1.1519
  113OSM   H16T11784   5.946   1.016   8.975  0.2871  0.7001 -0.7252
  113OSM   C17S11785   6.077   0.898   8.828  0.1912 -0.1037  0.3473
  113OSM   H17S11786   6.031   0.799   8.845 -2.1943  1.0194  0.9102
  113OSM   H17T11787   6.185   0.874   8.831  0.3491  0.5128 -0.0516
  113OSM   C18S11788   6.043   0.953   8.688  0.3207 -0.0099 -0.1302
  113OSM   H18S11789   5.937   0.974   8.664  0.1517  0.4010  0.9246
  113OSM   H18T11790   6.082   0.880   8.614 -0.7281  0.2195 -0.9434
  113OSM   H18U11791   6.091   1.053   8.674  1.7246 -0.7476 -0.8444
  113OSM    C1F11792   6.061   1.493  10.385 -0.0562 -0.3642 -0.3018
  113OSM     OF11793   6.021   1.596  10.436 -0.2128 -0.2284 -0.0242
  113OSM    C2F11794   5.957   1.381  10.366 -0.7438 -0.4817  0.6310
  113OSM    H2F11795   5.904   1.361  10.461 -0.9812 -0.3075  0.5340
  113OSM    H2G11796   6.016   1.293  10.331  0.1032  0.2245  0.2136
  113OSM    C3F11797   5.867   1.421  10.249 -0.1617 -0.5381 -0.0856
  113OSM    H3F11798   5.819   1.517  10.278  0.2463 -0.1956 -0.5312
  113OSM    H3G11799   5.789   1.348  10.218 -1.7934  1.4129 -0.8030
  113OSM    C4F11800   5.935   1.449  10.113 -0.8294 -0.7077 -0.2062
  113OSM    H4F11801   6.006   1.371  10.079 -1.3631 -0.3000 -2.4832
  113OSM    H4G11802   5.996   1.542  10.112 -2.5905  0.5625 -2.4658
  113OSM    C5F11803   5.833   1.492  10.003  0.0308 -0.3169 -0.7073
  113OSM    H5F11804   5.771   1.577  10.038  0.4940  0.2499 -1.2294
  113OSM    H5G11805   5.770   1.402   9.997 -0.4508 -0.1046  0.7721
  113OSM    C6F11806   5.905   1.520   9.872 -0.4044 -0.4322  0.4118
  113OSM    H6F11807   5.987   1.445   9.875  0.3219  0.3065 -0.3815
  113OSM    H6G11808   5.970   1.610   9.872 -0.0745 -0.6527 -0.6388
  113OSM    C7F11809   5.825   1.526   9.739 -0.5343 -0.0461 -0.2792
  113OSM    H7F11810   5.893   1.571   9.663 -0.5527  1.7081  0.6827
  113OSM    H7G11811   5.742   1.598   9.760 -2.7257 -2.2360 -0.8973
  113OSM    C8F11812   5.763   1.384   9.714 -0.2389 -0.3266 -1.0486
  113OSM    H8F11813   5.694   1.394   9.627 -3.9316  1.3103  1.8090
  113OSM    H8G11814   5.682   1.364   9.787 -1.5314  1.9232 -1.7526
  113OSM    C9F11815   5.862   1.267   9.712  0.4980  0.0763 -0.2637
  113OSM    H9F11816   5.947   1.278   9.780  0.8761 -0.0167 -0.7185
  113OSM   C10F11817   5.842   1.151   9.648  0.2326 -0.7473 -0.3233
  113OSM   H10F11818   5.910   1.069   9.676  1.0115 -0.7501 -2.0746
  113OSM   C11F11819   5.730   1.117   9.562  0.2245  0.2072  0.5554
  113OSM   H11F11820   5.640   1.165   9.605  1.1795  1.1542  1.5530
  113OSM   H11G11821   5.711   1.008   9.551 -1.6846  0.6226 -0.5855
  113OSM   C12F11822   5.745   1.172   9.416  0.3055  0.2064  0.4726
  113OSM   H12F11823   5.846   1.145   9.379  0.6461 -1.1333  2.2540
  113OSM   H12G11824   5.735   1.282   9.428  0.0041  0.0354  2.0304
  113OSM   C13F11825   5.627   1.118   9.328 -0.5546  0.8143  0.0543
  113OSM   H13F11826   5.543   1.122   9.400  1.8481  4.2502  3.0493
  113OSM   H13G11827   5.634   1.016   9.285  1.6472  0.4024  1.2644
  113OSM   C14F11828   5.606   1.211   9.207 -0.6671  0.0345  0.5792
  113OSM   H14F11829   5.585   1.314   9.245  0.8534 -0.2319  2.2704
  113OSM   H14G11830   5.515   1.185   9.148  0.0481  0.3637 -0.7099
  113OSM   C15F11831   5.712   1.215   9.099 -0.3478  0.0066 -0.1486
  113OSM   H15F11832   5.723   1.122   9.039  2.7317  0.3396 -0.2415
  113OSM   H15G11833   5.809   1.249   9.140  0.0976 -0.3507 -0.8933
  113OSM   C16F11834   5.670   1.312   8.984 -0.6625  0.4306 -0.5316
  113OSM   H16F11835   5.674   1.415   9.026  1.0197 -0.0830  0.6789
  113OSM   H16G11836   5.566   1.285   8.957 -1.8634  0.1044  3.6484
  113OSM   C17F11837   5.750   1.292   8.850  0.3025  0.0119  0.1078
  113OSM   H17F11838   5.743   1.182   8.835  1.3656 -0.3267  1.8233
  113OSM   H17G11839   5.860   1.303   8.868  0.1808  0.2051  0.7702
  113OSM   C18F11840   5.699   1.365   8.723 -0.4886  0.0234 -0.2242
  113OSM   H18F11841   5.722   1.473   8.736  0.4680 -0.4449  2.9646
  113OSM   H18G11842   5.588   1.356   8.712 -0.4448 -1.4376  0.4161
  113OSM   H18H11843   5.746   1.334   8.628 -0.7158 -0.1219 -0.2888
  114OSM      N11844   4.252   4.497  11.386 -0.0504 -0.1032  0.4090
  114OSM    C1511845   4.307   4.568  11.267  0.3231 -0.9920  0.3421
  114OSM   H15A11846   4.332   4.667  11.302  1.4248 -1.7894  1.9262
  114OSM   H15B11847   4.235   4.573  11.187 -1.4200  2.1971  1.9396
  114OSM   H15C11848   4.400   4.523  11.235  0.5679 -1.0712  1.1371
  114OSM    C1411849   4.218   4.360  11.327  0.1199 -1.0696  0.2131
  114OSM   H14A11850   4.195   4.288  11.404 -2.3296 -0.7645 -0.1475
  114OSM   H14B11851   4.300   4.313  11.275  0.6962 -0.3929  0.5025
  114OSM   H14C11852   4.129   4.363  11.265 -1.2732 -2.2086  2.0426
  114OSM    C1311853   4.366   4.476  11.475  0.4009  0.3114 -0.2862
  114OSM   H13A11854   4.338   4.422  11.564  2.3335  0.4267  0.4512
  114OSM   H13B11855   4.420   4.567  11.498 -2.7377  1.6450  2.6164
  114OSM   H13C11856   4.444   4.422  11.422  0.2361 -0.3385  0.1209
  114OSM    C1211857   4.124   4.558  11.452  0.2073 -0.2952  0.5366
  114OSM   H12A11858   4.150   4.644  11.512 -0.8072 -1.0424  2.1271
  114OSM   H12B11859   4.086   4.483  11.520  0.6729 -1.8786 -0.8725
  114OSM    C1111860   4.003   4.609  11.352  0.2139  0.1579  0.3126
  114OSM   H11A11861   4.050   4.686  11.287 -1.7255 -1.5501 -3.4184
  114OSM   H11B11862   3.926   4.654  11.417  0.8990  1.1489  0.4567
  114OSM      P11863   3.888   4.529  11.134  0.1292  0.3110 -0.0311
  114OSM    O1311864   3.812   4.417  11.080  0.5409 -0.2878  0.3538
  114OSM    O1411865   3.815   4.657  11.133 -0.2999  0.2295 -0.1907
  114OSM    O1111866   4.019   4.537  11.040 -1.2159 -0.4532 -0.7593
  114OSM    O1211867   3.951   4.494  11.279 -0.0893  0.5076  0.8770
  114OSM    C1S11868   4.093   4.420  11.000 -0.0997 -0.4002  0.2796
  114OSM    H1S11869   4.032   4.327  10.996 -0.8292  0.0962 -2.9837
  114OSM    H1T11870   4.175   4.389  11.068  1.1587 -2.6225 -2.0539
  114OSM     NF11871   4.207   4.323  10.801 -0.4304 -0.5206 -0.2597
  114OSM    HNF11872   4.306   4.310  10.799 -0.6872 -2.8780 -0.9127
  114OSM    C2S11873   4.158   4.448  10.858  0.1627 -0.7219  0.6710
  114OSM    H2S11874   4.075   4.498  10.803  0.8538  2.8594  2.5482
  114OSM    C3S11875   4.269   4.567  10.869  0.1583 -0.4659  0.5812
  114OSM    H3S11876   4.358   4.521  10.917  1.3093 -2.4319 -3.0770
  114OSM     O311877   4.226   4.677  10.956 -0.0615  0.5946 -0.0923
  114OSM    HO311878   4.144   4.643  10.992 -0.3868  1.0743 -0.3720
  114OSM    C4S11879   4.302   4.629  10.732 -0.0902  0.6680  0.1136
  114OSM    H4S11880   4.406   4.603  10.709  0.1282  0.8741  0.8585
  114OSM    C5S11881   4.232   4.714  10.649 -0.6737 -0.2590  0.3886
  114OSM    H5S11882   4.135   4.753  10.681 -1.2394 -0.3812 -1.0755
  114OSM    C6S11883   4.290   4.751  10.510 -0.5313  0.1182  0.2757
  114OSM    H6S11884   4.366   4.832  10.506 -0.5130  0.0932  0.1185
  114OSM    H6T11885   4.202   4.781  10.449 -1.0042  1.9385  1.7515
  114OSM    C7S11886   4.356   4.629  10.445 -0.4647  0.2922  0.2515
  114OSM    H7S11887   4.284   4.548  10.421  1.9815 -2.5056  1.8263
  114OSM    H7T11888   4.447   4.588  10.492 -0.0597  0.0442 -0.7098
  114OSM    C8S11889   4.416   4.665  10.304 -0.0230  0.9553  0.0290
  114OSM    H8S11890   4.464   4.578  10.254 -0.4124  1.3908 -1.1455
  114OSM    H8T11891   4.497   4.740  10.304  1.3613 -0.4481  1.6213
  114OSM    C9S11892   4.307   4.706  10.205  0.6952  0.1470  0.1188
  114OSM    H9S11893   4.256   4.802  10.231  0.1797  0.0181 -0.4064
  114OSM    H9T11894   4.225   4.632  10.209  1.4029 -0.6078  1.3553
  114OSM   C10S11895   4.358   4.718  10.056 -0.1737  0.0207  0.5807
  114OSM   H10S11896   4.385   4.615  10.026 -0.5753 -0.7241  2.5918
  114OSM   H10T11897   4.443   4.790  10.051  1.3524 -1.6953  0.8233
  114OSM   C11S11898   4.250   4.751   9.953 -0.1557 -0.6212  0.9086
  114OSM   H11S11899   4.182   4.829   9.993 -0.5321 -0.6095  0.2599
  114OSM   H11T11900   4.199   4.656   9.926  1.5117 -0.9777 -1.2661
  114OSM   C12S11901   4.307   4.802   9.820  0.5436 -0.3146 -0.0989
  114OSM   H12S11902   4.359   4.715   9.777  0.2309  0.6685 -2.5998
  114OSM   H12T11903   4.388   4.872   9.850 -1.0391  0.6890  2.1889
  114OSM   C13S11904   4.219   4.873   9.715 -0.0531 -1.1340  0.0777
  114OSM   H13S11905   4.177   4.970   9.748 -2.7022 -1.4337 -2.0540
  114OSM   H13T11906   4.124   4.817   9.703 -0.2336 -0.6728 -0.7116
  114OSM   C14S11907   4.302   4.880   9.586  0.6153 -0.5037  0.2770
  114OSM   H14S11908   4.312   4.773   9.558 -1.4689 -0.9834  1.1954
  114OSM   H14T11909   4.404   4.917   9.610  0.3798  0.8063 -0.6659
  114OSM   C15S11910   4.249   4.987   9.489  0.2318  0.0313  0.9334
  114OSM   H15S11911   4.298   5.086   9.496 -0.0441  0.5189 -2.4222
  114OSM   H15T11912   4.138   4.989   9.503  0.0345 -0.8033 -0.3565
  114OSM   C16S11913   4.256   4.935   9.342 -0.1468 -0.5892 -0.0089
  114OSM   H16S11914   4.362   4.942   9.311 -0.0903  0.5534  0.4044
  114OSM   H16T11915   4.211   5.010   9.273 -1.4393 -0.1709  1.2291
  114OSM   C17S11916   4.192   4.803   9.312  0.1392 -0.0584 -0.1512
  114OSM   H17S11917   4.089   4.798   9.352  0.1033 -1.2112 -0.3355
  114OSM   H17T11918   4.239   4.717   9.366 -0.9124 -1.5995 -1.5946
  114OSM   C18S11919   4.201   4.763   9.167  0.1120 -0.4232 -0.0180
  114OSM   H18S11920   4.134   4.820   9.099 -1.4272 -1.7598  0.3238
  114OSM   H18T11921   4.168   4.660   9.145  1.6010 -0.4749 -2.5037
  114OSM   H18U11922   4.308   4.776   9.140 -0.0684  0.6478 -0.2764
  114OSM    C1F11923   4.121   4.231  10.752  0.2108 -0.9846  0.1930
  114OSM     OF11924   4.002   4.258  10.760  0.5284  0.3918 -0.1919
  114OSM    C2F11925   4.177   4.109  10.681 -0.3555  0.4180  0.6124
  114OSM    H2F11926   4.134   4.012  10.713 -0.4471 -0.0673 -0.9474
  114OSM    H2G11927   4.286   4.098  10.697 -0.1336 -0.2234 -1.1855
  114OSM    C3F11928   4.159   4.120  10.530 -0.1637 -0.5000  0.2322
  114OSM    H3F11929   4.051   4.122  10.507 -0.4137  0.8667  1.4100
  114OSM    H3G11930   4.202   4.029  10.482 -0.6036  0.3892 -1.9797
  114OSM    C4F11931   4.232   4.242  10.475  0.3263 -0.4192  0.3964
  114OSM    H4F11932   4.342   4.226  10.472 -0.1356 -4.5366 -0.3209
  114OSM    H4G11933   4.203   4.329  10.537 -2.1153 -1.2135  0.4834
  114OSM    C5F11934   4.177   4.279  10.330 -0.6739 -0.4886 -0.2911
  114OSM    H5F11935   4.196   4.388  10.319 -1.4140 -0.4746 -1.7429
  114OSM    H5G11936   4.066   4.266  10.324 -0.6983 -0.5137  0.1977
  114OSM    C6F11937   4.250   4.215  10.214 -0.6651  0.8554 -0.1610
  114OSM    H6F11938   4.220   4.109  10.205 -2.3115  1.2301  0.5779
  114OSM    H6G11939   4.358   4.221  10.238 -0.7084  0.6212  0.0996
  114OSM    C7F11940   4.223   4.296  10.086  0.4241  0.4362  0.1508
  114OSM    H7F11941   4.271   4.396  10.085 -1.0925  1.2294  1.4142
  114OSM    H7G11942   4.115   4.317  10.068  0.7285  3.7796  1.4823
  114OSM    C8F11943   4.287   4.236   9.955 -0.0716 -0.9022  0.7103
  114OSM    H8F11944   4.397   4.218   9.961  0.0574  0.0042  1.1961
  114OSM    H8G11945   4.279   4.318   9.881  2.3512 -0.9502  0.3103
  114OSM    C9F11946   4.223   4.115   9.899 -0.2907  0.0196  0.9921
  114OSM    H9F11947   4.211   4.027   9.965  0.5088 -0.5918  0.3464
  114OSM   C10F11948   4.189   4.103   9.769  0.5041 -0.2296  0.0788
  114OSM   H10F11949   4.144   4.007   9.741  2.5000 -1.4306  0.7573
  114OSM   C11F11950   4.218   4.203   9.664  0.1464 -0.6689 -0.2636
  114OSM   H11F11951   4.233   4.156   9.565 -0.8051  0.0103 -0.7391
  114OSM   H11G11952   4.307   4.261   9.696 -0.6123 -0.8076  2.3726
  114OSM   C12F11953   4.100   4.292   9.647 -0.7293  0.1961 -0.0195
  114OSM   H12F11954   4.072   4.352   9.736 -2.2512  1.4287 -1.2589
  114OSM   H12G11955   4.003   4.238   9.635 -0.1432 -1.2873  1.5807
  114OSM   C13F11956   4.117   4.386   9.527 -0.1087 -0.1088 -0.1606
  114OSM   H13F11957   4.223   4.415   9.514  0.5379 -2.0519  0.5269
  114OSM   H13G11958   4.044   4.470   9.539  0.9104  0.6126  1.3149
  114OSM   C14F11959   4.075   4.314   9.395 -0.4615  0.3881 -0.0679
  114OSM   H14F11960   3.966   4.297   9.398 -0.0423 -2.7841  1.2705
  114OSM   H14G11961   4.118   4.211   9.389 -1.9852 -0.3268  0.7049
  114OSM   C15F11962   4.114   4.392   9.269  0.0125 -1.0035  0.8320
  114OSM   H15F11963   4.217   4.428   9.293 -0.1190 -2.3052  3.7373
  114OSM   H15G11964   4.051   4.484   9.266  1.6417  0.1471  0.0812
  114OSM   C16F11965   4.113   4.306   9.140 -0.7568 -1.0661  0.9520
  114OSM   H16F11966   4.184   4.222   9.155 -0.9726 -1.6857 -1.2303
  114OSM   H16G11967   4.141   4.359   9.046 -0.0223 -2.3413  0.4170
  114OSM   C17F11968   3.978   4.244   9.114 -0.0875  0.4614 -0.1287
  114OSM   H17F11969   3.898   4.321   9.117  0.6235  1.1846  1.9125
  114OSM   H17G11970   3.957   4.178   9.201  0.9068 -2.5899 -2.0629
  114OSM   C18F11971   3.972   4.159   8.994 -0.0255 -0.8189  0.8341
  114OSM   H18F11972   3.874   4.106   8.986 -0.5122  0.3122 -1.8394
  114OSM   H18G11973   4.057   4.089   8.985  0.4864 -0.0120 -1.1151
  114OSM   H18H11974   3.960   4.221   8.903  0.5221 -0.9453  0.6742
  115OSM      N11975   0.625   6.300  11.179  0.6819  0.6871  0.3417
  115OSM    C1511976   0.726   6.398  11.137  0.5363 -0.1854  0.1136
  115OSM   H15A11977   0.824   6.354  11.124  1.2252  1.0376  1.0202
  115OSM   H15B11978   0.740   6.474  11.212 -0.6198 -1.0572  1.2558
  115OSM   H15C11979   0.683   6.441  11.047 -1.0054 -0.2649  0.7838
  115OSM    C1411980   0.668   6.205  11.290 -0.2570 -0.3991 -0.6257
  115OSM   H14A11981   0.705   6.258  11.377 -0.8869  0.1861 -0.7066
  115OSM   H14B11982   0.752   6.145  11.260 -0.1680 -0.2748 -0.6283
  115OSM   H14C11983   0.601   6.129  11.327  0.6183 -0.3128  1.2274
  115OSM    C1311984   0.499   6.372  11.214 -0.1109 -0.5753  0.2682
  115OSM   H13A11985   0.509   6.446  11.292 -0.9077  2.1135 -2.0044
  115OSM   H13B11986   0.427   6.303  11.255  0.4065 -1.1529  0.2091
  115OSM   H13C11987   0.464   6.428  11.129  0.0593  0.2793  0.7447
  115OSM    C1211988   0.582   6.209  11.058  0.1275 -0.4394 -0.2583
  115OSM   H12A11989   0.568   6.275  10.974  1.8404 -0.0244 -0.2394
  115OSM   H12B11990   0.487   6.162  11.081  0.5527 -1.0759  0.2630
  115OSM    C1111991   0.693   6.110  10.998  0.1772  0.0016  0.3798
  115OSM   H11A11992   0.776   6.180  10.972 -2.1959  2.5222 -0.8795
  115OSM   H11B11993   0.667   6.056  10.905 -1.4284  0.0960  0.7374
  115OSM      P11994   0.690   5.887  11.135 -0.2812 -0.1663  0.5547
  115OSM    O1311995   0.797   5.787  11.161 -0.5836 -0.1079  0.1706
  115OSM    O1411996   0.593   5.909  11.243 -0.1622  0.5880 -0.2288
  115OSM    O1111997   0.608   5.845  11.014 -0.0124 -0.3190  0.4213
  115OSM    O1211998   0.750   6.019  11.090 -0.5216  0.3173  0.1992
  115OSM    C1S11999   0.679   5.801  10.894 -0.0470  0.8645 -0.2896
  115OSM    H1S12000   0.720   5.699  10.911 -2.0389  0.0328 -0.2102
  115OSM    H1T12001   0.758   5.869  10.856 -1.0718  0.9829 -2.3177
  115OSM     NF12002   0.638   5.726  10.664 -0.3812  0.5665 -0.7139
  115OSM    HNF12003   0.674   5.787  10.594  1.5098 -0.2640 -0.5379
  115OSM    C2S12004   0.577   5.784  10.773 -0.0144  0.3176 -0.4239
  115OSM    H2S12005   0.492   5.718  10.801 -0.7629  1.4855  0.1901
  115OSM    C3S12006   0.516   5.921  10.736 -0.0600 -0.3107  0.1531
  115OSM    H3S12007   0.594   5.998  10.719  2.2535 -2.5776 -0.1885
  115OSM     O312008   0.441   5.973  10.844  0.5269  0.5853 -0.1926
  115OSM    HO312009   0.463   5.920  10.921 -1.3483 -1.8331 -1.1469
  115OSM    C4S12010   0.418   5.899  10.617 -0.0161  0.6424 -0.0585
  115OSM    H4S12011   0.316   5.862  10.637 -0.3504  2.5827  2.2593
  115OSM    C5S12012   0.435   5.956  10.488 -0.5597  0.0676  0.1517
  115OSM    H5S12013   0.518   6.025  10.469 -1.1015  0.9258  0.8065
  115OSM    C6S12014   0.330   5.933  10.379 -0.4892  0.2297  0.2714
  115OSM    H6S12015   0.248   6.006  10.398 -0.1441  0.2188  1.9955
  115OSM    H6T12016   0.279   5.834  10.381 -2.2139  0.9584 -2.4880
  115OSM    C7S12017   0.409   5.949  10.245  0.5401  0.4132 -0.6593
  115OSM    H7S12018   0.500   5.887  10.232  0.4321  0.5314 -2.0654
  115OSM    H7T12019   0.439   6.055  10.238 -0.7654  0.8762  0.2266
  115OSM    C8S12020   0.313   5.928  10.133  0.4330  1.3063  0.2994
  115OSM    H8S12021   0.229   6.000  10.137 -0.7044 -0.0237  0.8867
  115OSM    H8T12022   0.287   5.821  10.133 -0.7534  1.5870  0.1726
  115OSM    C9S12023   0.387   5.960  10.001 -0.9314  0.1809 -0.3726
  115OSM    H9S12024   0.481   5.901   9.998 -0.7622  0.4356 -3.4620
  115OSM    H9T12025   0.413   6.068   9.997 -1.5890  0.3475 -0.2483
  115OSM   C10S12026   0.307   5.927   9.869  0.7506  0.0845  0.0582
  115OSM   H10S12027   0.229   6.004   9.849  0.3887 -0.9667 -3.1057
  115OSM   H10T12028   0.253   5.831   9.877 -2.1349  1.5938  0.2199
  115OSM   C11S12029   0.396   5.927   9.743 -0.2313  0.2850 -0.1557
  115OSM   H11S12030   0.491   5.872   9.761 -0.0691  0.3152 -0.8855
  115OSM   H11T12031   0.415   6.032   9.713 -2.3382  0.5701 -0.6267
  115OSM   C12S12032   0.326   5.862   9.627  0.0080 -0.2656 -0.1750
  115OSM   H12S12033   0.222   5.901   9.627  0.5304  1.5793  3.0186
  115OSM   H12T12034   0.316   5.754   9.651  1.2884 -0.8779 -2.1876
  115OSM   C13S12035   0.413   5.879   9.506 -0.1617  0.6107  0.4664
  115OSM   H13S12036   0.517   5.861   9.538 -0.6468 -0.1310  1.7022
  115OSM   H13T12037   0.416   5.982   9.465  1.2986  0.8056  1.0237
  115OSM   C14S12038   0.371   5.789   9.388 -0.4236  0.2190  0.4421
  115OSM   H14S12039   0.267   5.809   9.354 -0.6358 -0.5649  0.6064
  115OSM   H14T12040   0.376   5.681   9.414 -0.4900  0.0955 -0.0588
  115OSM   C15S12041   0.465   5.822   9.260  0.7807  0.5901  0.8232
  115OSM   H15S12042   0.570   5.812   9.296  1.2829  0.5629 -0.5782
  115OSM   H15T12043   0.445   5.925   9.225  3.3348  0.7557 -0.4131
  115OSM   C16S12044   0.430   5.714   9.157  1.1112  0.3085 -0.2920
  115OSM   H16S12045   0.320   5.707   9.146  0.4907  2.5444  2.9662
  115OSM   H16T12046   0.467   5.615   9.192 -1.4586 -0.1468  1.4877
  115OSM   C17S12047   0.478   5.738   9.008 -0.6365 -0.3859 -0.0455
  115OSM   H17S12048   0.435   5.659   8.943 -0.2921 -0.5470 -0.0774
  115OSM   H17T12049   0.586   5.715   9.010 -0.5534  0.0275  0.3963
  115OSM   C18S12050   0.458   5.877   8.945  0.0519 -0.5161  0.1069
  115OSM   H18S12051   0.516   5.905   8.854 -1.6070  1.5814 -0.3765
  115OSM   H18T12052   0.490   5.960   9.011  2.2764 -0.2990 -1.1260
  115OSM   H18U12053   0.352   5.891   8.916  0.1805 -1.2525 -0.7712
  115OSM    C1F12054   0.682   5.604  10.667  0.1782  0.0787 -0.0014
  115OSM     OF12055   0.659   5.530  10.762 -0.6566  0.0859  0.0356
  115OSM    C2F12056   0.759   5.560  10.553 -0.1219 -0.5396 -0.0637
  115OSM    H2F12057   0.845   5.506  10.596 -0.8448 -1.8851 -0.2311
  115OSM    H2G12058   0.805   5.645  10.498  1.7729 -1.9546 -0.7812
  115OSM    C3F12059   0.678   5.467  10.456 -0.0072 -0.4373 -0.0263
  115OSM    H3F12060   0.633   5.386  10.517 -0.5019  0.2053  0.4701
  115OSM    H3G12061   0.742   5.411  10.384 -0.5900  2.1441 -2.7227
  115OSM    C4F12062   0.570   5.549  10.377  0.2480  0.1755  0.8715
  115OSM    H4F12063   0.607   5.645  10.337 -1.7219  0.6731  0.1252
  115OSM    H4G12064   0.496   5.584  10.452 -1.5761 -2.7132  0.6034
  115OSM    C5F12065   0.512   5.460  10.265  0.4990  0.4076  0.3803
  115OSM    H5F12066   0.462   5.369  10.305  0.7070 -0.3204 -0.9758
  115OSM    H5G12067   0.585   5.420  10.191 -1.5320 -2.4996 -0.2179
  115OSM    C6F12068   0.408   5.539  10.183 -0.6773  0.1411  0.3732
  115OSM    H6F12069   0.467   5.601  10.112 -0.9908  0.0698  0.0488
  115OSM    H6G12070   0.350   5.609  10.248  0.0260  0.2533  0.8945
  115OSM    C7F12071   0.311   5.452  10.107  0.5085  0.1214  0.4597
  115OSM    H7F12072   0.258   5.383  10.176 -0.5796 -0.6934 -1.1329
  115OSM    H7G12073   0.372   5.392  10.036 -0.1690  0.6139 -0.5619
  115OSM    C8F12074   0.202   5.531  10.025 -0.2721 -0.6874  0.0203
  115OSM    H8F12075   0.253   5.601   9.956 -0.1853  0.8617  1.5948
  115OSM    H8G12076   0.141   5.593  10.094  1.5588  1.1950  0.0338
  115OSM    C9F12077   0.118   5.436   9.943  0.3156 -0.0285  0.2151
  115OSM    H9F12078   0.026   5.397   9.989  0.0111 -0.6548 -0.8602
  115OSM   C10F12079   0.146   5.396   9.816  0.3614  0.8264 -0.6420
  115OSM   H10F12080   0.066   5.332   9.775 -1.5442  0.9172  2.6219
  115OSM   C11F12081   0.261   5.428   9.722 -0.1462 -0.3747  0.6572
  115OSM   H11F12082   0.335   5.344   9.723 -0.6795 -0.8524  0.7467
  115OSM   H11G12083   0.313   5.517   9.762  1.3675 -1.3646  1.0116
  115OSM   C12F12084   0.228   5.458   9.579  0.2764 -0.8873  0.7802
  115OSM   H12F12085   0.304   5.522   9.530 -3.1465  0.7723 -2.8720
  115OSM   H12G12086   0.130   5.510   9.571  0.9268  0.0919 -1.7638
  115OSM   C13F12087   0.207   5.332   9.487  0.1856  0.0251 -0.2748
  115OSM   H13F12088   0.107   5.289   9.509 -0.3018  0.2481 -1.9739
  115OSM   H13G12089   0.288   5.259   9.510  1.3983  1.8950  1.8083
  115OSM   C14F12090   0.222   5.362   9.338  0.3311  0.0844 -0.1856
  115OSM   H14F12091   0.326   5.399   9.322 -0.0687  0.2382 -2.8015
  115OSM   H14G12092   0.156   5.440   9.294 -0.5078  0.3846  1.5094
  115OSM   C15F12093   0.211   5.240   9.243 -0.0690 -0.0241 -0.5822
  115OSM   H15F12094   0.105   5.209   9.232 -0.2345 -0.3193  1.3858
  115OSM   H15G12095   0.272   5.157   9.285 -0.5121 -0.5527 -0.9574
  115OSM   C16F12096   0.263   5.267   9.100  0.5435  0.0287  0.1645
  115OSM   H16F12097   0.373   5.280   9.108  0.5777 -0.2168  0.0955
  115OSM   H16G12098   0.225   5.366   9.067  2.2773  1.0984  1.2150
  115OSM   C17F12099   0.234   5.161   8.994 -0.2963  0.2716 -0.3882
  115OSM   H17F12100   0.129   5.168   8.959 -0.4986 -1.4530 -0.2428
  115OSM   H17G12101   0.266   5.065   9.041  1.3722  0.7707 -0.4322
  115OSM   C18F12102   0.338   5.174   8.874  0.6933 -0.0901  0.0443
  115OSM   H18F12103   0.337   5.087   8.804 -0.1686 -0.3864  0.4092
  115OSM   H18G12104   0.438   5.171   8.922  0.7376  0.5021 -0.0040
  115OSM   H18H12105   0.319   5.269   8.820  1.6691  0.3872  0.5298
  116OSM      N12106   2.540   3.426  10.860  0.0691 -1.1785  0.2761
  116OSM    C1512107   2.579   3.572  10.882 -0.0272 -0.1924 -0.5256
  116OSM   H15A12108   2.683   3.578  10.854 -0.2363  1.1557 -1.0709
  116OSM   H15B12109   2.558   3.603  10.983 -0.8097  0.3729 -0.8514
  116OSM   H15C12110   2.524   3.637  10.816 -0.4187  2.3568  2.1063
  116OSM    C1412111   2.386   3.417  10.877  0.2339  0.0222  0.5609
  116OSM   H14A12112   2.352   3.454  10.973 -1.0654  0.3044  0.0187
  116OSM   H14B12113   2.360   3.313  10.868 -0.3021 -0.0449  2.3163
  116OSM   H14C12114   2.346   3.482  10.801  0.8178 -1.2598 -0.8729
  116OSM    C1312115   2.567   3.393  10.721 -0.3001 -0.6093 -0.0027
  116OSM   H13A12116   2.673   3.395  10.700 -0.4217 -0.4904 -0.6082
  116OSM   H13B12117   2.521   3.464  10.654  1.4382 -0.8652 -1.5434
  116OSM   H13C12118   2.530   3.292  10.709  0.8804 -0.9273 -1.3069
  116OSM    C1212119   2.610   3.325  10.952  0.9143  0.6380  0.0483
  116OSM   H12A12120   2.594   3.349  11.056  1.4893 -2.4006  0.9390
  116OSM   H12B12121   2.715   3.344  10.936  0.8673 -0.4759 -2.0565
  116OSM    C1112122   2.571   3.174  10.929  0.2881 -0.2127 -0.5769
  116OSM   H11A12123   2.636   3.116  10.998  1.1998  1.6131  0.1631
  116OSM   H11B12124   2.592   3.130  10.828  1.0383 -0.4401 -0.3311
  116OSM      P12125   2.372   3.020  10.975  0.4904  0.1588  0.2896
  116OSM    O1312126   2.449   2.935  11.065  0.1768 -0.3678  0.3924
  116OSM    O1412127   2.229   3.027  11.006 -0.3278 -0.1095  0.3036
  116OSM    O1112128   2.378   2.965  10.833 -0.4810  0.2383 -0.7135
  116OSM    O1212129   2.433   3.163  10.970 -0.4476 -0.7558  0.0270
  116OSM    C1S12130   2.335   2.828  10.799  0.6970 -0.7801 -0.5266
  116OSM    H1S12131   2.239   2.804  10.848  1.0640  0.5419  0.9364
  116OSM    H1T12132   2.406   2.753  10.840  1.0307 -0.4532 -0.4866
  116OSM     NF12133   2.259   2.681  10.621 -0.3181 -0.1851 -0.3214
  116OSM    HNF12134   2.314   2.603  10.592  2.6259  1.4433  0.5117
  116OSM    C2S12135   2.332   2.810  10.651 -1.1876  0.6932  0.1820
  116OSM    H2S12136   2.265   2.885  10.605 -2.1195 -1.2328 -1.7600
  116OSM    C3S12137   2.471   2.829  10.589  0.0572  0.1285 -0.0757
  116OSM    H3S12138   2.528   2.748  10.639 -2.5118 -1.2055  0.8687
  116OSM     O312139   2.518   2.966  10.607 -0.3416  0.9512 -0.1041
  116OSM    HO312140   2.476   3.001  10.686 -0.7165  2.4991 -0.9391
  116OSM    C4S12141   2.470   2.806  10.443  0.3010  0.2159  0.0001
  116OSM    H4S12142   2.463   2.697  10.432 -0.4821 -0.0428  2.4435
  116OSM    C5S12143   2.467   2.882  10.334 -0.5201  0.4748  0.2969
  116OSM    H5S12144   2.473   2.991  10.348  0.7362  0.6256 -1.1899
  116OSM    C6S12145   2.462   2.826  10.196 -1.4712  0.5497 -0.3207
  116OSM    H6S12146   2.398   2.735  10.203  1.3927 -1.4579  3.4419
  116OSM    H6T12147   2.561   2.796  10.155 -1.5105 -0.2436  0.1384
  116OSM    C7S12148   2.386   2.928  10.112 -0.7501 -0.1760  0.4479
  116OSM    H7S12149   2.427   3.031  10.109  1.4216 -0.9931 -1.4729
  116OSM    H7T12150   2.290   2.943  10.166 -0.3928 -0.8834  1.2977
  116OSM    C8S12151   2.365   2.874   9.968 -0.4513  0.2129  0.1113
  116OSM    H8S12152   2.279   2.804   9.966 -0.9297  0.6677  2.0322
  116OSM    H8T12153   2.459   2.825   9.935  0.0115 -0.2633  2.0045
  116OSM    C9S12154   2.337   2.997   9.879 -0.7043 -0.4630 -0.8309
  116OSM    H9S12155   2.418   3.071   9.896  1.5314 -2.8489 -0.4864
  116OSM    H9T12156   2.249   3.052   9.918  1.8440  1.4612  2.7949
  116OSM   C10S12157   2.334   2.969   9.733 -0.0221 -0.1249  0.1686
  116OSM   H10S12158   2.273   2.878   9.715 -0.8807  0.7300 -1.5557
  116OSM   H10T12159   2.439   2.950   9.701 -0.6337 -2.0247 -0.8775
  116OSM   C11S12160   2.262   3.080   9.647  0.1634  0.1431  0.2309
  116OSM   H11S12161   2.316   3.176   9.667 -1.4232  1.8867 -3.0144
  116OSM   H11T12162   2.158   3.082   9.686  0.9685 -2.7716  2.9246
  116OSM   C12S12163   2.258   3.048   9.496  0.2605  0.8440  0.1172
  116OSM   H12S12164   2.231   2.942   9.477 -1.7438  1.0924  1.2996
  116OSM   H12T12165   2.354   3.068   9.444  0.8855 -0.3055  0.8071
  116OSM   C13S12166   2.152   3.133   9.425 -0.1533 -0.3889 -0.6416
  116OSM   H13S12167   2.196   3.233   9.403 -1.0429 -0.5506 -3.5927
  116OSM   H13T12168   2.060   3.145   9.486  1.0054 -0.2078  1.1579
  116OSM   C14S12169   2.111   3.084   9.284 -0.3210  0.3140 -0.4081
  116OSM   H14S12170   2.089   2.975   9.283  0.1495  0.1979  0.6750
  116OSM   H14T12171   2.204   3.088   9.223  1.2268 -1.5005  1.6737
  116OSM   C15S12172   1.996   3.170   9.222  0.2178 -0.0887 -0.2332
  116OSM   H15S12173   2.025   3.276   9.240 -0.4216  0.5114 -2.4529
  116OSM   H15T12174   1.906   3.172   9.287 -0.3146  1.2267 -0.9669
  116OSM   C16S12175   1.960   3.141   9.080  0.5068  0.0823  0.4755
  116OSM   H16S12176   2.062   3.139   9.036  2.0618 -0.3963  3.7694
  116OSM   H16T12177   1.895   3.217   9.032  3.3056  1.6389 -1.1585
  116OSM   C17S12178   1.910   3.000   9.060 -0.4353  0.2585  0.0242
  116OSM   H17S12179   1.810   2.998   9.109  0.3392 -2.4900  1.7390
  116OSM   H17T12180   1.972   2.928   9.119  0.3107 -0.0848 -1.1558
  116OSM   C18S12181   1.899   2.952   8.910 -0.2587 -0.8112  0.2252
  116OSM   H18S12182   1.872   2.844   8.911  0.8666 -1.1315  2.4864
  116OSM   H18T12183   1.994   2.970   8.856 -2.4182 -0.3577 -3.7561
  116OSM   H18U12184   1.816   3.003   8.857  0.6269  0.2519 -0.1633
  116OSM    C1F12185   2.127   2.678  10.633 -0.3490  0.0231 -0.0716
  116OSM     OF12186   2.060   2.777  10.649  0.0949 -0.1036 -0.3455
  116OSM    C2F12187   2.062   2.549  10.598 -0.0905 -0.4042  0.1810
  116OSM    H2F12188   2.070   2.496  10.695 -1.2315  0.2613  0.6577
  116OSM    H2G12189   2.128   2.497  10.526 -0.6276 -1.2521  0.2802
  116OSM    C3F12190   1.916   2.549  10.551  0.2448  0.1921  0.0841
  116OSM    H3F12191   1.895   2.621  10.469  1.3571 -0.9237 -1.2691
  116OSM    H3G12192   1.855   2.565  10.642  1.9947  0.5118  1.2427
  116OSM    C4F12193   1.887   2.408  10.490 -0.8655  0.4441  0.3142
  116OSM    H4F12194   1.778   2.387  10.501 -1.2100  2.7274  1.9647
  116OSM    H4G12195   1.939   2.324  10.540  0.9933  1.0463 -0.5087
  116OSM    C5F12196   1.916   2.411  10.336 -0.2500  0.0584 -0.1543
  116OSM    H5F12197   2.014   2.457  10.309  0.0910 -0.7398 -0.3015
  116OSM    H5G12198   1.834   2.470  10.291 -1.0201  0.8254  2.0906
  116OSM    C6F12199   1.913   2.276  10.272  0.3491  0.0866  0.3386
  116OSM    H6F12200   1.874   2.208  10.350  0.6637 -1.4032 -0.7539
  116OSM    H6G12201   2.017   2.242  10.249  1.9223  2.1174  3.6355
  116OSM    C7F12202   1.822   2.279  10.150  0.5969  0.3267  0.4744
  116OSM    H7F12203   1.869   2.333  10.065 -0.3113  0.8953  0.3197
  116OSM    H7G12204   1.727   2.335  10.165 -0.6454 -1.5900  0.0525
  116OSM    C8F12205   1.766   2.137  10.107 -0.6698  0.2335 -0.1025
  116OSM    H8F12206   1.680   2.157  10.040  0.1219  0.7056 -1.0179
  116OSM    H8G12207   1.738   2.075  10.194  2.5386  0.7985  1.5054
  116OSM    C9F12208   1.871   2.066  10.031 -0.3460  0.0345 -0.0629
  116OSM    H9F12209   1.932   1.999  10.093 -1.1890  0.5096  1.3349
  116OSM   C10F12210   1.897   2.075   9.903  0.1678 -0.8861  0.9512
  116OSM   H10F12211   1.990   2.025   9.872  0.8133  0.4885  0.5957
  116OSM   C11F12212   1.830   2.169   9.801  0.2535  0.1801  0.3889
  116OSM   H11F12213   1.751   2.235   9.844 -0.6119  0.6068 -1.7408
  116OSM   H11G12214   1.774   2.109   9.725  4.1737 -0.6994 -2.0586
  116OSM   C12F12215   1.933   2.249   9.724 -0.0214 -0.7420 -0.4103
  116OSM   H12F12216   2.015   2.180   9.694  1.3632 -0.7867  3.0380
  116OSM   H12G12217   1.973   2.324   9.796  0.0535 -2.3338  1.2817
  116OSM   C13F12218   1.868   2.322   9.607 -0.0217 -0.6832  0.0441
  116OSM   H13F12219   1.936   2.407   9.585  0.9883 -0.5401  3.2661
  116OSM   H13G12220   1.769   2.370   9.626  1.3262  3.2008 -1.6403
  116OSM   C14F12221   1.860   2.231   9.486  0.0543 -0.3913  0.5177
  116OSM   H14F12222   1.795   2.145   9.512 -2.4425  1.2313  0.0006
  116OSM   H14G12223   1.957   2.186   9.454 -0.1004 -0.6028  0.3478
  116OSM   C15F12224   1.803   2.298   9.361 -0.2010 -0.5457  0.3145
  116OSM   H15F12225   1.756   2.396   9.387 -0.4352 -0.8193  0.9639
  116OSM   H15G12226   1.714   2.236   9.337 -0.9124 -0.3402  2.2335
  116OSM   C16F12227   1.899   2.315   9.237  0.2388  0.3153 -0.0312
  116OSM   H16F12228   1.950   2.217   9.227 -1.9029 -1.1129  1.8093
  116OSM   H16G12229   1.962   2.405   9.252 -0.2327  0.5540  0.5605
  116OSM   C17F12230   1.817   2.330   9.104  0.0626 -0.6334  0.5733
  116OSM   H17F12231   1.731   2.399   9.122  1.5450  1.5877 -0.4299
  116OSM   H17G12232   1.779   2.231   9.068 -2.0004  0.1678  0.3872
  116OSM   C18F12233   1.904   2.394   8.990 -0.5478 -0.2049  0.5634
  116OSM   H18F12234   2.004   2.345   8.982 -1.0871 -1.3862  0.7518
  116OSM   H18G12235   1.925   2.500   9.013  0.2981 -0.3455  0.4893
  116OSM   H18H12236   1.847   2.390   8.895 -3.6732  2.4770  2.1436
  117OSM      N12237   4.892   2.039  10.864 -0.9382 -0.2990  0.3842
  117OSM    C1512238   4.890   1.911  10.940  0.6715  0.6166 -0.0706
  117OSM   H15A12239   4.977   1.847  10.933  0.0668 -0.2058 -0.2306
  117OSM   H15B12240   4.806   1.848  10.914  1.3969 -1.5679  2.4151
  117OSM   H15C12241   4.875   1.940  11.043 -1.0934  0.2950 -0.2093
  117OSM    C1412242   4.861   2.003  10.723  0.5570  0.0928  0.3720
  117OSM   H14A12243   4.840   2.093  10.666 -1.8137 -0.6806 -0.0627
  117OSM   H14B12244   4.780   1.934  10.704  1.3810 -0.6452 -0.5630
  117OSM   H14C12245   4.949   1.955  10.682 -0.4302  0.1252 -1.8855
  117OSM    C1312246   4.781   2.120  10.932 -0.1660  0.1055  0.1924
  117OSM   H13A12247   4.696   2.056  10.948 -0.1509  0.3145  1.1769
  117OSM   H13B12248   4.744   2.202  10.872  0.1860 -0.3032 -0.5915
  117OSM   H13C12249   4.811   2.158  11.028  1.8555 -0.0349 -0.3434
  117OSM    C1212250   5.024   2.116  10.883 -0.0310 -0.3579 -0.2487
  117OSM   H12A12251   5.033   2.143  10.987 -1.2816 -1.1853  0.0932
  117OSM   H12B12252   5.000   2.211  10.837 -0.9411  0.5368  1.9431
  117OSM    C1112253   5.159   2.065  10.836 -0.2591 -0.0345  0.5647
  117OSM   H11A12254   5.240   2.131  10.874 -1.0937  2.2381 -1.3753
  117OSM   H11B12255   5.165   2.075  10.725  2.8779 -1.2528  0.5397
  117OSM      P12256   5.256   1.879  11.002  0.0452 -0.0820  0.1694
  117OSM    O1312257   5.247   1.984  11.100 -0.6544 -0.5630  0.2481
  117OSM    O1412258   5.212   1.741  11.032 -0.5699 -0.4023 -0.5308
  117OSM    O1112259   5.408   1.880  10.946  0.1045  0.2270 -0.6723
  117OSM    O1212260   5.175   1.924  10.871  0.1125 -0.0075 -0.5296
  117OSM    C1S12261   5.461   1.811  10.830 -0.3378  0.1594 -0.3564
  117OSM    H1S12262   5.411   1.714  10.808  1.9202 -1.1197 -0.1767
  117OSM    H1T12263   5.568   1.797  10.857 -0.0103  2.3499 -0.3434
  117OSM     NF12264   5.466   1.839  10.577 -0.4919  1.1936 -0.0000
  117OSM    HNF12265   5.551   1.852  10.527  0.6408 -0.3765  1.4353
  117OSM    C2S12266   5.451   1.905  10.702  0.3586 -0.0450  0.3245
  117OSM    H2S12267   5.347   1.942  10.704 -0.4323 -1.9591 -1.2999
  117OSM    C3S12268   5.542   2.028  10.717  0.3243  0.6920  0.3992
  117OSM    H3S12269   5.643   1.983  10.714 -0.0995 -0.2386 -0.3590
  117OSM     O312270   5.530   2.084  10.847 -0.4083 -0.0461  0.6828
  117OSM    HO312271   5.468   2.031  10.898 -1.2803 -2.2407 -2.3816
  117OSM    C4S12272   5.517   2.131  10.609 -0.2200 -0.1404  0.2453
  117OSM    H4S12273   5.414   2.163  10.588 -0.1185 -0.3460 -0.6040
  117OSM    C5S12274   5.614   2.193  10.541 -0.8119 -0.2934  0.0308
  117OSM    H5S12275   5.715   2.181  10.585  0.6245  2.7846 -2.0437
  117OSM    C6S12276   5.608   2.301  10.429 -0.4913  0.3258 -0.1609
  117OSM    H6S12277   5.699   2.364  10.421 -0.0001 -0.2631  0.6597
  117OSM    H6T12278   5.519   2.361  10.457 -2.0668 -2.3073  0.9030
  117OSM    C7S12279   5.589   2.230  10.290  0.1402 -0.2206  0.1842
  117OSM    H7S12280   5.493   2.174  10.295 -1.3391  2.0901 -0.7159
  117OSM    H7T12281   5.677   2.168  10.261 -0.6823 -1.4039  0.1599
  117OSM    C8S12282   5.568   2.324  10.174  0.8684  0.0788  0.2587
  117OSM    H8S12283   5.657   2.385  10.148  1.6617 -2.0897 -2.5826
  117OSM    H8T12284   5.484   2.391  10.202 -0.0182  0.2028 -2.4043
  117OSM    C9S12285   5.521   2.233  10.053 -0.1521 -0.5481  0.1185
  117OSM    H9S12286   5.428   2.179  10.080 -0.9124 -0.4731 -2.1731
  117OSM    H9T12287   5.601   2.160  10.026 -0.7394 -1.2670  0.2925
  117OSM   C10S12288   5.479   2.310   9.928  0.3185  0.6706  0.6563
  117OSM   H10S12289   5.438   2.410   9.953  0.5626  1.1802 -0.8736
  117OSM   H10T12290   5.408   2.248   9.870  3.3647 -2.4558 -0.0607
  117OSM   C11S12291   5.600   2.339   9.831  0.0047 -0.5160 -0.0437
  117OSM   H11S12292   5.648   2.241   9.813 -0.4717 -1.7495  4.3554
  117OSM   H11T12293   5.665   2.415   9.879 -0.1881 -0.4574  0.1276
  117OSM   C12S12294   5.527   2.393   9.706 -0.6137  0.2516  0.3702
  117OSM   H12S12295   5.467   2.480   9.741 -0.3400  2.1629 -3.4494
  117OSM   H12T12296   5.471   2.312   9.654  1.8041 -1.0787 -0.3550
  117OSM   C13S12297   5.626   2.445   9.603 -0.1375  0.2235  0.1066
  117OSM   H13S12298   5.693   2.523   9.645  0.5785  0.6897 -1.8245
  117OSM   H13T12299   5.584   2.491   9.511 -0.1740 -0.6503 -0.3277
  117OSM   C14S12300   5.717   2.323   9.551  0.4463  0.5288  0.1396
  117OSM   H14S12301   5.772   2.271   9.632  0.9119 -0.8484 -1.0131
  117OSM   H14T12302   5.790   2.380   9.489  0.1943  1.4858  0.6987
  117OSM   C15S12303   5.645   2.214   9.468  0.4227 -0.1275  0.1359
  117OSM   H15S12304   5.583   2.146   9.530  0.7735 -0.9264 -0.3687
  117OSM   H15T12305   5.728   2.148   9.435  0.1784 -0.8360  0.9143
  117OSM   C16S12306   5.574   2.275   9.343  0.1518  0.0676  0.4186
  117OSM   H16S12307   5.649   2.340   9.292 -0.3818  0.0656 -0.3892
  117OSM   H16T12308   5.491   2.338   9.380  1.0859  1.4953  0.1909
  117OSM   C17S12309   5.528   2.173   9.246 -0.2320  0.9831 -0.1604
  117OSM   H17S12310   5.442   2.203   9.182 -1.6896 -0.3353  1.1270
  117OSM   H17T12311   5.485   2.088   9.303  1.7665  0.7738  1.1462
  117OSM   C18S12312   5.645   2.133   9.154  0.9533 -0.4832  0.9022
  117OSM   H18S12313   5.675   2.223   9.096  0.1282 -1.0110 -0.3837
  117OSM   H18T12314   5.607   2.056   9.083  0.1117  3.7168 -3.7911
  117OSM   H18U12315   5.725   2.093   9.219 -1.5691 -0.7631  4.1181
  117OSM    C1F12316   5.390   1.750  10.532  0.2799  0.9094  0.4275
  117OSM     OF12317   5.270   1.754  10.556  0.4594  0.2230  0.1291
  117OSM    C2F12318   5.439   1.651  10.428 -0.4569  0.6231 -0.3626
  117OSM    H2F12319   5.344   1.606  10.390 -0.0503 -1.7739  1.2117
  117OSM    H2G12320   5.492   1.565  10.474 -0.1412 -2.0591 -5.1089
  117OSM    C3F12321   5.528   1.713  10.321  0.6496  0.1378 -0.4572
  117OSM    H3F12322   5.572   1.632  10.258  1.0451 -2.2013  2.5846
  117OSM    H3G12323   5.611   1.765  10.372  0.8510  0.7286 -1.3568
  117OSM    C4F12324   5.455   1.819  10.236  0.2002 -0.2036  0.2153
  117OSM    H4F12325   5.449   1.920  10.281  0.1147 -0.0178 -0.2120
  117OSM    H4G12326   5.350   1.786  10.221  0.1222 -0.2174  0.7483
  117OSM    C5F12327   5.522   1.826  10.099 -0.2165  0.3966  0.5979
  117OSM    H5F12328   5.568   1.731  10.064 -2.0927 -0.3781  0.1011
  117OSM    H5G12329   5.601   1.904  10.096  0.1404  0.0249 -0.0055
  117OSM    C6F12330   5.420   1.869   9.984 -0.1895 -0.0219  0.9924
  117OSM    H6F12331   5.355   1.951  10.022 -0.4575 -1.2193  3.2311
  117OSM    H6G12332   5.351   1.783   9.971 -0.7051  0.2409  1.9315
  117OSM    C7F12333   5.505   1.908   9.859  0.3714 -0.2706  0.2054
  117OSM    H7F12334   5.552   1.812   9.829  0.1756 -0.0079 -0.9605
  117OSM    H7G12335   5.584   1.985   9.874 -1.0092  1.7588 -2.2457
  117OSM    C8F12336   5.434   1.972   9.737 -0.2217  0.1959 -0.2284
  117OSM    H8F12337   5.501   1.964   9.649 -0.0802  1.5397 -0.2671
  117OSM    H8G12338   5.429   2.083   9.731  1.6682  0.2898 -0.7718
  117OSM    C9F12339   5.301   1.901   9.703 -0.3409  0.0423  0.4143
  117OSM    H9F12340   5.268   1.809   9.754 -3.1471  0.7102 -0.0252
  117OSM   C10F12341   5.212   1.942   9.612  0.8575  0.7088 -0.1783
  117OSM   H10F12342   5.114   1.893   9.597  0.1793  2.5518 -2.3770
  117OSM   C11F12343   5.213   2.060   9.518  0.5349  0.2247  0.2051
  117OSM   H11F12344   5.293   2.135   9.538  0.5168  0.1159  0.6932
  117OSM   H11G12345   5.116   2.113   9.530  0.2179 -0.2929 -0.0591
  117OSM   C12F12346   5.238   2.031   9.369 -0.7274 -0.1732 -0.0544
  117OSM   H12F12347   5.311   1.948   9.368 -1.4585 -0.8550  1.1476
  117OSM   H12G12348   5.270   2.127   9.322  0.0812  0.1379  1.0785
  117OSM   C13F12349   5.114   1.981   9.293 -0.0949 -0.9322 -1.0718
  117OSM   H13F12350   5.034   2.058   9.304  0.4417 -0.6692  1.5456
  117OSM   H13G12351   5.073   1.887   9.336  1.5351  0.1422  3.4026
  117OSM   C14F12352   5.144   1.960   9.140  0.9468 -0.2382 -0.3850
  117OSM   H14F12353   5.198   2.051   9.105  0.5768 -0.1101 -0.6249
  117OSM   H14G12354   5.046   1.950   9.090  0.7878 -3.9841  0.4309
  117OSM   C15F12355   5.226   1.831   9.116 -0.0521 -0.3775  0.0691
  117OSM   H15F12356   5.161   1.757   9.065  1.1591 -1.0034 -0.5931
  117OSM   H15G12357   5.241   1.795   9.220  0.9967 -1.8964 -0.5813
  117OSM   C16F12358   5.354   1.844   9.034  0.0253 -0.2081 -0.0395
  117OSM   H16F12359   5.426   1.760   9.036  2.6905  1.6421 -4.2818
  117OSM   H16G12360   5.419   1.921   9.081 -0.2715 -0.5776  1.0001
  117OSM   C17F12361   5.328   1.878   8.893  0.0680 -0.4057 -0.0227
  117OSM   H17F12362   5.271   1.974   8.886 -0.6605 -0.8624 -0.5379
  117OSM   H17G12363   5.259   1.806   8.845 -0.7827 -0.4529  1.2163
  117OSM   C18F12364   5.458   1.878   8.828  1.0612  0.3477  0.2859
  117OSM   H18F12365   5.518   1.967   8.857 -3.9131  3.3783  2.6145
  117OSM   H18G12366   5.452   1.897   8.718 -1.0735  1.2534  0.5014
  117OSM   H18H12367   5.513   1.783   8.847 -0.1415 -0.2834  0.6819
  118OSM      N12368   0.508   4.441  11.303  0.5870 -0.6708  0.4598
  118OSM    C1512369   0.477   4.478  11.162 -0.6769 -1.0530 -0.0708
  118OSM   H15A12370   0.472   4.585  11.149 -2.3090 -1.0603  0.3695
  118OSM   H15B12371   0.385   4.435  11.127 -0.4814  0.7922 -3.2286
  118OSM   H15C12372   0.553   4.439  11.096 -1.2262 -2.4495  0.1023
  118OSM    C1412373   0.637   4.495  11.347  0.0989  0.1630  0.0627
  118OSM   H14A12374   0.640   4.499  11.455 -1.2509 -1.0501  0.1712
  118OSM   H14B12375   0.646   4.595  11.307 -0.5485  0.6841  1.1629
  118OSM   H14C12376   0.716   4.433  11.308  2.0392  1.3884  1.7730
  118OSM    C1312377   0.410   4.515  11.383  0.3412 -0.5517 -0.1127
  118OSM   H13A12378   0.403   4.620  11.359  0.0814  0.2148  2.8508
  118OSM   H13B12379   0.429   4.508  11.489 -1.1276  0.9927  0.3049
  118OSM   H13C12380   0.309   4.481  11.366 -1.1574  1.6490  3.3614
  118OSM    C1212381   0.499   4.293  11.317 -0.1260  0.8564  0.0465
  118OSM   H12A12382   0.398   4.260  11.294 -0.2821  0.8688  0.6857
  118OSM   H12B12383   0.512   4.264  11.420 -0.5377 -0.7014 -0.3051
  118OSM    C1112384   0.593   4.210  11.226  0.0176  0.4082  0.3719
  118OSM   H11A12385   0.570   4.245  11.123 -0.9401 -1.8029 -0.2225
  118OSM   H11B12386   0.575   4.100  11.228  0.8250  0.2440 -0.5504
  118OSM      P12387   0.838   4.160  11.173 -0.0823  0.2298  0.1457
  118OSM    O1312388   0.971   4.228  11.182  0.1522  0.3530 -0.1117
  118OSM    O1412389   0.838   4.017  11.210  0.0114 -0.0691  0.3820
  118OSM    O1112390   0.789   4.169  11.026  0.2929  0.0932  0.6174
  118OSM    O1212391   0.729   4.237  11.252  0.3352 -0.6004 -0.0391
  118OSM    C1S12392   0.873   4.141  10.918  0.5138  0.3337  0.3518
  118OSM    H1S12393   0.877   4.032  10.898 -1.8113  0.5098 -1.5752
  118OSM    H1T12394   0.973   4.188  10.924  0.2582  1.0992 -0.9006
  118OSM     NF12395   0.876   4.181  10.664 -0.0210 -0.0528 -0.5312
  118OSM    HNF12396   0.944   4.248  10.634  1.3089 -1.0928  0.0139
  118OSM    C2S12397   0.812   4.213  10.791 -0.5244  0.6726  0.8840
  118OSM    H2S12398   0.707   4.178  10.791  0.2393 -1.7961  0.6604
  118OSM    C3S12399   0.823   4.364  10.825 -0.6288 -0.6625 -0.0553
  118OSM    H3S12400   0.931   4.391  10.830 -0.3795 -0.9215 -2.7635
  118OSM     O312401   0.764   4.423  10.946 -0.1835 -0.0075  0.2835
  118OSM    HO312402   0.741   4.343  10.995  0.9812 -0.1219  0.6700
  118OSM    C4S12403   0.758   4.448  10.705 -0.2683 -0.7375  0.4992
  118OSM    H4S12404   0.819   4.470  10.616  2.5915  0.4725  2.5675
  118OSM    C5S12405   0.637   4.500  10.708 -0.7571 -0.4188 -0.2276
  118OSM    H5S12406   0.582   4.488  10.802  1.9838  1.8739  1.8675
  118OSM    C6S12407   0.571   4.578  10.599 -0.8265 -0.4130 -0.0234
  118OSM    H6S12408   0.553   4.681  10.637  2.0116 -0.0166  0.4083
  118OSM    H6T12409   0.471   4.544  10.565 -1.6549  2.3794 -0.6715
  118OSM    C7S12410   0.650   4.595  10.475 -0.0522 -0.0059  0.3838
  118OSM    H7S12411   0.693   4.500  10.434 -1.0577 -0.6302  0.7366
  118OSM    H7T12412   0.742   4.655  10.495 -0.1172  0.7894 -1.5059
  118OSM    C8S12413   0.579   4.661  10.350  0.4742  0.2733 -0.3722
  118OSM    H8S12414   0.533   4.757  10.383  3.6787  1.1023  2.2135
  118OSM    H8T12415   0.494   4.591  10.338 -0.5551  0.9849  2.0680
  118OSM    C9S12416   0.667   4.665  10.225 -0.1687 -0.3917 -0.1241
  118OSM    H9S12417   0.721   4.570  10.206  0.4686  0.3315 -2.1463
  118OSM    H9T12418   0.738   4.748  10.246 -0.4015 -0.4106  0.7778
  118OSM   C10S12419   0.587   4.689  10.102 -0.6401 -0.3783  0.5143
  118OSM   H10S12420   0.541   4.790  10.097 -0.1440 -0.1793 -0.2108
  118OSM   H10T12421   0.518   4.605  10.077  0.0500 -1.1479  1.1414
  118OSM   C11S12422   0.680   4.701   9.977  0.1384 -0.5754 -0.1864
  118OSM   H11S12423   0.772   4.638   9.974  0.7534  0.3245 -1.7897
  118OSM   H11T12424   0.723   4.803   9.969 -1.4848  0.0868 -0.8907
  118OSM   C12S12425   0.589   4.716   9.850  0.0282  0.4207  0.2456
  118OSM   H12S12426   0.510   4.791   9.873 -1.4622 -0.8751 -0.4592
  118OSM   H12T12427   0.544   4.614   9.843 -0.2346  0.5621 -0.1270
  118OSM   C13S12428   0.669   4.772   9.724 -0.7143  0.3398 -0.2589
  118OSM   H13S12429   0.763   4.715   9.704  0.3721  1.7085  0.7532
  118OSM   H13T12430   0.710   4.869   9.761 -1.0486  0.2696  0.2930
  118OSM   C14S12431   0.600   4.778   9.592  1.0592  0.0986 -0.5109
  118OSM   H14S12432   0.522   4.857   9.596  0.4645 -0.5074  0.0173
  118OSM   H14T12433   0.559   4.678   9.570 -1.3236  1.0398 -0.6582
  118OSM   C15S12434   0.696   4.818   9.481  0.2099 -0.0199 -0.3110
  118OSM   H15S12435   0.734   4.719   9.447 -0.6493 -0.2187 -0.7043
  118OSM   H15T12436   0.778   4.889   9.506  0.0108  1.1134 -2.6630
  118OSM   C16S12437   0.630   4.899   9.368 -0.4513  0.0647 -0.2934
  118OSM   H16S12438   0.584   4.992   9.409  0.7857  0.9409 -0.8375
  118OSM   H16T12439   0.551   4.840   9.316  0.8669 -1.0310 -1.1257
  118OSM   C17S12440   0.719   4.943   9.254  0.5868 -0.1383 -0.0676
  118OSM   H17S12441   0.792   4.867   9.215 -0.9548 -3.1407  2.4459
  118OSM   H17T12442   0.783   5.017   9.306  2.3810 -0.4267 -1.7441
  118OSM   C18S12443   0.635   5.014   9.140 -0.1596  0.2500  0.4699
  118OSM   H18S12444   0.577   4.936   9.085 -1.1237  0.4825  1.1352
  118OSM   H18T12445   0.701   5.071   9.070 -0.2308  0.3439  0.4798
  118OSM   H18U12446   0.558   5.081   9.182 -0.9645  0.5924 -1.4289
  118OSM    C1F12447   0.873   4.063  10.608  0.2212 -0.6577  0.1650
  118OSM     OF12448   0.793   3.976  10.644 -0.5641  0.3554  0.1489
  118OSM    C2F12449   0.961   4.052  10.489 -0.4307  0.1482 -0.4179
  118OSM    H2F12450   1.069   4.058  10.514 -0.3403 -0.4638 -0.6407
  118OSM    H2G12451   0.929   4.135  10.423 -1.7360 -0.9204 -1.1768
  118OSM    C3F12452   0.933   3.919  10.412 -0.1656  0.2097 -0.9947
  118OSM    H3F12453   0.825   3.916  10.384 -0.6543 -1.9901  0.8698
  118OSM    H3G12454   0.954   3.835  10.481  1.0595 -0.1675 -1.7791
  118OSM    C4F12455   1.021   3.900  10.289  0.1126 -0.5391  0.1857
  118OSM    H4F12456   1.121   3.866  10.322  0.4561  2.1461  2.2738
  118OSM    H4G12457   1.038   3.998  10.240  0.0495 -0.1840  0.8598
  118OSM    C5F12458   0.969   3.797  10.185 -0.2872 -0.1304  0.2477
  118OSM    H5F12459   0.861   3.823  10.180 -0.8469 -2.4474 -1.3697
  118OSM    H5G12460   0.984   3.698  10.233  0.8200  1.1067  2.6270
  118OSM    C6F12461   1.055   3.790  10.057  0.6491  0.0126  0.4628
  118OSM    H6F12462   1.038   3.694  10.004  1.7823  0.1651 -0.2077
  118OSM    H6G12463   1.163   3.809  10.079  0.8427  0.0143 -0.4522
  118OSM    C7F12464   1.008   3.890   9.951  0.1971 -0.4559  0.1222
  118OSM    H7F12465   1.032   3.995   9.981  1.3547 -1.2786  2.3576
  118OSM    H7G12466   0.898   3.881   9.940  0.2286  0.5684 -1.2990
  118OSM    C8F12467   1.062   3.863   9.810 -0.4371 -0.2089  0.1487
  118OSM    H8F12468   1.042   3.756   9.785 -1.1620  0.3569 -1.8876
  118OSM    H8G12469   1.171   3.874   9.829 -0.3209  0.6710 -0.9307
  118OSM    C9F12470   0.998   3.956   9.707 -0.7199  0.0922  0.8118
  118OSM    H9F12471   0.888   3.959   9.715 -0.6008  1.6942  2.7819
  118OSM   C10F12472   1.068   4.025   9.612  0.1929  0.2488  0.4586
  118OSM   H10F12473   1.010   4.102   9.558 -0.9859 -0.9906 -0.1238
  118OSM   C11F12474   1.211   4.036   9.589  0.0272  0.1391 -0.0966
  118OSM   H11F12475   1.247   3.941   9.634 -0.1194 -1.3329 -2.8512
  118OSM   H11G12476   1.248   4.132   9.632  0.7496 -1.0560  2.0921
  118OSM   C12F12477   1.236   4.040   9.437  0.3075 -0.2815 -0.8359
  118OSM   H12F12478   1.183   3.956   9.387  1.9097 -1.2716 -0.9433
  118OSM   H12G12479   1.345   4.025   9.417  0.1928 -2.0677 -0.2887
  118OSM   C13F12480   1.203   4.169   9.365  0.4748  0.0289  0.0386
  118OSM   H13F12481   1.265   4.253   9.402  1.1445  0.1328 -1.2486
  118OSM   H13G12482   1.100   4.210   9.378  0.0107  0.3770 -3.7126
  118OSM   C14F12483   1.227   4.158   9.216  0.3847 -0.1987  0.6438
  118OSM   H14F12484   1.151   4.092   9.170 -0.9801  1.0244  1.0530
  118OSM   H14G12485   1.326   4.109   9.203  0.1763 -1.0308  2.0256
  118OSM   C15F12486   1.231   4.297   9.141 -0.8494  0.1408  0.1527
  118OSM   H15F12487   1.144   4.362   9.167 -1.8172 -0.4678 -1.4215
  118OSM   H15G12488   1.231   4.273   9.033  3.0522 -0.7647  0.2184
  118OSM   C16F12489   1.364   4.376   9.161  0.3250  0.4036 -0.3078
  118OSM   H16F12490   1.449   4.306   9.147  0.3133  0.0241  1.2489
  118OSM   H16G12491   1.375   4.405   9.268  0.6679 -0.2103 -0.1753
  118OSM   C17F12492   1.383   4.494   9.069 -0.3359 -0.5358 -0.1441
  118OSM   H17F12493   1.480   4.541   9.094  1.0644 -3.0123 -0.5956
  118OSM   H17G12494   1.293   4.559   9.066  0.1528  0.0987 -1.2489
  118OSM   C18F12495   1.393   4.460   8.919  0.7166  0.7332 -0.2256
  118OSM   H18F12496   1.296   4.419   8.886  0.7317  0.4656  0.0581
  118OSM   H18G12497   1.471   4.386   8.893  2.0970  1.6753  1.0452
  118OSM   H18H12498   1.402   4.556   8.863 -0.7181  1.2290  0.3443
  119OSM      N12499   1.368   3.263  11.254 -0.5074  0.0819  0.6804
  119OSM    C1512500   1.284   3.356  11.332 -1.0189  0.3708 -0.1386
  119OSM   H15A12501   1.177   3.362  11.318 -0.9412 -0.0350 -0.9587
  119OSM   H15B12502   1.323   3.457  11.326  0.4788 -0.1329  0.6057
  119OSM   H15C12503   1.288   3.323  11.435  1.9824 -0.2941 -0.3692
  119OSM    C1412504   1.512   3.288  11.276 -0.0398 -0.1426  0.1354
  119OSM   H14A12505   1.568   3.207  11.232  0.0688  1.2718 -2.5813
  119OSM   H14B12506   1.536   3.294  11.381  0.2061 -1.0187  0.1360
  119OSM   H14C12507   1.546   3.382  11.234  3.1163 -0.5395  1.4750
  119OSM    C1312508   1.328   3.118  11.274 -0.1297 -0.3140  0.0301
  119OSM   H13A12509   1.340   3.086  11.376 -0.6904  0.9281  0.4942
  119OSM   H13B12510   1.388   3.051  11.214  0.8260  0.5644 -0.0355
  119OSM   H13C12511   1.224   3.098  11.254 -0.4800 -1.0499  2.3052
  119OSM    C1212512   1.346   3.305  11.106 -0.0637 -0.1103 -0.1558
  119OSM   H12A12513   1.369   3.409  11.088  1.6563 -0.4554 -0.1581
  119OSM   H12B12514   1.240   3.291  11.093 -0.4058  1.1452  1.0360
  119OSM    C1112515   1.410   3.223  10.990 -0.6906 -0.3607 -0.2956
  119OSM   H11A12516   1.519   3.206  11.005 -1.2323 -2.6021  1.6630
  119OSM   H11B12517   1.390   3.298  10.911 -2.0962  0.2990  0.6427
  119OSM      P12518   1.394   2.956  10.965 -0.5129  0.2758  0.0310
  119OSM    O1312519   1.511   2.946  11.060 -0.2096 -0.3802 -0.3443
  119OSM    O1412520   1.284   2.862  10.998 -0.1062 -0.7499  0.6959
  119OSM    O1112521   1.450   2.929  10.816  0.2918 -0.1723  0.0008
  119OSM    O1212522   1.333   3.105  10.960 -0.3984  0.3717  0.2082
  119OSM    C1S12523   1.365   2.953  10.705  0.0574  0.4918  0.8269
  119OSM    H1S12524   1.379   3.057  10.670  0.3449 -0.5572 -2.6025
  119OSM    H1T12525   1.257   2.935  10.723 -0.3220  1.0733 -0.6871
  119OSM     NF12526   1.309   2.918  10.469  0.7980  0.3709  0.3084
  119OSM    HNF12527   1.214   2.887  10.468  0.2111  1.9419  1.8246
  119OSM    C2S12528   1.394   2.864  10.578  0.4947  0.5038  0.6640
  119OSM    H2S12529   1.499   2.878  10.547  0.6111  1.7376  1.5741
  119OSM    C3S12530   1.378   2.708  10.601 -0.1211 -0.2431  0.0567
  119OSM    H3S12531   1.273   2.681  10.625 -0.1424  1.1941  1.8212
  119OSM     O312532   1.457   2.660  10.711  0.5833 -0.2283  0.5467
  119OSM    HO312533   1.486   2.735  10.764  0.5377 -2.2277  3.6959
  119OSM    C4S12534   1.422   2.641  10.473 -0.3161 -0.6437 -0.5002
  119OSM    H4S12535   1.332   2.629  10.412 -2.0967  2.0174  1.4117
  119OSM    C5S12536   1.537   2.590  10.434 -0.4468 -0.1607 -0.4238
  119OSM    H5S12537   1.620   2.615  10.502 -0.6568  2.0629 -0.9109
  119OSM    C6S12538   1.570   2.516  10.309 -0.0668 -0.1811  0.5662
  119OSM    H6S12539   1.617   2.421  10.340  2.2789 -0.2623 -2.6921
  119OSM    H6T12540   1.644   2.572  10.247 -0.6902 -0.0018 -0.0259
  119OSM    C7S12541   1.447   2.487  10.209  0.0580 -0.5131  0.0349
  119OSM    H7S12542   1.397   2.583  10.184 -0.2530 -0.2515  1.6103
  119OSM    H7T12543   1.364   2.444  10.269 -0.1637  1.5721  1.3371
  119OSM    C8S12544   1.484   2.414  10.077 -0.0256  0.6501 -0.1382
  119OSM    H8S12545   1.490   2.306  10.101  1.0530  0.2019 -2.2358
  119OSM    H8T12546   1.580   2.454  10.040  0.9850 -0.5792  1.0518
  119OSM    C9S12547   1.373   2.421   9.968  0.0100  0.0049  0.1427
  119OSM    H9S12548   1.298   2.503   9.979 -0.8928 -0.9158  1.1920
  119OSM    H9T12549   1.302   2.337   9.980 -1.4188  0.9005 -1.5930
  119OSM   C10S12550   1.427   2.396   9.829  1.0130 -0.2242 -0.1052
  119OSM   H10S12551   1.476   2.298   9.810 -1.8172 -1.6214 -0.9141
  119OSM   H10T12552   1.502   2.475   9.813  1.2351 -0.5029 -0.4649
  119OSM   C11S12553   1.312   2.398   9.719 -0.7108  0.5279  0.3053
  119OSM   H11S12554   1.252   2.492   9.713 -0.2063  0.8767  0.6805
  119OSM   H11T12555   1.246   2.315   9.751  0.0241  0.9301  3.1823
  119OSM   C12S12556   1.355   2.360   9.575 -0.2589 -0.7160  0.1482
  119OSM   H12S12557   1.370   2.250   9.569 -1.2322 -0.9211  1.2466
  119OSM   H12T12558   1.452   2.408   9.551 -0.7145 -0.5006 -1.4019
  119OSM   C13S12559   1.247   2.387   9.474 -0.2765 -0.0716  0.1154
  119OSM   H13S12560   1.149   2.410   9.520  0.6010  1.4883  1.2970
  119OSM   H13T12561   1.244   2.293   9.414  0.3625 -0.6060  0.8966
  119OSM   C14S12562   1.295   2.504   9.379 -0.1041  0.6184  0.0501
  119OSM   H14S12563   1.373   2.460   9.313  1.3379  4.1409 -0.8171
  119OSM   H14T12564   1.331   2.594   9.433  1.5976  1.1999 -1.9375
  119OSM   C15S12565   1.174   2.528   9.291 -0.4324 -0.4284 -1.1802
  119OSM   H15S12566   1.085   2.520   9.358  1.1270 -0.1903  1.0124
  119OSM   H15T12567   1.157   2.458   9.206 -1.9416 -1.7277  0.1322
  119OSM   C16S12568   1.162   2.667   9.218 -0.4147 -0.1519  0.0318
  119OSM   H16S12569   1.159   2.741   9.301  0.0684  0.4862 -0.5093
  119OSM   H16T12570   1.064   2.672   9.166 -0.6868 -0.9109  0.4582
  119OSM   C17S12571   1.285   2.686   9.123 -0.0177  0.0060 -0.1973
  119OSM   H17S12572   1.373   2.723   9.179 -1.5244  2.7613  0.5262
  119OSM   H17T12573   1.264   2.763   9.046  1.2493 -0.0367 -0.6020
  119OSM   C18S12574   1.315   2.558   9.040 -0.1888  0.5610  0.0178
  119OSM   H18S12575   1.224   2.533   8.982 -1.0420  2.3346  0.5059
  119OSM   H18T12576   1.348   2.466   9.094  0.8736  1.4475  0.9369
  119OSM   H18U12577   1.386   2.588   8.960 -0.1593  1.1066  0.2450
  119OSM    C1F12578   1.328   3.037  10.418 -0.7386  0.3209 -0.1856
  119OSM     OF12579   1.446   3.071  10.404  1.0002 -0.7980 -0.3702
  119OSM    C2F12580   1.211   3.117  10.381  0.1197  0.2298 -0.1976
  119OSM    H2F12581   1.215   3.216  10.432 -2.4228 -0.6180  1.8860
  119OSM    H2G12582   1.117   3.067  10.412 -0.6351  1.3552 -0.5965
  119OSM    C3F12583   1.215   3.141  10.228  1.0107  0.3683  0.0735
  119OSM    H3F12584   1.310   3.185  10.192 -0.4089  2.3233 -1.5356
  119OSM    H3G12585   1.136   3.217  10.205 -0.6307 -1.7334 -1.7074
  119OSM    C4F12586   1.185   3.015  10.140  0.5492  0.6634 -1.0647
  119OSM    H4F12587   1.088   2.974  10.174 -0.3484  3.2223 -0.3442
  119OSM    H4G12588   1.262   2.941  10.170  1.1448  1.7459  0.1553
  119OSM    C5F12589   1.185   3.041   9.994  0.3391  0.9549 -0.4691
  119OSM    H5F12590   1.291   3.051   9.964  0.2259  2.1619 -0.5048
  119OSM    H5G12591   1.132   3.136   9.971  0.8530  1.2417 -0.4642
  119OSM    C6F12592   1.121   2.928   9.918  0.0484 -0.3907 -0.1491
  119OSM    H6F12593   1.013   2.930   9.947 -0.9346 -0.7149 -3.3313
  119OSM    H6G12594   1.171   2.836   9.956  0.3832  0.1491  0.7257
  119OSM    C7F12595   1.121   2.941   9.770 -0.1570  0.4299  0.3280
  119OSM    H7F12596   1.227   2.959   9.738  0.0445 -0.7183  0.3141
  119OSM    H7G12597   1.059   3.030   9.747 -0.0089  0.4469 -0.0118
  119OSM    C8F12598   1.069   2.815   9.694 -0.3571 -0.2893 -0.7500
  119OSM    H8F12599   1.142   2.735   9.719  1.6091  1.5616 -0.3177
  119OSM    H8G12600   1.080   2.837   9.586 -2.3482  1.0115 -0.7400
  119OSM    C9F12601   0.929   2.764   9.727 -0.1027 -0.4288  0.8606
  119OSM    H9F12602   0.908   2.768   9.835  3.4682  1.9247  1.6442
  119OSM   C10F12603   0.836   2.730   9.643  0.1051 -0.2024  0.1329
  119OSM   H10F12604   0.742   2.696   9.688 -1.8826  2.5947 -1.5571
  119OSM   C11F12605   0.835   2.719   9.495  0.5357 -0.8409 -0.7555
  119OSM   H11F12606   0.817   2.614   9.464 -1.0588 -1.2181  1.2559
  119OSM   H11G12607   0.930   2.756   9.449  0.6349 -1.6089 -1.1877
  119OSM   C12F12608   0.708   2.797   9.440 -0.2231 -0.4670  0.4000
  119OSM   H12F12609   0.717   2.895   9.493  0.2671  0.7715 -1.8256
  119OSM   H12G12610   0.608   2.764   9.474 -1.6068  1.6128 -1.3108
  119OSM   C13F12611   0.725   2.829   9.289  0.3235 -0.3284 -0.2881
  119OSM   H13F12612   0.824   2.876   9.272 -0.4426  1.9307  1.1883
  119OSM   H13G12613   0.654   2.912   9.267  0.7077  0.1805  0.3658
  119OSM   C14F12614   0.711   2.711   9.200 -0.3785 -0.2824 -0.4652
  119OSM   H14F12615   0.618   2.660   9.233 -2.6883  3.7737  0.0569
  119OSM   H14G12616   0.798   2.642   9.206 -1.7245 -2.0157  0.0247
  119OSM   C15F12617   0.662   2.747   9.058 -0.9477  0.0078 -0.0720
  119OSM   H15F12618   0.733   2.823   9.018  1.1381 -1.8666 -0.1250
  119OSM   H15G12619   0.561   2.792   9.070 -0.4873  0.9902  0.2107
  119OSM   C16F12620   0.658   2.625   8.970 -0.7035 -0.8746  0.2094
  119OSM   H16F12621   0.591   2.549   9.014 -0.3769 -1.0430  0.4097
  119OSM   H16G12622   0.763   2.589   8.971 -0.2561  0.2777 -1.0872
  119OSM   C17F12623   0.614   2.640   8.826 -0.0466  0.5552  0.3251
  119OSM   H17F12624   0.706   2.671   8.771 -0.3670  2.7192  0.8972
  119OSM   H17G12625   0.538   2.720   8.809 -1.9486 -1.8355 -4.0422
  119OSM   C18F12626   0.558   2.509   8.766 -0.2846  0.0507  0.1788
  119OSM   H18F12627   0.548   2.524   8.657 -2.0324  2.7043  0.6120
  119OSM   H18G12628   0.459   2.487   8.811 -0.1282 -2.7055 -0.6660
  119OSM   H18H12629   0.629   2.426   8.782  0.6001  0.7643  0.0374
  120OSM      N12630   2.409   0.613  10.578 -0.1786  0.3514 -0.1109
  120OSM    C1512631   2.403   0.509  10.674 -0.0441  0.1487  0.6795
  120OSM   H15A12632   2.420   0.538  10.777 -0.6280  0.8403  0.5864
  120OSM   H15B12633   2.479   0.440  10.639  0.0708 -0.0601  1.3214
  120OSM   H15C12634   2.314   0.449  10.674 -1.3369  1.9494  2.1165
  120OSM    C1412635   2.289   0.701  10.582 -0.1481  0.0918 -0.1994
  120OSM   H14A12636   2.267   0.752  10.675 -1.2475 -0.7981  0.0461
  120OSM   H14B12637   2.197   0.644  10.578  0.6480 -1.2320 -0.1471
  120OSM   H14C12638   2.298   0.770  10.499 -0.2401  2.0596  1.3326
  120OSM    C1312639   2.529   0.698  10.593 -0.5803  0.1397  0.5822
  120OSM   H13A12640   2.619   0.645  10.567 -0.5994  1.3612 -2.3199
  120OSM   H13B12641   2.545   0.743  10.690  1.5311  2.1252 -0.5724
  120OSM   H13C12642   2.527   0.777  10.519  0.7687 -0.8380 -0.5298
  120OSM    C1212643   2.408   0.541  10.445  0.4705 -0.4144  1.0147
  120OSM   H12A12644   2.420   0.614  10.367  0.1034 -2.1427 -0.7368
  120OSM   H12B12645   2.313   0.493  10.426 -0.0673 -0.0129  2.5475
  120OSM    C1112646   2.514   0.439  10.410 -0.6348 -0.0422  0.3898
  120OSM   H11A12647   2.607   0.485  10.449 -1.2547  0.2695  1.5393
  120OSM   H11B12648   2.520   0.432  10.299  2.6612 -0.7872  0.5161
  120OSM      P12649   2.438   0.191  10.413 -0.1698  0.1622  0.1522
  120OSM    O1312650   2.487   0.070  10.478  0.0978  0.2502  0.2792
  120OSM    O1412651   2.289   0.210  10.403 -0.4633 -0.2193 -0.0167
  120OSM    O1112652   2.515   0.194  10.273  0.9099  0.0619 -0.4976
  120OSM    O1212653   2.509   0.315  10.480  0.0313 -0.9380  0.5315
  120OSM    C1S12654   2.653   0.150  10.262 -0.0303 -0.3709  0.8094
  120OSM    H1S12655   2.672   0.065  10.331  2.1133 -1.2833 -0.8023
  120OSM    H1T12656   2.720   0.235  10.290 -0.7737  0.8852 -1.0085
  120OSM     NF12657   2.806   0.043  10.096 -0.3868  0.2026 -0.0839
  120OSM    HNF12658   2.888   0.088  10.062 -0.3656  0.4314  0.2628
  120OSM    C2S12659   2.680   0.116  10.108  0.2587 -0.1591 -0.0750
  120OSM    H2S12660   2.594   0.054  10.075 -0.1278  0.0448  0.5380
  120OSM    C3S12661   2.688   0.251  10.030  0.5474  1.0146  0.2135
  120OSM    H3S12662   2.789   0.295  10.050  0.8837  1.3905 -2.0334
  120OSM     O312663   2.593   0.351  10.073 -0.0856  0.0119  0.2861
  120OSM    HO312664   2.546   0.301  10.139  2.0189 -1.1013  1.0152
  120OSM    C4S12665   2.681   0.235   9.879  0.3176  0.7187 -0.1930
  120OSM    H4S12666   2.585   0.207   9.833  0.2352  1.8952 -0.7698
  120OSM    C5S12667   2.792   0.241   9.802 -0.0915  0.3185  0.0813
  120OSM    H5S12668   2.885   0.265   9.855 -1.1981  0.0281  2.2524
  120OSM    C6S12669   2.807   0.206   9.654  0.1564 -0.0851  0.0817
  120OSM    H6S12670   2.820   0.097   9.638  1.1954  0.1593 -0.8398
  120OSM    H6T12671   2.895   0.258   9.610 -1.1697  1.8204 -0.4635
  120OSM    C7S12672   2.687   0.251   9.578 -0.3082 -0.1890 -0.1820
  120OSM    H7S12673   2.667   0.360   9.589 -1.0992 -0.2852 -0.6370
  120OSM    H7T12674   2.592   0.203   9.609 -1.4864  1.5866 -0.8733
  120OSM    C8S12675   2.687   0.209   9.431  1.0410 -0.0550  0.0944
  120OSM    H8S12676   2.583   0.212   9.394  0.0410  0.5336  2.7181
  120OSM    H8T12677   2.726   0.106   9.415  0.0312 -0.6741  1.3671
  120OSM    C9S12678   2.761   0.307   9.338 -0.1956  0.1201 -0.1365
  120OSM    H9S12679   2.865   0.319   9.375  0.3709  1.7012 -2.0281
  120OSM    H9T12680   2.717   0.410   9.343  4.3919  2.2761  1.3392
  120OSM   C10S12681   2.738   0.270   9.195 -0.0354  0.1404 -0.1072
  120OSM   H10S12682   2.630   0.279   9.174 -0.0382  0.1916 -0.0718
  120OSM   H10T12683   2.772   0.165   9.186 -1.1589 -0.2615  0.2804
  120OSM   C11S12684   2.818   0.360   9.094 -0.6457  0.4212  0.6264
  120OSM   H11S12685   2.923   0.352   9.127 -0.6006 -0.3841  0.2895
  120OSM   H11T12686   2.786   0.466   9.111  2.3362  1.1428  2.5753
  120OSM   C12S12687   2.774   0.328   8.951 -0.0875 -0.0182  0.2366
  120OSM   H12S12688   2.669   0.358   8.932  0.0565  0.3757  0.0739
  120OSM   H12T12689   2.781   0.220   8.925 -0.0211  0.2899 -1.0695
  120OSM   C13S12690   2.871   0.393   8.850 -0.5537 -0.0154 -0.6340
  120OSM   H13S12691   2.816   0.403   8.754  1.2899 -1.2268 -1.8641
  120OSM   H13T12692   2.955   0.328   8.820  0.6423 -0.9903  4.0421
  120OSM   C14S12693   2.903   0.543   8.882  0.1940  0.5975 -0.0636
  120OSM   H14S12694   2.990   0.576   8.821  2.2951  1.1418  2.9424
  120OSM   H14T12695   2.959   0.557   8.977  0.7588  2.5142 -0.6423
  120OSM   C15S12696   2.778   0.638   8.856  0.5967 -0.6929  0.6062
  120OSM   H15S12697   2.713   0.602   8.939  0.2498 -0.5056  0.4189
  120OSM   H15T12698   2.736   0.617   8.755  0.8960  1.3967 -0.0012
  120OSM   C16S12699   2.808   0.788   8.884 -0.2667  0.3166 -0.2410
  120OSM   H16S12700   2.851   0.772   8.985  0.4937 -3.1938 -0.9993
  120OSM   H16T12701   2.714   0.847   8.883 -2.2871 -2.7380 -1.5727
  120OSM   C17S12702   2.913   0.843   8.789 -0.1700  0.1916  0.5364
  120OSM   H17S12703   2.876   0.837   8.684  0.1479  2.4737  0.2328
  120OSM   H17T12704   3.010   0.790   8.793  0.9575  2.2210  1.4448
  120OSM   C18S12705   2.938   0.994   8.807 -0.1154  0.2345  0.5297
  120OSM   H18S12706   2.848   1.051   8.775  0.2055  1.3489  1.5451
  120OSM   H18T12707   3.016   1.024   8.734 -0.6424  1.2056  0.3543
  120OSM   H18U12708   2.965   1.024   8.911 -2.2017  0.0250  1.1682
  120OSM    C1F12709   2.823  -0.080  10.145 -0.6882  0.3693 -0.6177
  120OSM     OF12710   2.721  -0.136  10.190 -0.0335 -0.4414 -0.1656
  120OSM    C2F12711   2.961  -0.142  10.138  0.0067 -0.7402 -0.5302
  120OSM    H2F12712   2.965  -0.201  10.232  0.5217 -2.1628 -1.4094
  120OSM    H2G12713   3.036  -0.060  10.141  1.1368 -1.7348 -0.7364
  120OSM    C3F12714   2.983  -0.234  10.017  0.7650  0.4343  0.3626
  120OSM    H3F12715   2.900  -0.308  10.019 -0.0154  1.2957  2.3095
  120OSM    H3G12716   3.078  -0.289  10.032  1.1744  0.8305 -0.6477
  120OSM    C4F12717   2.979  -0.162   9.880  0.6550 -0.0255 -0.0168
  120OSM    H4F12718   3.071  -0.103   9.864 -0.4926  1.1770 -2.8292
  120OSM    H4G12719   2.891  -0.094   9.870  1.5620  1.2382  0.3812
  120OSM    C5F12720   2.946  -0.274   9.779  0.1127 -0.3459  0.5076
  120OSM    H5F12721   2.844  -0.312   9.800 -0.5408  1.3520  0.6026
  120OSM    H5G12722   3.024  -0.353   9.778  0.5394  0.0155  2.3166
  120OSM    C6F12723   2.946  -0.216   9.640  0.0552  0.7339  0.3037
  120OSM    H6F12724   3.036  -0.151   9.645 -0.3388  1.3628 -0.5100
  120OSM    H6G12725   2.853  -0.158   9.626 -0.6569 -0.5073 -0.2836
  120OSM    C7F12726   2.975  -0.308   9.519  0.4377  0.0533  0.0810
  120OSM    H7F12727   2.882  -0.361   9.487  0.6441  0.2216 -0.8452
  120OSM    H7G12728   3.060  -0.369   9.555 -0.3048  0.2795  2.3193
  120OSM    C8F12729   3.027  -0.235   9.394  0.3756 -0.2735  0.0810
  120OSM    H8F12730   3.115  -0.172   9.419  0.4487  0.0406 -0.9074
  120OSM    H8G12731   2.947  -0.166   9.361 -0.7317 -1.8074 -0.5193
  120OSM    C9F12732   3.064  -0.324   9.276 -0.3230 -0.6440  0.1668
  120OSM    H9F12733   3.149  -0.389   9.301  1.8574  2.4441  1.4170
  120OSM   C10F12734   2.992  -0.342   9.162 -0.8940  0.2734 -0.1568
  120OSM   H10F12735   3.038  -0.405   9.084  1.7146 -0.1599  1.6298
  120OSM   C11F12736   2.866  -0.283   9.127 -0.1619  0.5671 -0.0223
  120OSM   H11F12737   2.807  -0.259   9.219 -0.6534 -2.1114  0.4592
  120OSM   H11G12738   2.798  -0.363   9.089 -2.8072  3.1825 -1.1579
  120OSM   C12F12739   2.869  -0.168   9.030 -0.4481  0.6645 -0.0237
  120OSM   H12F12740   2.929  -0.090   9.081 -2.5522  0.8761  2.3381
  120OSM   H12G12741   2.770  -0.122   9.008 -0.8203  0.8101  1.8105
  120OSM   C13F12742   2.935  -0.202   8.894 -0.1920  0.1124 -0.4045
  120OSM   H13F12743   2.872  -0.267   8.829 -2.3860  1.0323  0.6917
  120OSM   H13G12744   3.033  -0.252   8.906 -0.9666 -1.9559 -1.9747
  120OSM   C14F12745   2.957  -0.064   8.822  0.4417  0.2682 -1.1251
  120OSM   H14F12746   3.031  -0.001   8.877 -0.0085 -0.1725  0.0084
  120OSM   H14G12747   2.857  -0.017   8.833 -0.5056 -2.0687  1.2899
  120OSM   C15F12748   3.006  -0.067   8.675 -0.1582  0.2509 -0.6539
  120OSM   H15F12749   2.925  -0.121   8.622 -0.8372 -1.1042  1.5862
  120OSM   H15G12750   3.101  -0.121   8.658 -0.0441  0.1484  0.2296
  120OSM   C16F12751   3.023   0.083   8.621 -0.2468 -0.2578  0.1111
  120OSM   H16F12752   3.074   0.072   8.522  1.2519 -0.7247  0.8936
  120OSM   H16G12753   3.096   0.132   8.690  0.4218  0.5116 -1.1069
  120OSM   C17F12754   2.888   0.147   8.593 -0.3061 -0.4347  0.2240
  120OSM   H17F12755   2.845   0.176   8.691  1.1811  0.8140  0.5372
  120OSM   H17G12756   2.813   0.076   8.552  0.9750 -0.0879 -3.0749
  120OSM   C18F12757   2.892   0.278   8.510 -0.3944  0.7482 -0.2515
  120OSM   H18F12758   2.789   0.320   8.501 -1.0585 -0.0412  2.6687
  120OSM   H18G12759   2.940   0.266   8.410 -0.8114  1.5048 -0.5516
  120OSM   H18H12760   2.959   0.355   8.554  1.6047 -0.9566 -0.1539
  121OSM      N12761   6.626   3.896  11.194  0.0133 -0.5623  0.3652
  121OSM    C1512762   6.694   3.936  11.073  0.0150 -0.0503  0.0120
  121OSM   H15A12763   6.784   3.879  11.054 -0.2885  0.0449 -1.9392
  121OSM   H15B12764   6.739   4.033  11.090 -0.5896  0.3878 -0.7830
  121OSM   H15C12765   6.623   3.931  10.992 -0.1130  0.3329  0.0940
  121OSM    C1412766   6.508   3.990  11.210 -0.5874  0.6955 -0.0152
  121OSM   H14A12767   6.455   4.011  11.119  1.4616  1.6382 -1.0689
  121OSM   H14B12768   6.549   4.086  11.240  0.0666  1.5796 -3.3379
  121OSM   H14C12769   6.437   3.964  11.287 -1.7931  0.3797 -1.2034
  121OSM    C1312770   6.583   3.753  11.185 -0.2840 -0.1965 -1.1714
  121OSM   H13A12771   6.536   3.723  11.092 -2.8708  0.8319 -0.2991
  121OSM   H13B12772   6.517   3.731  11.268  0.9212 -1.2978 -0.4600
  121OSM   H13C12773   6.663   3.684  11.205  0.8212  1.0280 -1.2899
  121OSM    C1212774   6.720   3.922  11.320 -0.6346  0.1810 -0.5081
  121OSM   H12A12775   6.662   3.899  11.408 -0.3977  0.0237 -0.3923
  121OSM   H12B12776   6.744   4.027  11.320  2.5253 -0.3220  3.1168
  121OSM    C1112777   6.858   3.846  11.329 -0.0814  0.1466  0.1581
  121OSM   H11A12778   6.830   3.739  11.318 -0.3536  0.1037  1.1621
  121OSM   H11B12779   6.901   3.863  11.430 -0.2024  1.2809  0.0269
  121OSM      P12780   7.020   4.006  11.217 -0.0850 -0.0761  0.2836
  121OSM    O1312781   6.947   4.121  11.162 -0.2897 -0.4321 -0.8923
  121OSM    O1412782   7.086   4.021  11.351 -0.2574  0.1077  0.0481
  121OSM    O1112783   7.145   3.979  11.126 -0.4247 -0.2400  0.9768
  121OSM    O1212784   6.942   3.874  11.215 -0.1607 -0.1141 -0.0450
  121OSM    C1S12785   7.158   3.886  11.017  0.1922 -0.3242  0.2613
  121OSM    H1S12786   7.101   3.794  11.045 -0.2432 -0.5756 -1.3687
  121OSM    H1T12787   7.262   3.850  11.001 -0.9899 -2.7298 -3.0926
  121OSM     NF12788   7.052   3.844  10.796  0.4663  0.8314  0.3665
  121OSM    HNF12789   7.121   3.817  10.729  2.4407  1.1208  2.1935
  121OSM    C2S12790   7.084   3.946  10.893 -0.8571  0.1014  0.6570
  121OSM    H2S12791   6.989   3.991  10.931  0.8214  2.7221  2.0863
  121OSM    C3S12792   7.177   4.056  10.839  0.2811  0.8263  0.5510
  121OSM    H3S12793   7.280   4.017  10.848  0.3033  0.6047 -0.5404
  121OSM     O312794   7.189   4.169  10.922  0.0020  0.0135  0.3361
  121OSM    HO312795   7.137   4.150  11.001 -0.3653 -0.2563  0.0352
  121OSM    C4S12796   7.157   4.099  10.698  0.8819  0.9042  0.0457
  121OSM    H4S12797   7.055   4.128  10.666  1.7547  2.0275 -1.8903
  121OSM    C5S12798   7.251   4.103  10.600  0.1130  0.2701  0.2174
  121OSM    H5S12799   7.358   4.082  10.609  0.1113 -0.3055 -0.9310
  121OSM    C6S12800   7.215   4.149  10.461 -0.0858 -0.6208 -1.0736
  121OSM    H6S12801   7.180   4.253  10.483  2.4802 -0.0428  0.8741
  121OSM    H6T12802   7.129   4.089  10.427 -0.3901 -0.7086 -0.1679
  121OSM    C7S12803   7.320   4.140  10.350 -0.5067  0.0266  0.8068
  121OSM    H7S12804   7.349   4.034  10.339  1.1846  0.2716  2.4796
  121OSM    H7T12805   7.411   4.186  10.394  0.5405  0.3033 -1.4880
  121OSM    C8S12806   7.295   4.192  10.210 -0.0541  0.5279 -0.1842
  121OSM    H8S12807   7.244   4.290  10.199  1.1341  1.1666 -0.1465
  121OSM    H8T12808   7.232   4.115  10.159  1.3406 -1.0001  0.2964
  121OSM    C9S12809   7.425   4.191  10.132 -0.5028  0.3070  0.0200
  121OSM    H9S12810   7.460   4.086  10.124  1.5409  0.7701  1.8726
  121OSM    H9T12811   7.500   4.246  10.193 -0.8564  0.0849  0.6657
  121OSM   C10S12812   7.401   4.269   9.999 -0.1084  0.3951 -0.0595
  121OSM   H10S12813   7.351   4.367  10.013 -0.9700 -0.4178  3.5019
  121OSM   H10T12814   7.330   4.210   9.937  0.2731  1.6206 -1.7487
  121OSM   C11S12815   7.518   4.286   9.904 -0.0100 -0.5482  1.0087
  121OSM   H11S12816   7.578   4.193   9.896 -1.3259 -1.2960 -0.9100
  121OSM   H11T12817   7.580   4.362   9.955 -0.0278  0.3285 -0.2137
  121OSM   C12S12818   7.480   4.344   9.761 -0.3823  0.2203 -0.4416
  121OSM   H12S12819   7.570   4.391   9.715 -1.3239  1.8176 -0.7443
  121OSM   H12T12820   7.402   4.422   9.776 -0.6568 -0.1254 -0.0503
  121OSM   C13S12821   7.435   4.232   9.664  0.8211 -0.2023  0.1203
  121OSM   H13S12822   7.342   4.186   9.705  0.5366  0.5474  0.3216
  121OSM   H13T12823   7.525   4.167   9.660  0.8803 -0.1522  0.6047
  121OSM   C14S12824   7.402   4.287   9.526  0.4313 -0.1556 -0.1523
  121OSM   H14S12825   7.308   4.347   9.528  0.3503 -0.2775 -0.2492
  121OSM   H14T12826   7.372   4.204   9.458  2.7868 -2.2204  1.2103
  121OSM   C15S12827   7.505   4.373   9.465 -0.2926 -0.7119  0.0109
  121OSM   H15S12828   7.602   4.320   9.453  0.0728 -0.0126 -0.1776
  121OSM   H15T12829   7.522   4.467   9.522  1.7864  0.2126 -1.9758
  121OSM   C16S12830   7.467   4.413   9.324  0.1532  0.2370  0.7254
  121OSM   H16S12831   7.381   4.478   9.351 -1.1205 -1.6922  1.5047
  121OSM   H16T12832   7.427   4.324   9.273 -1.2304  0.8645  0.6737
  121OSM   C17S12833   7.580   4.482   9.250 -0.1824 -0.7142  0.4630
  121OSM   H17S12834   7.657   4.402   9.254  1.9346  1.1329 -1.2088
  121OSM   H17T12835   7.614   4.573   9.304  0.9017 -0.8886  0.0997
  121OSM   C18S12836   7.544   4.515   9.106  0.2269 -0.0846 -0.3240
  121OSM   H18S12837   7.636   4.536   9.048 -0.1274  0.2680 -0.7573
  121OSM   H18T12838   7.473   4.600   9.102  0.2210 -0.1310 -1.3829
  121OSM   H18U12839   7.486   4.431   9.061 -0.5430  1.4742 -2.3642
  121OSM    C1F12840   6.950   3.760  10.807  0.4413  0.0439 -0.3585
  121OSM     OF12841   6.857   3.794  10.875 -0.0547  0.2202  0.2015
  121OSM    C2F12842   6.954   3.635  10.723  0.1633 -0.0612 -0.1638
  121OSM    H2F12843   6.967   3.546  10.788 -0.8009 -1.8323 -2.2535
  121OSM    H2G12844   7.038   3.638  10.650 -0.2549 -1.1424 -0.7121
  121OSM    C3F12845   6.813   3.621  10.662  0.6599  0.3763 -0.2722
  121OSM    H3F12846   6.771   3.715  10.620  1.4315  0.9606  0.2374
  121OSM    H3G12847   6.747   3.585  10.744 -1.5253 -0.2116 -2.1879
  121OSM    C4F12848   6.802   3.515  10.552  0.5381  0.3578  0.2021
  121OSM    H4F12849   6.695   3.505  10.522  0.8581  0.8812 -1.1898
  121OSM    H4G12850   6.840   3.416  10.585 -0.3460 -0.4236 -1.0496
  121OSM    C5F12851   6.885   3.558  10.431 -0.4806  0.0122 -0.1114
  121OSM    H5F12852   6.989   3.564  10.471 -0.0601 -1.4219 -0.9433
  121OSM    H5G12853   6.866   3.657  10.382  1.3570 -0.4387 -1.8805
  121OSM    C6F12854   6.865   3.461  10.317  0.1080  0.6301  0.8903
  121OSM    H6F12855   6.759   3.459  10.283  0.3959 -3.2516 -0.2748
  121OSM    H6G12856   6.884   3.356  10.348  2.5780  0.5526 -0.6391
  121OSM    C7F12857   6.972   3.482  10.211  0.5592 -0.3180  0.3263
  121OSM    H7F12858   7.078   3.490  10.243  0.1324  0.2584  1.6548
  121OSM    H7G12859   6.955   3.578  10.157  1.0057 -0.7674 -0.6554
  121OSM    C8F12860   6.966   3.365  10.104 -0.0692 -0.5062  0.2120
  121OSM    H8F12861   6.976   3.266  10.154  0.9641 -0.9738 -0.8738
  121OSM    H8G12862   7.052   3.370  10.034 -1.2129 -0.2435 -1.2263
  121OSM    C9F12863   6.843   3.357  10.013 -0.1708  0.2391 -0.1147
  121OSM    H9F12864   6.754   3.326  10.070 -0.8836  0.7450 -0.9278
  121OSM   C10F12865   6.827   3.407   9.893 -0.0098  0.0982  0.9037
  121OSM   H10F12866   6.726   3.396   9.851  0.6218  0.2883 -0.7547
  121OSM   C11F12867   6.925   3.475   9.808  0.8036  0.1405 -0.3789
  121OSM   H11F12868   7.010   3.507   9.871  0.2738 -0.9799  0.9785
  121OSM   H11G12869   6.881   3.568   9.767 -0.2726 -0.1786 -0.0122
  121OSM   C12F12870   6.970   3.391   9.686  0.4393 -0.5927 -0.0607
  121OSM   H12F12871   6.878   3.352   9.638 -0.7314  0.0750  1.5551
  121OSM   H12G12872   7.029   3.301   9.712  0.5483 -0.7961 -0.9722
  121OSM   C13F12873   7.066   3.468   9.595  0.3530 -0.5330  0.3755
  121OSM   H13F12874   7.117   3.397   9.526  0.2556 -1.9476  1.6829
  121OSM   H13G12875   7.152   3.518   9.644 -0.0935  1.6340 -0.9315
  121OSM   C14F12876   6.997   3.573   9.508 -0.1911 -0.3296  0.0023
  121OSM   H14F12877   6.949   3.655   9.567  1.3441  1.4649 -1.1069
  121OSM   H14G12878   6.919   3.522   9.449 -1.0904  2.0508 -0.9861
  121OSM   C15F12879   7.093   3.641   9.414  0.6307  0.0151 -0.4478
  121OSM   H15F12880   7.180   3.675   9.474  0.4185  1.2522 -0.8130
  121OSM   H15G12881   7.034   3.729   9.384 -0.2984  0.2255  1.8457
  121OSM   C16F12882   7.136   3.560   9.293  0.6187  0.6704  0.1621
  121OSM   H16F12883   7.040   3.525   9.250  1.3595  0.2477 -1.2381
  121OSM   H16G12884   7.193   3.468   9.319 -3.3854 -2.0810  0.1393
  121OSM   C17F12885   7.215   3.640   9.197 -0.2716 -0.2492 -0.2762
  121OSM   H17F12886   7.317   3.649   9.240 -0.1409  1.6947 -0.8616
  121OSM   H17G12887   7.163   3.737   9.179  1.1397  0.4116 -0.9182
  121OSM   C18F12888   7.228   3.563   9.062 -0.1453  0.8669 -0.8122
  121OSM   H18F12889   7.130   3.563   9.009 -0.8103 -0.5507  0.3428
  121OSM   H18G12890   7.257   3.456   9.071 -0.4071  0.7744 -1.0439
  121OSM   H18H12891   7.307   3.599   8.993  1.8363 -3.1533 -0.9175
  122OSM      N12892   6.536   0.718  10.685 -0.2896 -0.2069 -0.1045
  122OSM    C1512893   6.524   0.602  10.599 -0.1274 -0.2356  0.5883
  122OSM   H15A12894   6.433   0.592  10.542 -0.6148  0.2409  1.2636
  122OSM   H15B12895   6.534   0.513  10.659 -1.0331 -1.7129 -1.3511
  122OSM   H15C12896   6.607   0.592  10.531 -0.4742  2.3143 -0.3186
  122OSM    C1412897   6.627   0.680  10.797 -0.0823 -0.4947 -1.2978
  122OSM   H14A12898   6.643   0.770  10.856 -1.4533  0.3686 -2.1877
  122OSM   H14B12899   6.724   0.655  10.757  1.6575  2.4756  0.6106
  122OSM   H14C12900   6.596   0.599  10.861 -2.5243  1.4473  0.2019
  122OSM    C1312901   6.608   0.822  10.605 -0.5765 -0.1142 -0.7692
  122OSM   H13A12902   6.618   0.912  10.663  2.5144 -0.0927 -1.1556
  122OSM   H13B12903   6.548   0.841  10.517 -0.3039 -0.1953 -0.9766
  122OSM   H13C12904   6.702   0.794  10.558 -0.3273 -1.1576  0.3039
  122OSM    C1212905   6.406   0.764  10.740  0.1306 -0.8927 -0.0883
  122OSM   H12A12906   6.418   0.854  10.798 -1.9612 -0.6267 -0.0108
  122OSM   H12B12907   6.366   0.688  10.805  0.5525  1.1203  2.6882
  122OSM    C1112908   6.297   0.816  10.635  0.5186 -0.0131  0.2114
  122OSM   H11A12909   6.206   0.841  10.695  0.3389 -1.1882  0.4536
  122OSM   H11B12910   6.287   0.729  10.567  2.9029  1.3893 -2.1288
  122OSM      P12911   6.336   1.067  10.634  0.3250 -0.3890 -0.0194
  122OSM    O1312912   6.199   1.100  10.677 -0.3524  0.0492  0.1484
  122OSM    O1412913   6.440   1.074  10.741  0.9103  0.0913  0.6381
  122OSM    O1112914   6.375   1.175  10.525  0.6620 -0.0314 -0.6676
  122OSM    O1212915   6.333   0.934  10.559  0.6814  0.3826 -0.5868
  122OSM    C1S12916   6.490   1.147  10.435  0.2263 -0.3932  0.1240
  122OSM    H1S12917   6.576   1.111  10.495 -0.6986 -0.7014  1.3287
  122OSM    H1T12918   6.521   1.244  10.392  3.6490 -1.5865 -0.3906
  122OSM     NF12919   6.577   1.055  10.221  0.7085  0.1499  0.1936
  122OSM    HNF12920   6.577   1.098  10.131 -1.9361  1.0907  0.5585
  122OSM    C2S12921   6.457   1.073  10.302 -0.4573 -0.7924 -0.2790
  122OSM    H2S12922   6.406   0.980  10.335  1.0762 -0.7838  2.3934
  122OSM    C3S12923   6.347   1.158  10.226  0.2354  1.1255  0.9165
  122OSM    H3S12924   6.392   1.257  10.200  0.1297  0.8004 -0.5971
  122OSM     O312925   6.223   1.176  10.293 -0.2063  0.3286  0.1197
  122OSM    HO312926   6.249   1.140  10.378  0.9457  1.1272  0.1362
  122OSM    C4S12927   6.306   1.107  10.092 -0.1953  0.0077  0.2349
  122OSM    H4S12928   6.366   1.144  10.007 -1.8044  1.8512 -0.1664
  122OSM    C5S12929   6.201   1.033  10.060 -0.4967  0.2259  0.0848
  122OSM    H5S12930   6.140   0.992  10.142  1.6809 -0.8079  1.2780
  122OSM    C6S12931   6.167   0.984   9.919  0.0431  0.2334  0.8458
  122OSM    H6S12932   6.080   1.038   9.875 -1.1423 -0.4189  2.3187
  122OSM    H6T12933   6.130   0.880   9.934 -0.5768  0.4531  0.8692
  122OSM    C7S12934   6.282   0.980   9.813 -0.4831 -0.0371  0.5522
  122OSM    H7S12935   6.368   0.927   9.858 -1.6662 -1.5083  1.1326
  122OSM    H7T12936   6.308   1.088   9.797  3.0364 -0.8507 -0.1896
  122OSM    C8S12937   6.250   0.917   9.678 -0.5676 -0.2334  0.3623
  122OSM    H8S12938   6.174   0.981   9.628  1.3096  1.5295 -0.4049
  122OSM    H8T12939   6.204   0.818   9.695  0.6592 -0.8131  0.4531
  122OSM    C9S12940   6.373   0.906   9.602 -0.7358  0.1715  0.0973
  122OSM    H9S12941   6.444   0.844   9.661  1.2284  2.2692  0.0593
  122OSM    H9T12942   6.413   1.008   9.589 -0.9628  0.1215 -1.1141
  122OSM   C10S12943   6.345   0.838   9.472  0.1837 -0.1291  0.3882
  122OSM   H10S12944   6.258   0.880   9.416  0.3888 -1.1260 -0.7210
  122OSM   H10T12945   6.309   0.737   9.500 -1.2790  0.4933  0.8802
  122OSM   C11S12946   6.467   0.832   9.381  0.2933 -0.3740 -0.1734
  122OSM   H11S12947   6.555   0.866   9.441 -0.3804  0.6089  0.2878
  122OSM   H11T12948   6.446   0.908   9.303  0.1995  1.5295  1.5956
  122OSM   C12S12949   6.503   0.695   9.311  0.8821 -0.4202  0.5526
  122OSM   H12S12950   6.508   0.621   9.394 -2.6262  0.7136  1.9412
  122OSM   H12T12951   6.600   0.704   9.258  0.7496 -0.8610  0.2265
  122OSM   C13S12952   6.396   0.658   9.206  0.4610 -0.1205  0.2536
  122OSM   H13S12953   6.390   0.734   9.124  1.5345 -1.6076 -1.2702
  122OSM   H13T12954   6.296   0.638   9.249 -0.5291 -0.6223 -2.1020
  122OSM   C14S12955   6.424   0.533   9.124  0.2775 -0.0427  0.5183
  122OSM   H14S12956   6.405   0.446   9.191  0.9515  0.6431  1.6216
  122OSM   H14T12957   6.533   0.531   9.105  0.1180  0.0697 -0.4740
  122OSM   C15S12958   6.342   0.527   8.998  1.0410 -0.2014 -0.4071
  122OSM   H15S12959   6.233   0.536   9.019  1.0162 -0.0203 -0.6152
  122OSM   H15T12960   6.356   0.423   8.960 -1.5521 -1.2801  1.2824
  122OSM   C16S12961   6.382   0.613   8.873  0.0152 -0.5467  0.1100
  122OSM   H16S12962   6.489   0.583   8.873 -0.8896 -4.1766  0.6255
  122OSM   H16T12963   6.379   0.723   8.892 -0.7453 -0.5354 -0.0422
  122OSM   C17S12964   6.301   0.577   8.747 -0.6318 -0.4825  0.5003
  122OSM   H17S12965   6.200   0.622   8.754  0.6162  2.5005  0.7637
  122OSM   H17T12966   6.288   0.466   8.745  0.8338 -0.6915  1.0565
  122OSM   C18S12967   6.370   0.644   8.626  0.5607 -0.0215 -0.0979
  122OSM   H18S12968   6.319   0.611   8.533 -1.4496 -1.6145  1.4718
  122OSM   H18T12969   6.475   0.611   8.612  0.7147  0.2270  0.4480
  122OSM   H18U12970   6.370   0.755   8.625  0.8653  0.0236  1.7737
  122OSM    C1F12971   6.697   0.995  10.255 -0.6479 -0.2612  0.1490
  122OSM     OF12972   6.720   0.965  10.373 -0.4918  0.5843  0.4248
  122OSM    C2F12973   6.801   0.993  10.149 -0.0803  0.2426 -0.2172
  122OSM    H2F12974   6.903   1.004  10.191 -0.3112 -0.0930  0.4583
  122OSM    H2G12975   6.792   1.090  10.096 -1.3006 -0.2592 -0.9711
  122OSM    C3F12976   6.802   0.876  10.053 -0.4859  0.0151  0.2425
  122OSM    H3F12977   6.780   0.779  10.103  0.8923 -0.3981  0.1039
  122OSM    H3G12978   6.899   0.879   9.999 -1.3924 -2.0002 -1.6544
  122OSM    C4F12979   6.691   0.881   9.946  0.2944  0.3324  0.6118
  122OSM    H4F12980   6.701   0.981   9.900 -0.0898  0.5748  1.0467
  122OSM    H4G12981   6.595   0.874  10.001  0.7673 -1.3909  1.2963
  122OSM    C5F12982   6.698   0.773   9.837 -0.2488 -0.3175 -0.9047
  122OSM    H5F12983   6.616   0.774   9.762 -1.1849 -1.3416  0.0662
  122OSM    H5G12984   6.713   0.676   9.890 -1.1002  1.6271  3.2894
  122OSM    C6F12985   6.812   0.787   9.728 -0.0793 -0.4979 -0.1912
  122OSM    H6F12986   6.908   0.751   9.772  1.0068  0.2502 -1.8625
  122OSM    H6G12987   6.816   0.895   9.703 -0.6796  0.1501  2.2127
  122OSM    C7F12988   6.773   0.688   9.608 -0.1047 -0.3802 -0.2046
  122OSM    H7F12989   6.698   0.745   9.548 -1.6503 -0.2399  1.7446
  122OSM    H7G12990   6.719   0.598   9.645 -1.6503 -0.0481 -1.5480
  122OSM    C8F12991   6.901   0.639   9.532 -0.9171 -0.2675 -0.1627
  122OSM    H8F12992   6.963   0.576   9.600  1.9796  2.2557 -0.2350
  122OSM    H8G12993   6.959   0.731   9.511 -1.4046 -0.4683 -2.6061
  122OSM    C9F12994   6.869   0.558   9.409 -0.3321  0.2222 -0.1240
  122OSM    H9F12995   6.793   0.483   9.436 -1.5535  0.5948 -2.3150
  122OSM   C10F12996   6.889   0.585   9.284  0.5075  0.1671 -0.0677
  122OSM   H10F12997   6.849   0.513   9.211 -1.4451  0.8528  0.2819
  122OSM   C11F12998   6.970   0.701   9.229  0.1729 -0.3422 -0.0213
  122OSM   H11F12999   7.046   0.727   9.306 -0.5113 -2.3616  1.3956
  122OSM   H11G13000   6.913   0.783   9.180 -0.2503 -0.6486 -0.0399
  122OSM   C12F13001   7.062   0.642   9.119  0.3949 -0.1722  0.2264
  122OSM   H12F13002   7.001   0.594   9.040  0.6609 -0.0210 -0.0743
  122OSM   H12G13003   7.141   0.576   9.160 -0.0177 -0.0613  1.2133
  122OSM   C13F13004   7.121   0.764   9.049  0.2919  0.5496 -0.6004
  122OSM   H13F13005   7.170   0.825   9.129 -1.1423  1.6380 -0.5111
  122OSM   H13G13006   7.040   0.830   9.010  1.1396  2.1729  0.2729
  122OSM   C14F13007   7.227   0.722   8.941 -0.1657  0.3475 -0.3274
  122OSM   H14F13008   7.165   0.668   8.866  1.2084 -0.8872 -0.6091
  122OSM   H14G13009   7.303   0.650   8.978 -0.3086 -0.1914 -1.0810
  122OSM   C15F13010   7.294   0.843   8.887  0.6989  0.1780  0.3148
  122OSM   H15F13011   7.336   0.892   8.978 -1.3602 -0.9643  1.9630
  122OSM   H15G13012   7.215   0.908   8.843  0.3036 -0.8596 -0.5377
  122OSM   C16F13013   7.395   0.808   8.774 -0.1011  0.0465 -0.7418
  122OSM   H16F13014   7.473   0.741   8.814  0.2038  1.1639  0.6165
  122OSM   H16G13015   7.449   0.899   8.739  1.2274 -0.7339 -0.7603
  122OSM   C17F13016   7.344   0.735   8.656 -0.5378 -0.0686  0.3624
  122OSM   H17F13017   7.303   0.635   8.686 -1.4807  0.3108  0.3664
  122OSM   H17G13018   7.437   0.711   8.600  0.6025 -2.7432  3.0783
  122OSM   C18F13019   7.259   0.809   8.556 -0.1342 -0.2388  0.2037
  122OSM   H18F13020   7.220   0.738   8.480  2.9550 -0.3413 -1.4237
  122OSM   H18G13021   7.330   0.863   8.490 -0.2992 -1.4555 -1.0227
  122OSM   H18H13022   7.188   0.875   8.612  0.7272  1.1567 -0.2933
  123OSM      N13023   1.354   6.308   5.867 -0.3704  0.0152  0.6460
  123OSM    C1513024   1.488   6.359   5.911  0.2315 -0.3184  0.0875
  123OSM   H15A13025   1.542   6.401   5.828 -0.7892  0.4110 -0.2246
  123OSM   H15B13026   1.554   6.288   5.959  2.3490  2.5081  1.6230
  123OSM   H15C13027   1.459   6.440   5.977 -1.4492 -0.1838 -0.7553
  123OSM    C1413028   1.360   6.246   5.728  0.2633 -0.7557  0.4870
  123OSM   H14A13029   1.423   6.159   5.725 -1.3162 -1.9404 -1.1199
  123OSM   H14B13030   1.393   6.329   5.667 -1.4350  0.4101  1.0635
  123OSM   H14C13031   1.264   6.212   5.690  1.1858 -1.1069 -1.7221
  123OSM    C1313032   1.307   6.200   5.963 -0.3030  0.6408 -0.0201
  123OSM   H13A13033   1.385   6.126   5.967  0.3721  1.2918 -0.7890
  123OSM   H13B13034   1.214   6.159   5.927  0.3653 -1.1402  0.2024
  123OSM   H13C13035   1.284   6.254   6.054 -1.6308  0.0300  0.0255
  123OSM    C1213036   1.254   6.428   5.866 -0.2031  0.1570  0.7735
  123OSM   H12A13037   1.158   6.390   5.835  0.0290  1.3577 -1.6727
  123OSM   H12B13038   1.290   6.501   5.795  0.4677 -0.3276  0.6011
  123OSM    C1113039   1.212   6.505   5.998 -0.5956 -0.3819  0.1285
  123OSM   H11A13040   1.182   6.431   6.075 -1.8186  0.6809  0.7291
  123OSM   H11B13041   1.116   6.561   5.984 -1.1829 -0.8835  1.9155
  123OSM      P13042   1.322   6.746   5.993 -0.0774 -0.5417 -0.4073
  123OSM    O1313043   1.431   6.757   5.890  0.4186 -0.2097  0.1336
  123OSM    O1413044   1.191   6.802   5.959 -0.0796  0.3590 -0.2544
  123OSM    O1113045   1.388   6.817   6.113 -0.4938 -0.3882  0.0266
  123OSM    O1213046   1.310   6.594   6.042 -0.8776 -0.1150 -0.3716
  123OSM    C1S13047   1.319   6.842   6.234 -0.2021  0.4268 -1.1177
  123OSM    H1S13048   1.211   6.816   6.228 -0.6438  1.0726  2.1808
  123OSM    H1T13049   1.333   6.951   6.247 -0.2104  0.3852 -0.7378
  123OSM     NF13050   1.346   6.816   6.474 -0.2725 -0.5401 -0.2567
  123OSM    HNF13051   1.413   6.835   6.545 -0.2042  1.8916 -0.8668
  123OSM    C2S13052   1.399   6.765   6.348 -0.2260 -0.4846  0.9649
  123OSM    H2S13053   1.370   6.660   6.329  2.2443 -0.9552 -0.6207
  123OSM    C3S13054   1.551   6.765   6.337 -0.0617 -0.2857  0.5249
  123OSM    H3S13055   1.585   6.871   6.326  0.4985 -0.5544 -0.4199
  123OSM     O313056   1.610   6.692   6.220 -0.2551 -0.7025 -0.6315
  123OSM    HO313057   1.538   6.634   6.196 -0.3314 -0.5818 -0.6929
  123OSM    C4S13058   1.604   6.705   6.460  0.1019  0.4760  0.7551
  123OSM    H4S13059   1.570   6.601   6.470 -1.5583  0.5655 -2.4987
  123OSM    C5S13060   1.685   6.755   6.556 -0.1495  0.0197  0.1700
  123OSM    H5S13061   1.690   6.865   6.560 -3.4427  0.2322  2.2677
  123OSM    C6S13062   1.727   6.684   6.681  0.7317  0.2566 -0.3518
  123OSM    H6S13063   1.832   6.706   6.708  0.0819  3.9353 -0.3077
  123OSM    H6T13064   1.715   6.574   6.682  0.8358  0.2401  1.0296
  123OSM    C7S13065   1.635   6.718   6.810 -0.4518 -0.6645 -1.0584
  123OSM    H7S13066   1.531   6.678   6.808 -0.4616 -1.0043  1.7837
  123OSM    H7T13067   1.638   6.826   6.836 -0.9334 -1.3067  2.1172
  123OSM    C8S13068   1.703   6.645   6.932 -0.4585  0.8125  0.1205
  123OSM    H8S13069   1.801   6.692   6.954  1.2025 -2.9275  1.3973
  123OSM    H8T13070   1.725   6.539   6.911 -0.4145  0.8060  0.2036
  123OSM    C9S13071   1.622   6.652   7.060 -1.0944  0.9296 -0.2300
  123OSM    H9S13072   1.540   6.577   7.053 -0.5494  0.3977 -1.1260
  123OSM    H9T13073   1.581   6.755   7.063  1.9113  2.2572 -0.7995
  123OSM   C10S13074   1.701   6.614   7.193  0.2850 -0.1245  0.2546
  123OSM   H10S13075   1.800   6.664   7.199  0.9706 -1.5648  1.4747
  123OSM   H10T13076   1.731   6.507   7.194 -0.1853 -0.2502  1.7011
  123OSM   C11S13077   1.621   6.638   7.320 -0.4119 -0.1287  0.5778
  123OSM   H11S13078   1.514   6.608   7.317 -1.1226  2.1413  1.2879
  123OSM   H11T13079   1.611   6.748   7.327  0.5930 -0.1241  2.4816
  123OSM   C12S13080   1.681   6.596   7.455  0.0326  0.1867  0.8282
  123OSM   H12S13081   1.759   6.666   7.494 -1.0200  0.5425  2.3970
  123OSM   H12T13082   1.742   6.507   7.429 -1.0161 -0.7231  1.3942
  123OSM   C13S13083   1.583   6.568   7.575 -0.4217 -0.4344  1.0465
  123OSM   H13S13084   1.507   6.495   7.540  0.2738 -0.4569 -0.5266
  123OSM   H13T13085   1.538   6.663   7.608 -1.8244 -0.5529 -0.4227
  123OSM   C14S13086   1.662   6.509   7.698 -0.2924  0.1848 -0.3258
  123OSM   H14S13087   1.748   6.577   7.714 -0.0806 -0.1814  0.1239
  123OSM   H14T13088   1.698   6.409   7.664 -0.6433 -0.1731  0.3278
  123OSM   C15S13089   1.566   6.486   7.814  0.4506 -0.2754  0.1606
  123OSM   H15S13090   1.472   6.443   7.775  0.8430 -0.7806 -0.2482
  123OSM   H15T13091   1.561   6.581   7.871  1.0853 -1.3119  2.0245
  123OSM   C16S13092   1.641   6.394   7.915  0.1999 -0.8052 -0.4609
  123OSM   H16S13093   1.734   6.441   7.954 -2.0625  1.4970  2.6228
  123OSM   H16T13094   1.657   6.300   7.858  0.4917 -0.0889 -1.5929
  123OSM   C17S13095   1.547   6.357   8.037 -0.2967  0.6328  0.2224
  123OSM   H17S13096   1.446   6.332   7.997  0.7766 -1.6799 -1.2999
  123OSM   H17T13097   1.541   6.454   8.090 -0.4489  0.0844  1.2210
  123OSM   C18S13098   1.607   6.254   8.132  0.2647 -0.3474 -0.3653
  123OSM   H18S13099   1.696   6.299   8.181 -0.0520  0.4954 -0.5518
  123OSM   H18T13100   1.625   6.161   8.074 -1.3704  0.4684 -2.3134
  123OSM   H18U13101   1.544   6.234   8.222  1.3252  1.3908  0.8231
  123OSM    C1F13102   1.217   6.825   6.497  0.9413  0.6184 -0.4555
  123OSM     OF13103   1.137   6.758   6.435  0.6220  0.0695 -0.3217
  123OSM    C2F13104   1.157   6.901   6.616 -0.5611 -0.8978 -0.0875
  123OSM    H2F13105   1.098   6.991   6.587  0.0058 -0.5670 -0.2224
  123OSM    H2G13106   1.247   6.944   6.665 -2.2453  1.5775  1.0594
  123OSM    C3F13107   1.091   6.808   6.716  0.6176  0.4546 -0.1519
  123OSM    H3F13108   1.004   6.762   6.665  0.4759 -0.1488  0.6199
  123OSM    H3G13109   1.048   6.871   6.797 -0.9081 -0.6590 -0.0362
  123OSM    C4F13110   1.196   6.704   6.773 -0.0218 -0.0312 -0.0320
  123OSM    H4F13111   1.296   6.750   6.787  1.4528 -3.6201  2.7368
  123OSM    H4G13112   1.205   6.626   6.694 -3.3813 -2.8676  2.0781
  123OSM    C5F13113   1.149   6.638   6.901  0.3489  0.6650  0.4251
  123OSM    H5F13114   1.233   6.568   6.919 -0.1352 -0.6702 -2.0217
  123OSM    H5G13115   1.061   6.573   6.877  1.7590 -0.9594 -0.5679
  123OSM    C6F13116   1.125   6.733   7.013 -0.6152 -0.1010  0.1264
  123OSM    H6F13117   1.031   6.791   7.000 -0.2005  0.0951 -2.6077
  123OSM    H6G13118   1.215   6.799   7.011 -0.4309 -0.3592 -0.9127
  123OSM    C7F13119   1.118   6.662   7.152 -0.3016  0.9481 -0.4657
  123OSM    H7F13120   1.215   6.608   7.157 -1.2439 -0.6631  1.0349
  123OSM    H7G13121   1.042   6.583   7.166  0.1764  0.9219  2.7656
  123OSM    C8F13122   1.087   6.759   7.268  0.0515 -0.1604  0.4782
  123OSM    H8F13123   1.072   6.699   7.361 -2.7867  0.8159  0.7455
  123OSM    H8G13124   0.985   6.803   7.258  0.8777  1.7370 -0.0381
  123OSM    C9F13125   1.191   6.869   7.278  0.1089  0.0502 -0.5497
  123OSM    H9F13126   1.180   6.949   7.203  1.1012 -1.3966 -2.3404
  123OSM   C10F13127   1.267   6.895   7.388  0.1862  0.2225  0.4352
  123OSM   H10F13128   1.341   6.977   7.383 -0.4590  1.0612  3.1856
  123OSM   C11F13129   1.266   6.824   7.515  0.0588 -0.4047  0.0058
  123OSM   H11F13130   1.346   6.747   7.515  0.5336  0.0432 -1.5416
  123OSM   H11G13131   1.178   6.760   7.534  0.5413 -1.1912 -0.3578
  123OSM   C12F13132   1.281   6.911   7.650 -0.4137 -0.2265  0.4645
  123OSM   H12F13133   1.382   6.957   7.650 -0.2566 -0.5341 -0.9263
  123OSM   H12G13134   1.293   6.833   7.728  1.2348  0.3873  0.8508
  123OSM   C13F13135   1.176   7.016   7.689  0.9140  0.1070 -0.1464
  123OSM   H13F13136   1.073   6.976   7.680 -0.0915  2.0246  2.0215
  123OSM   H13G13137   1.191   7.101   7.618  0.2459 -0.4449 -0.9591
  123OSM   C14F13138   1.190   7.073   7.834  0.2346 -0.4417 -0.1185
  123OSM   H14F13139   1.169   7.182   7.831  1.1008 -0.2336  0.7546
  123OSM   H14G13140   1.290   7.053   7.878 -0.6385 -2.1005  1.2194
  123OSM   C15F13141   1.076   7.016   7.926 -0.1753  0.5689 -0.7309
  123OSM   H15F13142   1.095   6.907   7.922 -0.6983  0.4793 -0.8274
  123OSM   H15G13143   0.975   7.021   7.881  0.0972 -0.2499 -1.4688
  123OSM   C16F13144   1.084   7.075   8.071 -0.1047  0.0719  0.5228
  123OSM   H16F13145   1.081   7.186   8.062 -1.0582 -0.0213 -0.6624
  123OSM   H16G13146   1.183   7.055   8.117  0.1858 -0.8530 -0.4640
  123OSM   C17F13147   0.974   7.034   8.170  0.1067  0.0380  0.6653
  123OSM   H17F13148   0.974   6.924   8.186  0.9714  0.0498  0.7990
  123OSM   H17G13149   0.879   7.064   8.122 -0.1777 -1.6378  0.1314
  123OSM   C18F13150   0.984   7.102   8.305  0.3459 -0.3716  0.3910
  123OSM   H18F13151   1.024   7.204   8.290 -0.6871 -0.2013 -1.3994
  123OSM   H18G13152   1.065   7.058   8.367 -0.4461 -1.0854  0.9456
  123OSM   H18H13153   0.891   7.097   8.365 -2.1334 -4.6703 -3.1855
  124OSM      N13154   4.535   3.648   6.135 -0.0018  0.3143 -0.0019
  124OSM    C1513155   4.549   3.506   6.114 -0.2869  0.1159 -0.5938
  124OSM   H15A13156   4.514   3.444   6.195 -0.8763 -0.3344 -1.1883
  124OSM   H15B13157   4.650   3.478   6.087  0.5062  1.7114  0.5218
  124OSM   H15C13158   4.486   3.469   6.035 -1.0874  0.6316 -0.2025
  124OSM    C1413159   4.645   3.682   6.232  0.1172 -0.2735  0.1266
  124OSM   H14A13160   4.646   3.784   6.268  1.9012  0.5289 -1.9649
  124OSM   H14B13161   4.742   3.669   6.187 -0.1008  0.8386 -0.7236
  124OSM   H14C13162   4.629   3.614   6.314 -3.4558 -0.2541 -0.3987
  124OSM    C1313163   4.553   3.711   6.003 -0.1533  0.1689  0.2426
  124OSM   H13A13164   4.648   3.689   5.958  0.1967  0.2555  0.9188
  124OSM   H13B13165   4.541   3.818   6.001 -0.1782  0.2208  1.9221
  124OSM   H13C13166   4.488   3.670   5.927 -0.0058  1.7239 -0.7618
  124OSM    C1213167   4.400   3.674   6.197  0.1294 -0.1266  0.1911
  124OSM   H12A13168   4.336   3.638   6.118 -1.4011  0.0178  1.3301
  124OSM   H12B13169   4.371   3.777   6.207 -3.2777 -0.7078 -2.2482
  124OSM    C1113170   4.347   3.610   6.327 -0.1286  0.1003 -0.5571
  124OSM   H11A13171   4.250   3.655   6.353  0.4155  0.4528  0.9921
  124OSM   H11B13172   4.412   3.641   6.411  0.3931 -0.0763 -0.8883
  124OSM      P13173   4.210   3.389   6.306 -0.0716  0.2582 -0.2116
  124OSM    O1313174   4.132   3.445   6.195 -0.5871  0.1329  0.2921
  124OSM    O1413175   4.246   3.242   6.289 -0.9063  0.5755 -0.9917
  124OSM    O1113176   4.147   3.416   6.448  0.6782 -0.3801  0.0740
  124OSM    O1213177   4.346   3.466   6.321  0.4871 -0.0983  0.3922
  124OSM    C1S13178   4.219   3.402   6.571  0.2791 -0.0081  0.4961
  124OSM    H1S13179   4.328   3.390   6.551  0.2235 -0.2999  0.3648
  124OSM    H1T13180   4.176   3.319   6.630 -0.4956  1.1432  1.5958
  124OSM     NF13181   4.296   3.521   6.781 -0.6095  0.2752  0.3558
  124OSM    HNF13182   4.256   3.484   6.865 -0.9148  2.3016  1.1665
  124OSM    C2S13183   4.211   3.530   6.659  0.0489  0.1421  0.0274
  124OSM    H2S13184   4.240   3.621   6.602 -2.8817  1.0550 -0.1279
  124OSM    C3S13185   4.057   3.549   6.693 -0.2460 -0.5737 -0.5208
  124OSM    H3S13186   4.016   3.459   6.743 -0.9301  0.2924  0.4849
  124OSM     O313187   3.981   3.559   6.574  0.2373  0.2451  0.3650
  124OSM    HO313188   4.040   3.518   6.510 -0.4391  1.9142 -1.4339
  124OSM    C4S13189   4.031   3.663   6.789 -0.4352 -0.1758 -1.2050
  124OSM    H4S13190   4.060   3.635   6.891 -4.1603  0.4531  0.1903
  124OSM    C5S13191   3.983   3.790   6.768 -0.1293 -0.2549  0.2828
  124OSM    H5S13192   3.954   3.823   6.668 -1.3919  0.0124  0.7191
  124OSM    C6S13193   3.961   3.888   6.880 -0.3966  0.2127  0.4773
  124OSM    H6S13194   3.855   3.920   6.874 -0.0597  1.1000 -2.0593
  124OSM    H6T13195   4.022   3.980   6.873 -0.9998  0.7624  2.0419
  124OSM    C7S13196   4.004   3.836   7.023 -0.0296  0.3043  0.3670
  124OSM    H7S13197   4.113   3.812   7.024  0.0042  0.2156 -1.7318
  124OSM    H7T13198   3.939   3.748   7.039  0.1906 -0.3489 -2.0153
  124OSM    C8S13199   3.967   3.943   7.128 -0.0859  0.4578  0.2065
  124OSM    H8S13200   3.858   3.963   7.127 -0.1267  0.2981  0.8957
  124OSM    H8T13201   4.025   4.035   7.103  0.6413 -0.2970 -0.9413
  124OSM    C9S13202   4.010   3.895   7.268  0.1741 -0.2507 -0.1704
  124OSM    H9S13203   4.115   3.859   7.256 -0.2764 -0.8866 -3.0118
  124OSM    H9T13204   3.957   3.802   7.297 -0.4520 -0.0190 -0.5668
  124OSM   C10S13205   3.988   4.001   7.373  0.1897  0.1755  0.3687
  124OSM   H10S13206   3.877   4.013   7.377  0.1969  0.9174 -0.8766
  124OSM   H10T13207   4.036   4.097   7.341 -0.0936  0.4130  0.6545
  124OSM   C11S13208   4.041   3.958   7.505  0.2076 -0.3316 -0.3226
  124OSM   H11S13209   4.152   3.963   7.493  0.0717 -0.5826 -1.8584
  124OSM   H11T13210   4.006   3.854   7.521  0.1981 -0.7405 -2.6364
  124OSM   C12S13211   3.987   4.058   7.614 -0.4654  0.2375  0.0117
  124OSM   H12S13212   3.878   4.037   7.611 -0.5750  0.7385  0.2910
  124OSM   H12T13213   4.019   4.158   7.576 -0.4986 -0.8798 -3.2420
  124OSM   C13S13214   4.035   4.018   7.755  0.0912  0.0159  0.2248
  124OSM   H13S13215   4.146   4.028   7.766  0.0180  0.7000  0.3766
  124OSM   H13T13216   4.019   3.909   7.764 -0.5229  0.1972  1.4994
  124OSM   C14S13217   3.988   4.096   7.879  0.2201  0.5335  0.4949
  124OSM   H14S13218   3.880   4.074   7.889  0.0383 -0.7846 -3.0417
  124OSM   H14T13219   3.995   4.202   7.847  1.2503 -0.1196 -1.6156
  124OSM   C15S13220   4.073   4.063   7.998  0.9865 -0.1679  0.3625
  124OSM   H15S13221   4.179   4.055   7.965  0.9945 -3.9426  0.8943
  124OSM   H15T13222   4.031   3.969   8.041 -0.8885  1.1057  1.4966
  124OSM   C16S13223   4.068   4.170   8.110  0.8759 -0.0305  0.7444
  124OSM   H16S13224   3.969   4.174   8.161  2.4146  1.2863  3.9037
  124OSM   H16T13225   4.073   4.266   8.054 -1.2404  1.6157  3.1457
  124OSM   C17S13226   4.182   4.159   8.212 -0.4117  0.1965  0.5873
  124OSM   H17S13227   4.174   4.254   8.269  1.8836  0.9096 -0.1705
  124OSM   H17T13228   4.283   4.150   8.165 -0.9659 -2.0106 -0.2960
  124OSM   C18S13229   4.166   4.032   8.302  0.6759 -0.1395 -0.2716
  124OSM   H18S13230   4.057   4.037   8.326  0.8555 -0.2021  0.5850
  124OSM   H18T13231   4.227   4.037   8.394  0.3242 -2.5027  0.1465
  124OSM   H18U13232   4.191   3.944   8.239  0.2269  0.4221 -1.2701
  124OSM    C1F13233   4.435   3.523   6.765  1.1404  0.2449 -0.7297
  124OSM     OF13234   4.479   3.552   6.656 -0.2311 -0.3318  0.3435
  124OSM    C2F13235   4.523   3.487   6.883  0.4123 -0.6328  0.6918
  124OSM    H2F13236   4.521   3.376   6.894  0.6518 -0.7564 -0.4334
  124OSM    H2G13237   4.471   3.529   6.972 -0.2882 -2.6008  1.2691
  124OSM    C3F13238   4.669   3.540   6.870 -0.4702  0.7438 -0.2645
  124OSM    H3F13239   4.668   3.651   6.863 -1.1831  0.6137 -3.6126
  124OSM    H3G13240   4.718   3.484   6.787  0.6093  0.2981  0.6344
  124OSM    C4F13241   4.753   3.505   7.003  0.4880 -0.3515 -0.0921
  124OSM    H4F13242   4.710   3.571   7.082  1.7834 -0.8839  1.1006
  124OSM    H4G13243   4.857   3.544   6.994  1.2002 -1.1892  3.0305
  124OSM    C5F13244   4.754   3.360   7.046 -0.5309 -0.6318  0.8399
  124OSM    H5F13245   4.800   3.312   6.956  2.2940  1.9623  0.7167
  124OSM    H5G13246   4.650   3.333   7.073 -1.5328 -0.3567 -2.2924
  124OSM    C6F13247   4.838   3.348   7.169 -0.1189 -0.1757  0.0481
  124OSM    H6F13248   4.815   3.422   7.249 -0.2189 -0.9730  0.7731
  124OSM    H6G13249   4.945   3.375   7.154 -0.2336 -0.1317 -0.7304
  124OSM    C7F13250   4.828   3.209   7.231  0.0655 -0.2034 -0.3297
  124OSM    H7F13251   4.829   3.135   7.149  0.8423 -1.9537  1.1992
  124OSM    H7G13252   4.730   3.185   7.278  0.2986 -3.0692 -1.1330
  124OSM    C8F13253   4.939   3.169   7.329  0.0651  0.3395 -0.2618
  124OSM    H8F13254   5.039   3.200   7.292 -0.3685  0.7586 -1.1294
  124OSM    H8G13255   4.932   3.059   7.319  1.1189  0.4046 -2.1117
  124OSM    C9F13256   4.926   3.225   7.473  0.0551  0.5044 -0.0668
  124OSM    H9F13257   4.829   3.271   7.500  0.3521  1.0063  0.1510
  124OSM   C10F13258   5.024   3.219   7.571  0.0074  0.1251  0.0109
  124OSM   H10F13259   5.019   3.275   7.666  4.0316  0.5983  0.1453
  124OSM   C11F13260   5.166   3.161   7.548  0.4698  0.3489  0.0162
  124OSM   H11F13261   5.233   3.225   7.486  1.8872 -0.0539  1.0885
  124OSM   H11G13262   5.158   3.065   7.493 -1.9236  0.3996  0.1944
  124OSM   C12F13263   5.231   3.133   7.685  0.2386 -0.2920  0.2630
  124OSM   H12F13264   5.225   3.224   7.748 -1.6149 -0.4717  0.4023
  124OSM   H12G13265   5.337   3.110   7.662 -0.4199 -1.1714 -2.2228
  124OSM   C13F13266   5.178   3.014   7.758 -0.1821 -0.0955  0.2132
  124OSM   H13F13267   5.198   2.924   7.695  0.0919 -0.8565  1.3476
  124OSM   H13G13268   5.070   3.019   7.786 -0.3210 -0.9624 -0.1157
  124OSM   C14F13269   5.252   2.987   7.889 -0.0863 -0.2175 -0.3986
  124OSM   H14F13270   5.357   3.024   7.887 -0.1732  0.0113 -0.7491
  124OSM   H14G13271   5.261   2.877   7.907  3.7531 -0.2349 -1.6077
  124OSM   C15F13272   5.181   3.051   8.012 -0.1223 -0.1998  0.4725
  124OSM   H15F13273   5.085   2.998   8.027 -0.1850 -1.0988 -2.4861
  124OSM   H15G13274   5.148   3.156   7.996  0.2824 -0.1091  0.2146
  124OSM   C16F13275   5.266   3.025   8.137  0.1954  0.0051 -0.0485
  124OSM   H16F13276   5.370   3.061   8.120 -1.0379  3.3985 -1.1428
  124OSM   H16G13277   5.269   2.914   8.147 -1.7179  0.0507  1.6550
  124OSM   C17F13278   5.209   3.080   8.271  0.3586  0.6281  0.4047
  124OSM   H17F13279   5.125   3.012   8.296  0.8796  0.0441  0.5854
  124OSM   H17G13280   5.166   3.181   8.251  0.3029  0.5559  0.1565
  124OSM   C18F13281   5.312   3.061   8.385 -0.2618  0.2235  0.5201
  124OSM   H18F13282   5.271   3.078   8.487 -0.0650 -2.2787  1.1005
  124OSM   H18G13283   5.407   3.118   8.370  0.4361 -1.3344 -1.4563
  124OSM   H18H13284   5.340   2.953   8.384  0.3883  0.3800  0.8700
  125OSM      N13285   2.298   5.871   5.757 -0.5267  0.4492  0.5691
  125OSM    C1513286   2.170   5.792   5.736 -0.5746 -0.7220  0.0227
  125OSM   H15A13287   2.105   5.788   5.822  0.9553 -0.3521  1.2200
  125OSM   H15B13288   2.182   5.689   5.705 -0.3492 -0.0657 -2.2163
  125OSM   H15C13289   2.108   5.831   5.656  0.9701  0.2227 -0.7609
  125OSM    C1413290   2.382   5.862   5.623  0.3550  0.0335 -0.7009
  125OSM   H14A13291   2.331   5.902   5.537 -0.0072 -0.0044 -0.5057
  125OSM   H14B13292   2.405   5.764   5.584 -1.7507  0.4890 -3.3609
  125OSM   H14C13293   2.477   5.912   5.637  0.6243 -0.9587  1.3989
  125OSM    C1313294   2.263   6.015   5.796  0.4010  1.0164 -1.0922
  125OSM   H13A13295   2.219   6.070   5.715  1.5101  1.3709 -1.4741
  125OSM   H13B13296   2.358   6.063   5.816 -0.1779  2.0601 -0.8004
  125OSM   H13C13297   2.214   6.011   5.892  2.1395  1.1837 -0.1509
  125OSM    C1213298   2.386   5.800   5.854  0.0150  0.0089 -0.2145
  125OSM   H12A13299   2.488   5.836   5.852  0.1324 -0.1902  1.2997
  125OSM   H12B13300   2.382   5.693   5.837  0.1481  0.1820 -1.4418
  125OSM    C1113301   2.339   5.821   6.002 -0.1783  0.2073  0.0018
  125OSM   H11A13302   2.375   5.731   6.058  0.8053  0.3613 -0.3681
  125OSM   H11B13303   2.228   5.821   6.008 -0.2685 -0.4879 -1.4136
  125OSM      P13304   2.541   5.955   6.092 -0.3194  0.1065 -0.2204
  125OSM    O1313305   2.635   5.943   5.979 -0.1833 -0.0891 -0.4377
  125OSM    O1413306   2.550   6.082   6.170  0.2544 -0.1590  0.6819
  125OSM    O1113307   2.561   5.835   6.180 -0.4175  0.4201  0.3549
  125OSM    O1213308   2.388   5.942   6.051 -0.1003  0.0299 -0.5694
  125OSM    C1S13309   2.623   5.852   6.314  0.4815 -0.1897  0.1498
  125OSM    H1S13310   2.702   5.929   6.305  0.4764 -0.4246 -2.5140
  125OSM    H1T13311   2.678   5.759   6.341 -1.5148 -1.4149  0.2080
  125OSM     NF13312   2.571   5.916   6.532  0.2606 -0.1406 -0.5852
  125OSM    HNF13313   2.571   5.854   6.610 -0.6145 -0.6892 -1.0207
  125OSM    C2S13314   2.505   5.872   6.413 -0.0546 -0.6476 -0.5385
  125OSM    H2S13315   2.439   5.951   6.370  0.2089 -0.2387 -0.1924
  125OSM    C3S13316   2.413   5.738   6.425  0.5862  0.3651 -0.5674
  125OSM    H3S13317   2.473   5.671   6.490 -0.6432  2.1283  2.6506
  125OSM     O313318   2.387   5.661   6.312 -0.4287  0.4423  0.5997
  125OSM    HO313319   2.454   5.696   6.252  1.1151 -0.7464  1.5444
  125OSM    C4S13320   2.285   5.763   6.500 -0.3754 -0.4051  0.3380
  125OSM    H4S13321   2.195   5.789   6.443  1.2854  0.9904 -1.8076
  125OSM    C5S13322   2.276   5.757   6.633  0.2806  0.2383  0.3673
  125OSM    H5S13323   2.369   5.725   6.683  1.0400 -4.2190 -3.1952
  125OSM    C6S13324   2.149   5.766   6.710  0.5231  0.8736 -0.3234
  125OSM    H6S13325   2.123   5.669   6.756 -3.9657  1.4762 -1.1429
  125OSM    H6T13326   2.066   5.791   6.641 -0.8331 -1.6249  0.3099
  125OSM    C7S13327   2.140   5.878   6.818  0.3158 -0.4156 -0.0788
  125OSM    H7S13328   2.225   5.853   6.884  1.0055  0.1925 -0.7242
  125OSM    H7T13329   2.044   5.862   6.872  1.2242 -1.2773  1.3254
  125OSM    C8S13330   2.145   6.011   6.755  0.1923 -0.0753 -0.0784
  125OSM    H8S13331   2.074   6.022   6.670  0.2467  2.1892  0.0923
  125OSM    H8T13332   2.243   6.026   6.705  0.4804 -1.3108  0.0831
  125OSM    C9S13333   2.117   6.122   6.852  0.0851  0.3066 -0.7608
  125OSM    H9S13334   2.024   6.087   6.903  0.4107 -0.2940 -0.5641
  125OSM    H9T13335   2.094   6.220   6.806  2.3048  0.4876 -1.6296
  125OSM   C10S13336   2.228   6.152   6.952 -0.1300 -0.0722 -0.8977
  125OSM   H10S13337   2.271   6.253   6.933 -0.7057  0.1033 -1.2836
  125OSM   H10T13338   2.317   6.088   6.935 -1.4256 -1.2910 -3.6016
  125OSM   C11S13339   2.183   6.131   7.095  0.1622  0.0636 -0.1522
  125OSM   H11S13340   2.141   6.029   7.109 -0.0954  0.1791 -0.0703
  125OSM   H11T13341   2.087   6.185   7.108  0.7305  1.1103 -0.2484
  125OSM   C12S13342   2.284   6.173   7.202  0.8103 -0.3757 -1.4185
  125OSM   H12S13343   2.302   6.281   7.188  0.7494 -0.1354  0.1880
  125OSM   H12T13344   2.377   6.113   7.202 -1.1715 -3.7828 -0.3980
  125OSM   C13S13345   2.222   6.165   7.344 -0.1679  0.1951 -0.1785
  125OSM   H13S13346   2.202   6.060   7.374 -1.4561  0.5529  0.2546
  125OSM   H13T13347   2.123   6.214   7.340 -0.8124 -0.8129  1.9321
  125OSM   C14S13348   2.318   6.227   7.449  0.5033 -0.2919 -0.5535
  125OSM   H14S13349   2.333   6.334   7.425 -0.4246 -0.6415 -2.9316
  125OSM   H14T13350   2.419   6.181   7.443 -1.0988 -4.0628 -1.5530
  125OSM   C15S13351   2.253   6.214   7.587 -0.4160  0.2186  0.0114
  125OSM   H15S13352   2.214   6.113   7.612  0.3779 -0.9355 -2.9631
  125OSM   H15T13353   2.165   6.283   7.581 -0.3697  0.2209 -0.7873
  125OSM   C16S13354   2.339   6.269   7.705  0.2072 -0.1995 -0.7611
  125OSM   H16S13355   2.367   6.375   7.686  2.1559 -0.9837 -2.6341
  125OSM   H16T13356   2.434   6.213   7.716 -0.5536 -1.6739 -1.4870
  125OSM   C17S13357   2.260   6.266   7.836  0.3386  0.4728 -0.3269
  125OSM   H17S13358   2.228   6.161   7.852  1.0189  0.4477  1.1252
  125OSM   H17T13359   2.170   6.328   7.819 -0.1548  0.2166  1.1830
  125OSM   C18S13360   2.347   6.303   7.956 -0.3828  0.3055  0.9377
  125OSM   H18S13361   2.380   6.408   7.941 -0.0462 -0.1609 -2.1707
  125OSM   H18T13362   2.435   6.236   7.956 -0.1484  0.2889 -3.8054
  125OSM   H18U13363   2.289   6.296   8.050 -0.5901  0.0379  0.7902
  125OSM    C1F13364   2.626   6.041   6.541  0.4909 -0.1158 -1.2864
  125OSM     OF13365   2.592   6.133   6.475 -0.1765 -0.2006  0.2435
  125OSM    C2F13366   2.734   6.051   6.644 -0.7302  0.5321 -0.3766
  125OSM    H2F13367   2.811   5.975   6.617 -2.6515 -1.4138 -0.6346
  125OSM    H2G13368   2.689   6.018   6.740 -2.9154 -2.2541 -2.2143
  125OSM    C3F13369   2.811   6.186   6.652  0.3213 -0.0835 -0.6783
  125OSM    H3F13370   2.832   6.225   6.550  0.2226 -0.4477 -0.8387
  125OSM    H3G13371   2.904   6.165   6.709 -1.5429 -1.0528  2.2290
  125OSM    C4F13372   2.740   6.285   6.743 -0.3436  0.5904  0.0669
  125OSM    H4F13373   2.641   6.312   6.700 -0.4965 -0.4794 -0.2831
  125OSM    H4G13374   2.798   6.380   6.738  1.2253 -0.3087  0.6365
  125OSM    C5F13375   2.717   6.221   6.878  0.0035  0.3266  0.6349
  125OSM    H5F13376   2.798   6.150   6.905 -0.2334 -0.6289 -0.9953
  125OSM    H5G13377   2.631   6.153   6.862  0.9323 -0.0540 -4.3491
  125OSM    C6F13378   2.690   6.309   6.998  0.2497 -0.3477  0.3235
  125OSM    H6F13379   2.765   6.390   7.011 -0.9807  0.9146 -0.1422
  125OSM    H6G13380   2.693   6.249   7.092  3.3454 -3.0479 -1.2713
  125OSM    C7F13381   2.556   6.389   6.993 -0.4907 -0.5162 -0.5638
  125OSM    H7F13382   2.474   6.327   6.951 -0.8973  0.3453 -1.0642
  125OSM    H7G13383   2.569   6.470   6.919  3.9891 -0.6373 -0.1949
  125OSM    C8F13384   2.511   6.445   7.134 -0.0143  0.3411  0.4033
  125OSM    H8F13385   2.503   6.356   7.201 -2.6612  0.5679  0.5229
  125OSM    H8G13386   2.408   6.479   7.110 -0.2118  0.3640  1.2496
  125OSM    C9F13387   2.611   6.545   7.192  0.0174  0.3988 -0.6781
  125OSM    H9F13388   2.654   6.606   7.111 -0.3772 -1.0290 -2.0074
  125OSM   C10F13389   2.658   6.565   7.315 -1.0147 -0.0737  0.9127
  125OSM   H10F13390   2.727   6.649   7.332 -0.2651 -0.0886 -1.5671
  125OSM   C11F13391   2.617   6.493   7.439  0.2793 -0.5388 -0.5474
  125OSM   H11F13392   2.591   6.387   7.419 -1.5034 -0.7703  2.4440
  125OSM   H11G13393   2.529   6.543   7.485  1.1543 -0.2063  0.8317
  125OSM   C12F13394   2.733   6.486   7.544  0.5345 -0.6230  0.6297
  125OSM   H12F13395   2.775   6.586   7.568 -2.0943  0.6907  0.0816
  125OSM   H12G13396   2.814   6.422   7.501  0.4056 -0.0963 -0.4296
  125OSM   C13F13397   2.675   6.419   7.674  0.1228 -0.6113 -0.1277
  125OSM   H13F13398   2.611   6.329   7.664 -0.1027 -0.5656  0.8462
  125OSM   H13G13399   2.607   6.498   7.713 -1.3451 -0.6944 -2.3176
  125OSM   C14F13400   2.770   6.360   7.778  0.1284  0.1554  0.2405
  125OSM   H14F13401   2.830   6.445   7.818 -0.6058  1.0877 -0.5939
  125OSM   H14G13402   2.852   6.295   7.739 -0.9221 -0.7625 -0.4848
  125OSM   C15F13403   2.692   6.298   7.899  0.5386  0.3816  0.0649
  125OSM   H15F13404   2.644   6.207   7.858 -1.8117  2.4232 -2.0745
  125OSM   H15G13405   2.609   6.369   7.921  0.0316 -0.1889  0.0156
  125OSM   C16F13406   2.775   6.275   8.028 -0.5878  0.7656  0.0701
  125OSM   H16F13407   2.849   6.356   8.048 -0.3750  0.7576 -0.6336
  125OSM   H16G13408   2.836   6.182   8.023  0.9692  1.7228  0.4088
  125OSM   C17F13409   2.689   6.261   8.151  0.6597 -0.0106 -0.3285
  125OSM   H17F13410   2.607   6.192   8.121 -0.8425  2.1057 -1.3512
  125OSM   H17G13411   2.644   6.356   8.186 -0.2935 -0.5229 -0.1100
  125OSM   C18F13412   2.775   6.202   8.266 -0.8051 -0.2925 -0.6847
  125OSM   H18F13413   2.870   6.260   8.275 -1.6446  0.7633  2.8570
  125OSM   H18G13414   2.784   6.093   8.249  1.7394  0.0282 -1.9119
  125OSM   H18H13415   2.720   6.220   8.361  0.5207  1.1051 -0.1255
  126OSM      N13416   6.572   5.462   6.396 -0.3231  0.4805  0.4898
  126OSM    C1513417   6.566   5.550   6.271  0.4830  0.2623  0.5878
  126OSM   H15A13418   6.638   5.511   6.200  0.8808  0.6086  0.7971
  126OSM   H15B13419   6.598   5.652   6.282  0.3135  0.4562 -0.6104
  126OSM   H15C13420   6.471   5.538   6.221  0.4610 -0.5371  0.8016
  126OSM    C1413421   6.713   5.467   6.443 -0.4973  0.1973 -0.0966
  126OSM   H14A13422   6.790   5.432   6.376 -0.4734 -0.1390  0.1032
  126OSM   H14B13423   6.725   5.406   6.532  0.1765  1.3258  0.6139
  126OSM   H14C13424   6.746   5.566   6.472  1.4692 -0.4827  0.1837
  126OSM    C1313425   6.479   5.514   6.496 -0.3656  0.1126  0.5078
  126OSM   H13A13426   6.475   5.450   6.583  2.7892 -0.1736  0.5352
  126OSM   H13B13427   6.378   5.511   6.459  0.4951 -1.2524 -1.9083
  126OSM   H13C13428   6.509   5.615   6.520  0.6473  0.1719 -0.8950
  126OSM    C1213429   6.534   5.314   6.357 -0.5184  1.2030 -0.5859
  126OSM   H12A13430   6.510   5.276   6.455 -1.9766  2.2766 -0.4942
  126OSM   H12B13431   6.625   5.271   6.319  0.4044  3.6549 -1.3269
  126OSM    C1113432   6.402   5.288   6.280 -0.3452  0.2463  0.4424
  126OSM   H11A13433   6.405   5.178   6.273 -1.2715  0.2950 -1.5887
  126OSM   H11B13434   6.416   5.328   6.177 -0.8018  2.8927  1.3259
  126OSM      P13435   6.202   5.251   6.426  0.5822 -0.1008 -0.3282
  126OSM    O1313436   6.063   5.312   6.438  0.1915 -0.1497  0.3512
  126OSM    O1413437   6.210   5.107   6.391 -0.6227 -0.2138  0.4132
  126OSM    O1113438   6.279   5.271   6.560 -0.1762 -0.2414  0.8225
  126OSM    O1213439   6.280   5.344   6.333 -0.1418  0.0462 -0.1638
  126OSM    C1S13440   6.218   5.320   6.684 -0.0029  0.1548 -0.5588
  126OSM    H1S13441   6.107   5.308   6.685  0.2140 -2.5420 -1.1740
  126OSM    H1T13442   6.233   5.430   6.682 -1.0205  0.3080 -0.5376
  126OSM     NF13443   6.216   5.311   6.936 -0.2831 -0.2471  1.2289
  126OSM    HNF13444   6.270   5.386   6.975 -0.4216  2.3872 -3.0407
  126OSM    C2S13445   6.280   5.261   6.817 -0.2502  0.1650  0.1422
  126OSM    H2S13446   6.267   5.150   6.818 -1.1975  0.2708  0.5661
  126OSM    C3S13447   6.434   5.281   6.822  0.0442  0.2604 -0.3066
  126OSM    H3S13448   6.454   5.390   6.813  0.2065  0.4262  1.6024
  126OSM     O313449   6.499   5.237   6.707 -0.4424 -0.1860 -0.0135
  126OSM    HO313450   6.430   5.221   6.643  0.0766 -1.2878 -0.3235
  126OSM    C4S13451   6.492   5.228   6.956 -0.0295  0.6534 -0.1894
  126OSM    H4S13452   6.452   5.282   7.043 -0.1527 -1.5678  1.2025
  126OSM    C5S13453   6.563   5.114   6.983 -0.0718 -0.5951  0.1194
  126OSM    H5S13454   6.587   5.040   6.906  3.4874  0.2217  0.2875
  126OSM    C6S13455   6.611   5.072   7.119 -0.0887 -0.8136  0.0444
  126OSM    H6S13456   6.716   5.038   7.117  0.2833  0.3272 -1.1453
  126OSM    H6T13457   6.549   4.985   7.153 -2.2093  0.7500  0.4027
  126OSM    C7S13458   6.591   5.179   7.229  0.4600 -0.3798 -0.1253
  126OSM    H7S13459   6.486   5.211   7.244  1.1718  0.9236  2.8831
  126OSM    H7T13460   6.653   5.270   7.211  1.0743 -0.0957  2.8848
  126OSM    C8S13461   6.638   5.127   7.367  0.5030  0.1327  0.1642
  126OSM    H8S13462   6.738   5.078   7.364 -1.0636 -3.3444  0.8354
  126OSM    H8T13463   6.569   5.046   7.396  1.0424  0.1690  1.6923
  126OSM    C9S13464   6.640   5.228   7.483  0.3719  0.2509  0.2853
  126OSM    H9S13465   6.542   5.276   7.502 -1.1470 -1.6323 -2.1689
  126OSM    H9T13466   6.708   5.315   7.466  1.7923 -0.8489  0.0760
  126OSM   C10S13467   6.704   5.153   7.608 -0.7706 -0.1939  0.1470
  126OSM   H10S13468   6.800   5.104   7.579 -2.6096 -4.1838  0.1783
  126OSM   H10T13469   6.634   5.070   7.629  0.7489 -1.2359  1.3686
  126OSM   C11S13470   6.730   5.247   7.724  0.2299 -0.2836 -0.5273
  126OSM   H11S13471   6.639   5.310   7.733  0.3980  0.1196 -1.4564
  126OSM   H11T13472   6.813   5.318   7.703 -0.2852  0.7804  0.8937
  126OSM   C12S13473   6.780   5.163   7.852 -0.0459  0.0917 -0.0798
  126OSM   H12S13474   6.853   5.085   7.822  1.3375  1.0308  0.6870
  126OSM   H12T13475   6.701   5.111   7.910  0.9639 -0.2108  1.0766
  126OSM   C13S13476   6.845   5.250   7.959  0.2373 -0.7599 -0.5177
  126OSM   H13S13477   6.779   5.338   7.976  0.8945 -0.5354  1.0386
  126OSM   H13T13478   6.938   5.298   7.922 -0.9583  1.6528 -0.6683
  126OSM   C14S13479   6.857   5.173   8.092 -0.6074  0.2973  0.6747
  126OSM   H14S13480   6.755   5.136   8.119  0.3915 -1.1328  2.7852
  126OSM   H14T13481   6.902   5.252   8.155  1.2828  1.8214 -2.3931
  126OSM   C15S13482   6.946   5.040   8.091  0.3645  0.0437  0.6022
  126OSM   H15S13483   7.043   5.070   8.047  1.8263  0.0070  3.5523
  126OSM   H15T13484   6.898   4.958   8.033  0.7813 -1.1280  1.8852
  126OSM   C16S13485   6.963   4.975   8.234 -0.0349  0.7357  0.1570
  126OSM   H16S13486   6.865   4.930   8.261 -0.3019  2.4465  2.2720
  126OSM   H16T13487   6.983   5.049   8.315 -3.4978  1.4906  0.4705
  126OSM   C17S13488   7.056   4.856   8.261 -0.2060 -0.8240  0.5813
  126OSM   H17S13489   7.063   4.840   8.370  0.9781  1.4193  0.8891
  126OSM   H17T13490   7.161   4.875   8.228  0.1558 -2.0375  0.9543
  126OSM   C18S13491   7.017   4.719   8.191  0.6135  0.4020 -0.3359
  126OSM   H18S13492   7.093   4.638   8.192 -0.2135 -0.3822  0.0426
  126OSM   H18T13493   6.973   4.724   8.089 -0.9535  1.8010  0.3457
  126OSM   H18U13494   6.936   4.688   8.260  0.1992  1.7499 -0.1865
  126OSM    C1F13495   6.088   5.300   6.956  0.0470  0.1030  0.1143
  126OSM     OF13496   6.026   5.220   6.888  0.5830 -0.3185 -0.6304
  126OSM    C2F13497   6.025   5.391   7.060 -0.5582 -0.1916 -0.4623
  126OSM    H2F13498   5.918   5.398   7.030 -0.3749 -1.9824 -1.6626
  126OSM    H2G13499   6.075   5.490   7.058  0.2430 -0.4788  2.0992
  126OSM    C3F13500   6.041   5.328   7.208 -0.1375 -0.4893 -0.0737
  126OSM    H3F13501   6.144   5.331   7.248 -0.7979 -1.3310  1.7956
  126OSM    H3G13502   6.003   5.223   7.202 -0.4177 -0.6477  3.0824
  126OSM    C4F13503   5.960   5.410   7.310  0.0447 -0.5298  0.3790
  126OSM    H4F13504   5.864   5.442   7.266  0.0790  0.0958  0.7328
  126OSM    H4G13505   6.027   5.493   7.342  0.0304 -0.8482  1.2808
  126OSM    C5F13506   5.946   5.337   7.442  0.2344 -0.5410 -0.1193
  126OSM    H5F13507   6.037   5.277   7.466  1.1288  0.0928 -1.7781
  126OSM    H5G13508   5.861   5.268   7.427 -0.6280  0.5070 -0.1780
  126OSM    C6F13509   5.914   5.424   7.564 -0.2175 -0.8938 -0.3189
  126OSM    H6F13510   5.811   5.463   7.545  0.3445  0.5665 -0.5216
  126OSM    H6G13511   5.984   5.510   7.572  0.5564 -1.3708 -1.6255
  126OSM    C7F13512   5.914   5.351   7.700 -0.6299  0.0569  0.3458
  126OSM    H7F13513   6.013   5.304   7.717  0.4972  1.5424 -1.6901
  126OSM    H7G13514   5.845   5.265   7.686  0.2292 -0.5319 -0.4494
  126OSM    C8F13515   5.877   5.433   7.825  0.0487 -0.5417 -0.3288
  126OSM    H8F13516   5.810   5.515   7.791  0.9363  0.5305  0.4004
  126OSM    H8G13517   5.967   5.496   7.844 -0.2992 -0.4084  0.9703
  126OSM    C9F13518   5.835   5.352   7.938  0.5865 -0.3623 -0.1995
  126OSM    H9F13519   5.734   5.309   7.930  0.5149 -0.0053 -1.5167
  126OSM   C10F13520   5.905   5.319   8.048  0.0755 -0.3300 -0.0550
  126OSM   H10F13521   5.866   5.262   8.133  2.5541 -1.1452  0.6228
  126OSM   C11F13522   6.045   5.370   8.075 -0.2560  0.0421  0.2894
  126OSM   H11F13523   6.105   5.394   7.984 -0.2504  0.6028  0.4345
  126OSM   H11G13524   6.097   5.296   8.140  1.1390  0.7594  0.0133
  126OSM   C12F13525   6.055   5.505   8.153 -0.6375 -0.0160 -0.1059
  126OSM   H12F13526   6.011   5.592   8.100 -1.8608  0.4721  1.6246
  126OSM   H12G13527   6.163   5.529   8.160 -0.4515 -1.3412  3.7858
  126OSM   C13F13528   6.020   5.497   8.304  0.1976  0.2870 -0.1704
  126OSM   H13F13529   6.069   5.406   8.344 -2.1067 -1.6072 -1.3777
  126OSM   H13G13530   5.910   5.481   8.307  0.4535 -2.3451 -1.2617
  126OSM   C14F13531   6.075   5.627   8.367 -0.3731 -0.6023 -0.5233
  126OSM   H14F13532   6.021   5.709   8.315 -1.7308 -1.4382 -0.4520
  126OSM   H14G13533   6.183   5.652   8.356 -0.8156  2.1539  0.6083
  126OSM   C15F13534   6.037   5.640   8.507  0.0299  0.1970  0.5415
  126OSM   H15F13535   6.090   5.736   8.525  2.2654 -0.1188 -3.2389
  126OSM   H15G13536   6.082   5.566   8.577 -3.2514 -1.2207  1.3257
  126OSM   C16F13537   5.887   5.653   8.540  0.5907  0.2698  0.4753
  126OSM   H16F13538   5.844   5.550   8.533  0.3031  0.4928 -1.7440
  126OSM   H16G13539   5.841   5.714   8.460  3.4570 -0.4885 -1.9183
  126OSM   C17F13540   5.862   5.712   8.682  0.3719 -0.5810  0.0530
  126OSM   H17F13541   5.901   5.816   8.687 -1.3996  0.1028  0.3428
  126OSM   H17G13542   5.909   5.642   8.754  1.6150  0.5474  0.3952
  126OSM   C18F13543   5.705   5.713   8.703 -0.1274  0.4190  0.6390
  126OSM   H18F13544   5.675   5.750   8.803 -3.3392  2.1084 -0.8232
  126OSM   H18G13545   5.668   5.612   8.673  0.0659  0.0614  1.5537
  126OSM   H18H13546   5.666   5.792   8.636  0.0443  0.7518  0.9269
  127OSM      N13547   2.419   3.605   5.929  0.0361  0.2476  0.0320
  127OSM    C1513548   2.419   3.736   5.860  0.4655  0.5576 -0.1565
  127OSM   H15A13549   2.438   3.726   5.755  2.4013 -3.3606  0.3969
  127OSM   H15B13550   2.500   3.797   5.896  2.8283 -1.9754 -0.8889
  127OSM   H15C13551   2.326   3.790   5.870  0.3606  0.2429  0.6952
  127OSM    C1413552   2.286   3.544   5.915  0.7413  0.4545 -0.1391
  127OSM   H14A13553   2.263   3.541   5.810  1.0376  0.6843 -0.2116
  127OSM   H14B13554   2.219   3.618   5.958  0.7677  1.3929 -1.6330
  127OSM   H14C13555   2.273   3.446   5.958 -1.9662  1.0061  0.5061
  127OSM    C1313556   2.524   3.523   5.861  0.0535  0.2705 -0.1832
  127OSM   H13A13557   2.619   3.573   5.874  0.8008 -1.3740  1.0851
  127OSM   H13B13558   2.510   3.523   5.754  0.2077 -2.5405 -0.2817
  127OSM   H13C13559   2.527   3.422   5.899 -0.3208 -0.4471 -1.9388
  127OSM    C1213560   2.434   3.621   6.077 -0.1952  0.7564  0.0573
  127OSM   H12A13561   2.370   3.699   6.115  0.3560  0.0537  2.6030
  127OSM   H12B13562   2.534   3.659   6.090 -1.1511  2.6057  2.6881
  127OSM    C1113563   2.423   3.489   6.168 -0.5367 -0.3997 -0.2478
  127OSM   H11A13564   2.324   3.467   6.212 -0.3368  0.5592  0.7075
  127OSM   H11B13565   2.483   3.512   6.259 -1.4022  0.7790  0.0425
  127OSM      P13566   2.392   3.227   6.146  0.2367  0.1092  0.0591
  127OSM    O1313567   2.256   3.235   6.092  0.1548  0.2223  0.3745
  127OSM    O1413568   2.458   3.100   6.109 -0.0837  0.2759 -0.0311
  127OSM    O1113569   2.388   3.246   6.299  0.7508 -0.7870  0.2262
  127OSM    O1213570   2.473   3.363   6.107 -0.6876  0.4302 -0.2651
  127OSM    C1S13571   2.279   3.199   6.376 -0.0467 -0.2480  0.1884
  127OSM    H1S13572   2.251   3.099   6.337 -0.9094 -0.3201  0.9493
  127OSM    H1T13573   2.195   3.272   6.365 -0.6441 -0.2915  3.2968
  127OSM     NF13574   2.186   3.164   6.605 -0.0042  0.1567 -0.1885
  127OSM    HNF13575   2.162   3.245   6.658  2.8076  1.3007 -0.4878
  127OSM    C2S13576   2.302   3.184   6.533 -0.0144 -0.7727  0.2707
  127OSM    H2S13577   2.370   3.097   6.545 -1.2872 -1.6317  1.4474
  127OSM    C3S13578   2.373   3.309   6.591 -0.2403 -0.3696 -0.4738
  127OSM    H3S13579   2.313   3.399   6.567 -0.1114 -0.1499  0.0158
  127OSM     O313580   2.498   3.337   6.532 -0.6937  0.1450  0.0489
  127OSM    HO313581   2.484   3.291   6.449 -0.6532 -0.4770  0.3790
  127OSM    C4S13582   2.395   3.312   6.742 -0.7350 -0.0006 -0.0971
  127OSM    H4S13583   2.478   3.249   6.776 -0.9770 -0.1416  0.2415
  127OSM    C5S13584   2.356   3.401   6.836  0.6655  0.0428 -0.1745
  127OSM    H5S13585   2.286   3.476   6.797  1.1815  0.0716 -1.0649
  127OSM    C6S13586   2.378   3.405   6.984 -0.1351 -0.2024  0.3245
  127OSM    H6S13587   2.414   3.305   7.015 -0.2908  0.0181  1.2685
  127OSM    H6T13588   2.286   3.425   7.044  0.0895 -0.1487  0.6548
  127OSM    C7S13589   2.490   3.507   7.025 -0.0994  0.4597 -0.5618
  127OSM    H7S13590   2.475   3.600   6.966  0.8156 -0.0196 -1.5847
  127OSM    H7T13591   2.589   3.464   6.997  0.2883  0.4411  0.7932
  127OSM    C8S13592   2.480   3.549   7.173 -0.3971  0.3885  0.4673
  127OSM    H8S13593   2.521   3.465   7.233 -0.9497  0.0330  0.3632
  127OSM    H8T13594   2.371   3.562   7.190 -0.6711 -1.9028  0.7724
  127OSM    C9S13595   2.563   3.668   7.215 -0.0676 -0.0411 -0.1070
  127OSM    H9S13596   2.557   3.749   7.139 -1.0302 -0.9252 -1.0046
  127OSM    H9T13597   2.670   3.640   7.217 -0.0851 -0.2472 -1.3321
  127OSM   C10S13598   2.530   3.732   7.354 -0.2735  0.0229 -0.2784
  127OSM   H10S13599   2.424   3.764   7.356  0.2931  2.0246  1.7535
  127OSM   H10T13600   2.587   3.822   7.387 -0.1252 -0.4641  0.8324
  127OSM   C11S13601   2.542   3.636   7.479 -0.0975  0.6540 -0.1851
  127OSM   H11S13602   2.650   3.615   7.491  0.1995  0.3578 -2.8191
  127OSM   H11T13603   2.498   3.539   7.449 -1.8060  1.8652 -1.8488
  127OSM   C12S13604   2.470   3.694   7.602  0.2711  0.2324 -1.0331
  127OSM   H12S13605   2.362   3.715   7.585  0.1080 -0.7449 -1.2798
  127OSM   H12T13606   2.523   3.790   7.619  1.2908 -0.7926  2.4664
  127OSM   C13S13607   2.483   3.604   7.726  0.1088 -0.4690  0.4146
  127OSM   H13S13608   2.588   3.618   7.760  0.2050  1.3368 -0.4805
  127OSM   H13T13609   2.473   3.498   7.697 -0.3256 -0.3009 -0.0625
  127OSM   C14S13610   2.394   3.639   7.839 -0.1291 -0.1226 -0.2469
  127OSM   H14S13611   2.289   3.639   7.802 -1.2382 -1.5768  2.6063
  127OSM   H14T13612   2.418   3.742   7.873  0.9714 -0.1517 -0.9111
  127OSM   C15S13613   2.415   3.542   7.957 -0.0823  0.4831 -0.6063
  127OSM   H15S13614   2.518   3.567   7.992 -0.0431  0.9410 -1.0429
  127OSM   H15T13615   2.411   3.436   7.924  0.8471  0.2552 -0.0478
  127OSM   C16S13616   2.310   3.557   8.072 -0.2249  0.0784  0.0742
  127OSM   H16S13617   2.207   3.557   8.030  0.2278 -1.1014 -1.0944
  127OSM   H16T13618   2.325   3.657   8.119 -0.5503  0.5852 -0.8764
  127OSM   C17S13619   2.305   3.453   8.187  0.2909 -0.2430 -0.1618
  127OSM   H17S13620   2.210   3.470   8.242 -0.2615 -0.1929 -1.1001
  127OSM   H17T13621   2.374   3.489   8.266 -0.1377  0.9756 -0.3102
  127OSM   C18S13622   2.310   3.311   8.146 -0.3731 -0.6433 -0.0829
  127OSM   H18S13623   2.278   3.307   8.039  1.6565  1.0124 -0.8251
  127OSM   H18T13624   2.250   3.242   8.208 -0.4152  0.9582  1.7392
  127OSM   H18U13625   2.418   3.290   8.157 -0.4412 -1.5145 -0.9986
  127OSM    C1F13626   2.110   3.053   6.595 -0.9611  0.1174  0.1387
  127OSM     OF13627   2.101   2.982   6.494 -0.7259 -0.9476 -0.1250
  127OSM    C2F13628   2.031   3.009   6.715 -0.0737  0.7109 -0.0028
  127OSM    H2F13629   2.046   2.900   6.728 -1.0465  0.6704  0.9322
  127OSM    H2G13630   1.925   3.040   6.701 -0.5799 -1.0841 -0.4691
  127OSM    C3F13631   2.074   3.057   6.858  0.2937  0.7843  1.0525
  127OSM    H3F13632   2.055   3.166   6.852  0.5621  0.7782 -0.2690
  127OSM    H3G13633   2.182   3.036   6.874 -0.2293 -2.1356  1.2888
  127OSM    C4F13634   2.000   2.977   6.961 -0.5403 -0.1602 -0.0475
  127OSM    H4F13635   2.039   2.873   6.971  1.2696  0.6032  1.5733
  127OSM    H4G13636   1.893   2.984   6.933 -1.1916  0.1895  2.3372
  127OSM    C5F13637   2.012   3.052   7.103  0.2541  0.0577  0.4504
  127OSM    H5F13638   1.983   3.159   7.091  1.4251  0.2635 -0.7136
  127OSM    H5G13639   2.118   3.056   7.134  0.0643  0.1574  1.1014
  127OSM    C6F13640   1.956   2.975   7.221 -0.4178  0.4138 -0.2146
  127OSM    H6F13641   2.023   2.993   7.308  1.8053 -0.5714 -1.6210
  127OSM    H6G13642   1.962   2.864   7.212  0.4763  0.3729  0.7124
  127OSM    C7F13643   1.810   2.999   7.261  0.2419 -0.1451 -0.0406
  127OSM    H7F13644   1.743   2.935   7.200 -1.0890  1.3340 -0.1879
  127OSM    H7G13645   1.782   3.102   7.231  0.2481 -0.2248 -0.3245
  127OSM    C8F13646   1.794   2.976   7.413 -0.3189 -0.2216 -0.2519
  127OSM    H8F13647   1.688   3.000   7.433  0.6452  3.3758  1.1550
  127OSM    H8G13648   1.852   3.057   7.460  0.4066 -0.8500 -0.0439
  127OSM    C9F13649   1.840   2.853   7.480 -0.3342  0.8790 -0.8077
  127OSM    H9F13650   1.859   2.766   7.416  0.1171  0.0078  0.4719
  127OSM   C10F13651   1.860   2.848   7.619 -0.1691 -0.3751 -0.1147
  127OSM   H10F13652   1.896   2.753   7.662 -2.5561 -1.2932  0.0031
  127OSM   C11F13653   1.822   2.956   7.723 -0.4416 -0.1568 -0.4098
  127OSM   H11F13654   1.746   3.029   7.687  0.1627  1.4971  1.4865
  127OSM   H11G13655   1.914   3.013   7.747 -1.2082  0.5753  0.9389
  127OSM   C12F13656   1.792   2.897   7.865  0.0451 -0.1498  0.0798
  127OSM   H12F13657   1.875   2.837   7.907  0.0883  0.4148  0.8176
  127OSM   H12G13658   1.699   2.838   7.848  1.3350 -1.9301 -1.0763
  127OSM   C13F13659   1.759   2.995   7.977  0.0452 -0.1798 -0.2080
  127OSM   H13F13660   1.674   3.060   7.946  0.8462  1.0608  0.1448
  127OSM   H13G13661   1.836   3.066   8.013  0.3072 -1.1491  1.2236
  127OSM   C14F13662   1.724   2.927   8.109  0.2661  0.2220 -0.9727
  127OSM   H14F13663   1.635   2.861   8.097 -0.5303  1.2031 -0.5575
  127OSM   H14G13664   1.703   3.007   8.182  1.3353  0.0949 -0.5108
  127OSM   C15F13665   1.842   2.869   8.193  0.1564  0.2798  1.0677
  127OSM   H15F13666   1.921   2.947   8.196  0.4283  0.1474 -1.1484
  127OSM   H15G13667   1.865   2.778   8.132 -1.5320  1.1049 -0.9331
  127OSM   C16F13668   1.794   2.838   8.335 -0.3338  0.0182 -1.5207
  127OSM   H16F13669   1.699   2.781   8.334  0.4369 -1.4293  0.4153
  127OSM   H16G13670   1.798   2.931   8.397  4.0250 -0.9053 -0.0611
  127OSM   C17F13671   1.894   2.739   8.398 -0.9538  0.6108  0.8581
  127OSM   H17F13672   1.997   2.780   8.392 -0.1843 -1.4053 -1.7444
  127OSM   H17G13673   1.893   2.647   8.336 -1.2023  0.8798  0.4600
  127OSM   C18F13674   1.857   2.693   8.543 -0.8197 -0.2700 -0.2759
  127OSM   H18F13675   1.747   2.693   8.556 -0.6990 -0.7371  0.8467
  127OSM   H18G13676   1.904   2.770   8.608  0.5469 -0.5031 -0.9345
  127OSM   H18H13677   1.903   2.596   8.573 -1.6964 -0.2924  1.0702
  128OSM      N13678   3.339   5.707   5.970  0.0595 -0.1108  0.6667
  128OSM    C1513679   3.467   5.774   5.932 -0.8011 -0.6152  0.4638
  128OSM   H15A13680   3.488   5.867   5.984  1.1552 -0.5056 -0.4175
  128OSM   H15B13681   3.465   5.810   5.830  0.6307  1.3929  1.0563
  128OSM   H15C13682   3.557   5.715   5.940 -0.3533  0.0036  0.1871
  128OSM    C1413683   3.224   5.781   5.921 -0.4836  0.7097 -0.4101
  128OSM   H14A13684   3.222   5.884   5.951 -0.4964  1.0223 -1.4547
  128OSM   H14B13685   3.128   5.744   5.953  0.1754 -1.5149 -0.7947
  128OSM   H14C13686   3.218   5.777   5.813  1.8063  2.8702 -0.7187
  128OSM    C1313687   3.329   5.567   5.896 -0.2951  0.2102 -0.1773
  128OSM   H13A13688   3.414   5.505   5.920 -0.2419  0.0634 -0.7221
  128OSM   H13B13689   3.323   5.583   5.789  1.5088  2.1278 -0.0468
  128OSM   H13C13690   3.244   5.508   5.930  0.8857 -1.0648  0.6785
  128OSM    C1213691   3.329   5.683   6.119 -0.2571 -0.1509  0.0658
  128OSM   H12A13692   3.225   5.670   6.145 -0.4112  1.7137  0.5078
  128OSM   H12B13693   3.356   5.773   6.172 -0.5798  0.4083 -0.6901
  128OSM    C1113694   3.405   5.571   6.185  0.0747 -0.5865 -0.2788
  128OSM   H11A13695   3.368   5.470   6.155  0.0125 -0.6033 -0.1448
  128OSM   H11B13696   3.385   5.590   6.293  2.2428 -2.4633  0.5332
  128OSM      P13697   3.658   5.666   6.238  0.3620 -0.1782 -0.1698
  128OSM    O1313698   3.792   5.632   6.198  0.2445 -0.4304 -0.3334
  128OSM    O1413699   3.628   5.811   6.226 -0.1723  0.3550 -0.0705
  128OSM    O1113700   3.637   5.630   6.384 -0.8308  0.1497  0.0926
  128OSM    O1213701   3.550   5.574   6.166 -0.2807  1.0240 -0.1281
  128OSM    C1S13702   3.653   5.519   6.466  0.0396 -0.1153 -0.2644
  128OSM    H1S13703   3.757   5.490   6.442 -0.0763 -0.6281 -0.1440
  128OSM    H1T13704   3.581   5.439   6.443  0.2926 -1.1267  2.1461
  128OSM     NF13705   3.675   5.435   6.692  0.3084 -0.6004  0.2316
  128OSM    HNF13706   3.596   5.375   6.704 -1.4843  0.9835 -2.4420
  128OSM    C2S13707   3.650   5.559   6.617 -0.0456  1.3301 -0.7911
  128OSM    H2S13708   3.715   5.646   6.639 -0.5861  2.5529 -3.5909
  128OSM    C3S13709   3.507   5.610   6.649 -0.3360  0.5028  0.1048
  128OSM    H3S13710   3.442   5.521   6.632  1.3106 -0.8891  0.7646
  128OSM     O313711   3.454   5.711   6.560  0.1209  0.0165 -0.3010
  128OSM    HO313712   3.526   5.713   6.496 -0.0440 -2.1126 -0.6220
  128OSM    C4S13713   3.495   5.641   6.793  0.0957  0.5246  0.5754
  128OSM    H4S13714   3.544   5.736   6.819 -1.5082  1.9073 -1.1455
  128OSM    C5S13715   3.423   5.574   6.888  0.1424  0.5635  0.2901
  128OSM    H5S13716   3.355   5.495   6.852  0.1968  0.0206  1.3276
  128OSM    C6S13717   3.409   5.597   7.035 -0.3207  0.0088  0.2532
  128OSM    H6S13718   3.443   5.701   7.051  2.4511 -0.8033  0.3081
  128OSM    H6T13719   3.487   5.529   7.078  1.3803 -0.4143 -3.1224
  128OSM    C7S13720   3.261   5.596   7.083 -0.6960 -0.1044  0.2154
  128OSM    H7S13721   3.207   5.505   7.051 -1.9011  1.0657 -1.1874
  128OSM    H7T13722   3.205   5.667   7.019  0.8551  1.2753  0.3137
  128OSM    C8S13723   3.236   5.619   7.231 -0.3987 -0.3941  0.3186
  128OSM    H8S13724   3.279   5.544   7.300 -0.1320 -0.3903  0.1549
  128OSM    H8T13725   3.125   5.615   7.242 -0.2191 -1.0195  2.2676
  128OSM    C9S13726   3.298   5.757   7.277 -0.0131  0.5989 -0.0757
  128OSM    H9S13727   3.283   5.840   7.205  0.6557  0.4958 -0.3359
  128OSM    H9T13728   3.406   5.731   7.273 -0.1010  0.1212  0.4873
  128OSM   C10S13729   3.253   5.802   7.414  0.0053 -0.5602 -0.1971
  128OSM   H10S13730   3.142   5.794   7.418 -0.0391 -0.6980 -1.2330
  128OSM   H10T13731   3.270   5.912   7.420 -1.6090 -0.1657 -1.8680
  128OSM   C11S13732   3.321   5.727   7.532 -0.5817 -0.4833 -0.1023
  128OSM   H11S13733   3.432   5.716   7.525 -0.7810 -1.6995 -3.0443
  128OSM   H11T13734   3.284   5.622   7.530 -0.6545 -0.4933  1.0123
  128OSM   C12S13735   3.291   5.799   7.667 -0.2743  0.3478 -0.5072
  128OSM   H12S13736   3.182   5.804   7.689  0.3785  1.7916  3.3208
  128OSM   H12T13737   3.344   5.896   7.657  1.7106 -0.5696  0.5188
  128OSM   C13S13738   3.344   5.725   7.784 -0.8032 -0.0273  0.5710
  128OSM   H13S13739   3.455   5.717   7.792 -0.8348 -0.5342  0.5221
  128OSM   H13T13740   3.305   5.622   7.780 -1.5730  0.2476  0.7797
  128OSM   C14S13741   3.320   5.793   7.923 -0.1802  0.5535  0.4160
  128OSM   H14S13742   3.215   5.828   7.908 -1.5918 -3.7471 -1.3284
  128OSM   H14T13743   3.381   5.884   7.939 -1.1826  1.0552  1.6264
  128OSM   C15S13744   3.315   5.691   8.035  0.1233 -0.3632 -0.2839
  128OSM   H15S13745   3.240   5.611   8.018  0.9945 -1.3041  0.2361
  128OSM   H15T13746   3.271   5.750   8.118 -0.0712  1.5959 -1.6820
  128OSM   C16S13747   3.454   5.635   8.084 -1.0865 -0.1543  0.0202
  128OSM   H16S13748   3.508   5.601   7.994  0.4411 -1.2763  1.3091
  128OSM   H16T13749   3.432   5.545   8.146 -1.9654 -1.4208 -2.0141
  128OSM   C17S13750   3.537   5.735   8.167 -0.0633  0.2249 -0.0502
  128OSM   H17S13751   3.486   5.735   8.266 -1.2596 -2.1536 -0.5732
  128OSM   H17T13752   3.537   5.834   8.116  1.9915 -0.0667 -0.7052
  128OSM   C18S13753   3.687   5.698   8.182  0.2851 -0.0673  0.3853
  128OSM   H18S13754   3.733   5.796   8.209  0.9744 -0.4207  0.5399
  128OSM   H18T13755   3.729   5.653   8.089  0.1497 -1.2291  0.8671
  128OSM   H18U13756   3.704   5.622   8.262 -1.7124 -0.0908  0.8459
  128OSM    C1F13757   3.800   5.383   6.721 -0.1925  0.8993  0.7085
  128OSM     OF13758   3.908   5.439   6.692 -0.1759 -0.2489 -0.5295
  128OSM    C2F13759   3.803   5.239   6.766 -0.0651 -0.8245  0.2397
  128OSM    H2F13760   3.884   5.195   6.705  0.1751  2.9185 -2.4960
  128OSM    H2G13761   3.715   5.178   6.738  0.6678 -1.1775 -1.3869
  128OSM    C3F13762   3.847   5.227   6.911 -0.6163  0.1664 -0.4256
  128OSM    H3F13763   3.927   5.298   6.943  1.4681 -1.6880 -1.2803
  128OSM    H3G13764   3.901   5.132   6.928  0.1832  0.5916 -0.4966
  128OSM    C4F13765   3.727   5.239   7.012 -0.0851  0.4645  0.6429
  128OSM    H4F13766   3.641   5.175   6.984 -2.0175  1.9026  2.9226
  128OSM    H4G13767   3.686   5.343   7.015  0.2125  0.5762  0.8747
  128OSM    C5F13768   3.773   5.206   7.154  1.1338 -0.0490  0.3158
  128OSM    H5F13769   3.860   5.267   7.189  1.1538  1.2603 -1.8169
  128OSM    H5G13770   3.803   5.100   7.165 -1.5539 -0.8816  0.4169
  128OSM    C6F13771   3.656   5.237   7.259 -0.6556  0.3253  0.2598
  128OSM    H6F13772   3.660   5.153   7.332 -0.2125 -0.0621 -0.2096
  128OSM    H6G13773   3.560   5.220   7.206  0.1035 -1.5752 -0.5708
  128OSM    C7F13774   3.655   5.378   7.322  0.9515 -0.1824  0.4150
  128OSM    H7F13775   3.691   5.453   7.248  0.6278 -0.1596  0.2792
  128OSM    H7G13776   3.729   5.396   7.403 -1.2125  0.7824  2.2680
  128OSM    C8F13777   3.515   5.411   7.377  1.0773  0.4900  0.6341
  128OSM    H8F13778   3.435   5.391   7.303  2.3088  1.5397 -1.0682
  128OSM    H8G13779   3.521   5.520   7.396  1.4763  0.6059 -0.1195
  128OSM    C9F13780   3.488   5.322   7.496  0.3458  0.1321 -0.2742
  128OSM    H9F13781   3.429   5.229   7.490  1.9491 -0.9608  0.1642
  128OSM   C10F13782   3.517   5.342   7.625 -0.0290  0.0893 -0.2155
  128OSM   H10F13783   3.493   5.268   7.702  2.2579 -2.2160 -1.5298
  128OSM   C11F13784   3.582   5.466   7.679  0.1577 -0.6758 -0.3581
  128OSM   H11F13785   3.527   5.499   7.769  2.7269 -0.9105  1.4084
  128OSM   H11G13786   3.569   5.548   7.605  1.1850  0.2339  0.4339
  128OSM   C12F13787   3.730   5.463   7.726  0.6210  0.2028 -0.4904
  128OSM   H12F13788   3.749   5.564   7.769  1.2585 -0.1061 -0.0267
  128OSM   H12G13789   3.800   5.456   7.641 -2.2447  2.7075 -3.3253
  128OSM   C13F13790   3.769   5.348   7.815  0.2248  0.2176 -0.1804
  128OSM   H13F13791   3.879   5.351   7.835  0.1627  0.7007  0.0880
  128OSM   H13G13792   3.737   5.252   7.768 -1.4333  0.3670  0.5921
  128OSM   C14F13793   3.705   5.361   7.956  0.2866  0.5395  0.4707
  128OSM   H14F13794   3.596   5.372   7.942  0.4278  0.0086 -1.3141
  128OSM   H14G13795   3.736   5.450   8.014  0.3044  1.8251 -1.4111
  128OSM   C15F13796   3.719   5.236   8.039  0.5713  0.1291 -0.1836
  128OSM   H15F13797   3.829   5.227   8.057  0.8713  2.3451 -0.5622
  128OSM   H15G13798   3.699   5.146   7.977 -2.2825 -0.3272  1.2741
  128OSM   C16F13799   3.639   5.225   8.171  0.6747 -0.0380 -0.1658
  128OSM   H16F13800   3.535   5.256   8.147  0.1122 -2.3678 -0.9831
  128OSM   H16G13801   3.684   5.288   8.250  0.6072 -2.2615  1.7367
  128OSM   C17F13802   3.636   5.084   8.228 -0.1918  0.0383 -0.0649
  128OSM   H17F13803   3.743   5.056   8.233  0.4764  1.6524 -3.0380
  128OSM   H17G13804   3.575   5.016   8.165 -1.2047  1.2332 -0.4376
  128OSM   C18F13805   3.569   5.072   8.368 -0.4103  0.2783  0.4919
  128OSM   H18F13806   3.593   4.974   8.413  2.5169  0.7320  0.1887
  128OSM   H18G13807   3.460   5.086   8.354 -0.3334 -0.6297 -1.3198
  128OSM   H18H13808   3.623   5.147   8.430  1.5539  0.2326 -1.0331
  129OSM      N13809   0.786   3.667   6.079 -0.5967 -0.4619  0.4350
  129OSM    C1513810   0.765   3.540   5.994 -0.1248  0.5532  0.3043
  129OSM   H15A13811   0.692   3.565   5.919 -0.6656 -0.8244  0.3476
  129OSM   H15B13812   0.726   3.457   6.050 -1.9595  2.0762  1.4070
  129OSM   H15C13813   0.858   3.506   5.951 -0.0199  1.2943 -0.0769
  129OSM    C1413814   0.875   3.769   6.016 -0.0568 -0.4645  0.3939
  129OSM   H14A13815   0.839   3.821   5.929 -0.9137  0.3838  1.2182
  129OSM   H14B13816   0.969   3.725   5.988  0.1616  1.7133 -2.8850
  129OSM   H14C13817   0.903   3.845   6.088  2.6446  0.2361 -1.2822
  129OSM    C1313818   0.652   3.744   6.080  0.4659  0.2219 -0.8002
  129OSM   H13A13819   0.617   3.788   5.988 -0.5984  0.6039 -0.2313
  129OSM   H13B13820   0.662   3.830   6.144 -0.0566 -0.1627 -0.1894
  129OSM   H13C13821   0.578   3.678   6.122 -1.4363  3.3089  1.1064
  129OSM    C1213822   0.836   3.649   6.221  0.0152 -0.4590 -0.3764
  129OSM   H12A13823   0.935   3.607   6.225  0.4491 -0.1523 -4.0115
  129OSM   H12B13824   0.780   3.569   6.267 -0.9882 -0.8892 -2.2368
  129OSM    C1113825   0.850   3.780   6.305 -0.0598  0.3955 -0.4875
  129OSM   H11A13826   0.860   3.744   6.410 -0.6496  0.7842 -0.2944
  129OSM   H11B13827   0.749   3.824   6.306  0.4645  1.7116 -2.1754
  129OSM      P13828   1.107   3.845   6.305  0.6607  0.2494  0.6357
  129OSM    O1313829   1.144   3.710   6.266 -0.1075  0.1226 -0.2646
  129OSM    O1413830   1.195   3.950   6.246  0.1176 -0.2581  0.2189
  129OSM    O1113831   1.113   3.849   6.454  1.1719  0.4508 -0.4802
  129OSM    O1213832   0.952   3.870   6.271  0.0109 -0.1568  0.1323
  129OSM    C1S13833   1.111   3.968   6.536 -0.4254 -0.3948 -0.2691
  129OSM    H1S13834   1.004   3.997   6.539 -1.2197 -3.0911  0.3654
  129OSM    H1T13835   1.188   4.044   6.512 -0.3537  0.2615  1.8567
  129OSM     NF13836   1.124   4.034   6.777  0.1135 -0.7756  0.0095
  129OSM    HNF13837   1.199   4.091   6.809  2.1356 -3.2080 -0.1641
  129OSM    C2S13838   1.157   3.930   6.681  1.3950 -0.4509  0.0361
  129OSM    H2S13839   1.099   3.841   6.711 -1.0677  1.6992  2.0831
  129OSM    C3S13840   1.306   3.893   6.680  0.4831  0.2464  0.7336
  129OSM    H3S13841   1.371   3.974   6.641 -0.0038 -0.0384 -0.7113
  129OSM     O313842   1.329   3.779   6.595  0.2849 -0.5668  0.1352
  129OSM    HO313843   1.252   3.778   6.538 -0.0975  0.5924  0.6092
  129OSM    C4S13844   1.354   3.860   6.821 -0.2365 -0.3323  0.3218
  129OSM    H4S13845   1.375   3.950   6.880  0.8843  0.4610 -1.2170
  129OSM    C5S13846   1.372   3.737   6.876 -0.0385 -0.5959 -0.0147
  129OSM    H5S13847   1.361   3.651   6.809 -2.7002  0.0768 -0.5441
  129OSM    C6S13848   1.420   3.714   7.013 -0.3952 -0.3385  0.0168
  129OSM    H6S13849   1.524   3.751   7.028 -0.2848 -0.1007 -1.2663
  129OSM    H6T13850   1.407   3.609   7.046 -0.7148 -0.6468 -1.0749
  129OSM    C7S13851   1.351   3.812   7.119  0.1321 -0.0170 -0.2034
  129OSM    H7S13852   1.241   3.804   7.103  0.3850 -1.6880 -1.4039
  129OSM    H7T13853   1.371   3.915   7.085  0.8885  0.0001  0.2781
  129OSM    C8S13854   1.375   3.770   7.257  0.4291 -0.4124 -0.1040
  129OSM    H8S13855   1.485   3.778   7.254  0.3467  0.5065 -1.2915
  129OSM    H8T13856   1.359   3.661   7.274  0.7595 -0.1318  2.4321
  129OSM    C9S13857   1.322   3.867   7.367  1.1180  0.5591 -0.3289
  129OSM    H9S13858   1.216   3.837   7.379  1.2702 -0.1976 -0.7846
  129OSM    H9T13859   1.332   3.970   7.327 -0.2060  0.4268 -1.0495
  129OSM   C10S13860   1.382   3.852   7.507  0.8722 -0.4628  0.2117
  129OSM   H10S13861   1.492   3.837   7.496  1.1506  0.9800  0.7827
  129OSM   H10T13862   1.354   3.751   7.545  1.6642 -0.7962 -0.0471
  129OSM   C11S13863   1.349   3.960   7.608  0.0008  0.5890  0.4201
  129OSM   H11S13864   1.243   3.991   7.599  0.0194  1.2444  2.0082
  129OSM   H11T13865   1.423   4.043   7.601  0.7709 -0.2663 -3.1270
  129OSM   C12S13866   1.345   3.899   7.753  0.7755  0.1079 -0.4147
  129OSM   H12S13867   1.448   3.869   7.784  0.4737 -1.9011 -1.1975
  129OSM   H12T13868   1.283   3.807   7.753  2.0594 -0.7895 -0.5105
  129OSM   C13S13869   1.297   4.003   7.852  0.5031  0.2468 -0.4581
  129OSM   H13S13870   1.315   3.950   7.948  0.4568 -0.1111 -0.6461
  129OSM   H13T13871   1.192   4.035   7.837  0.4569  1.2978  1.7799
  129OSM   C14S13872   1.383   4.124   7.859 -0.0338  0.2573 -0.6684
  129OSM   H14S13873   1.377   4.190   7.771  0.2613 -0.2786 -1.0975
  129OSM   H14T13874   1.485   4.083   7.873 -0.0177  0.8285  1.1960
  129OSM   C15S13875   1.352   4.199   7.989 -0.0822 -0.2940 -0.0547
  129OSM   H15S13876   1.249   4.168   8.017 -0.0291  0.5777  1.1956
  129OSM   H15T13877   1.344   4.309   7.976  1.1929 -0.2511 -0.5966
  129OSM   C16S13878   1.431   4.160   8.112 -0.4865  0.4655  0.6170
  129OSM   H16S13879   1.532   4.204   8.102  0.3432 -0.7575  2.8480
  129OSM   H16T13880   1.451   4.050   8.116 -0.2123  0.5380  3.2846
  129OSM   C17S13881   1.380   4.203   8.252 -0.3586  0.5439  0.0499
  129OSM   H17S13882   1.441   4.153   8.330  2.3779  1.8356 -1.1234
  129OSM   H17T13883   1.270   4.191   8.262 -0.3385  1.5425  1.8534
  129OSM   C18S13884   1.378   4.360   8.272 -0.2453  0.0179 -0.3711
  129OSM   H18S13885   1.313   4.390   8.188 -0.1993 -0.2533 -0.5043
  129OSM   H18T13886   1.479   4.402   8.249 -1.2266  1.7008 -1.8393
  129OSM   H18U13887   1.330   4.390   8.368  0.2968  1.1684 -0.4284
  129OSM    C1F13888   1.002   4.062   6.822 -0.3301 -0.6652  0.2912
  129OSM     OF13889   0.898   4.012   6.784 -0.4421  0.0654  0.2469
  129OSM    C2F13890   1.005   4.167   6.929 -0.3465 -0.2736 -0.2178
  129OSM    H2F13891   1.040   4.263   6.884 -2.2471 -0.3229 -1.9262
  129OSM    H2G13892   1.070   4.135   7.014  0.0534  0.3403 -0.2833
  129OSM    C3F13893   0.863   4.189   6.989 -0.3430 -0.0991 -0.5305
  129OSM    H3F13894   0.828   4.093   7.033 -1.7902  0.0496 -1.3192
  129OSM    H3G13895   0.793   4.210   6.906 -1.4033 -2.4685 -0.3144
  129OSM    C4F13896   0.857   4.306   7.088 -0.1537  0.4086 -0.5022
  129OSM    H4F13897   0.760   4.327   7.139  0.1866 -1.4623  1.0371
  129OSM    H4G13898   0.877   4.393   7.022  0.5199  0.1037 -0.7097
  129OSM    C5F13899   0.970   4.308   7.198  0.5971 -1.2382  0.0794
  129OSM    H5F13900   0.958   4.411   7.238 -2.0524 -1.7395  0.7566
  129OSM    H5G13901   1.070   4.291   7.151  0.1787 -0.8867 -0.9691
  129OSM    C6F13902   0.948   4.214   7.313  0.4935 -0.1801 -0.4104
  129OSM    H6F13903   0.976   4.111   7.284  2.3689  0.0825  0.3425
  129OSM    H6G13904   0.839   4.227   7.332  0.9150  2.3105  0.7123
  129OSM    C7F13905   1.019   4.276   7.435 -0.7227  0.4564 -0.7167
  129OSM    H7F13906   0.985   4.381   7.440 -1.3283  0.2409 -0.2080
  129OSM    H7G13907   1.128   4.281   7.418 -0.4668  0.1892  0.7257
  129OSM    C8F13908   0.999   4.204   7.569  0.2130 -0.3192 -0.5058
  129OSM    H8F13909   1.063   4.261   7.639 -2.0214  1.5318  0.1442
  129OSM    H8G13910   1.033   4.098   7.559 -4.2940 -1.9241 -1.3961
  129OSM    C9F13911   0.854   4.194   7.608 -0.1964 -0.5381 -0.1362
  129OSM    H9F13912   0.784   4.149   7.536  0.4629 -1.7252 -0.0587
  129OSM   C10F13913   0.808   4.232   7.729 -0.1078  0.3868  0.1165
  129OSM   H10F13914   0.698   4.234   7.729 -0.1604  1.0831 -2.5030
  129OSM   C11F13915   0.883   4.301   7.837  0.3012  0.6031 -0.2997
  129OSM   H11F13916   0.827   4.390   7.873  2.3292  1.7112  0.2943
  129OSM   H11G13917   0.973   4.345   7.788 -0.1183  1.1756 -0.5759
  129OSM   C12F13918   0.917   4.215   7.962 -0.0635 -0.1546  0.6380
  129OSM   H12F13919   0.973   4.288   8.024  2.6224 -2.7728  1.5373
  129OSM   H12G13920   0.983   4.132   7.930  1.2800  2.1165 -3.1772
  129OSM   C13F13921   0.797   4.170   8.046  0.0888  0.0462  0.0943
  129OSM   H13F13922   0.728   4.101   7.993 -0.0449  2.2161 -2.8072
  129OSM   H13G13923   0.728   4.257   8.061 -1.7848 -1.1482 -1.1664
  129OSM   C14F13924   0.839   4.089   8.168  0.1857 -0.0316  0.1433
  129OSM   H14F13925   0.914   4.158   8.213  0.9961  0.3936 -1.7203
  129OSM   H14G13926   0.883   3.995   8.129 -0.3937 -0.3675  0.2970
  129OSM   C15F13927   0.731   4.060   8.267 -0.6831  0.0784 -1.2510
  129OSM   H15F13928   0.646   4.018   8.209 -2.1496  2.0953 -0.6803
  129OSM   H15G13929   0.686   4.152   8.310  1.5158  1.5909 -1.9933
  129OSM   C16F13930   0.771   3.974   8.378  0.4335  0.8242 -0.0011
  129OSM   H16F13931   0.870   4.014   8.407  1.5679 -1.2637 -0.7879
  129OSM   H16G13932   0.794   3.873   8.338 -0.2396  0.7017 -0.1006
  129OSM   C17F13933   0.670   3.959   8.497 -0.1812 -0.4381  0.0483
  129OSM   H17F13934   0.598   3.878   8.474 -1.1375 -0.9587  4.1627
  129OSM   H17G13935   0.622   4.058   8.514 -1.2381 -0.6873 -1.2829
  129OSM   C18F13936   0.749   3.918   8.624  0.2810 -0.2447  0.1204
  129OSM   H18F13937   0.781   3.812   8.615  1.8664  0.1008  1.3023
  129OSM   H18G13938   0.678   3.925   8.709  0.2357  2.8691 -0.0669
  129OSM   H18H13939   0.825   3.996   8.647 -2.5850  2.8939 -0.3089
  130OSM      N13940   3.577   4.432   5.883 -0.8068 -0.5537 -0.2767
  130OSM    C1513941   3.438   4.462   5.912 -0.3298 -0.1945  0.6773
  130OSM   H15A13942   3.397   4.533   5.842  1.6703  1.0160  0.6563
  130OSM   H15B13943   3.439   4.506   6.011  3.1872 -0.1824  0.7575
  130OSM   H15C13944   3.375   4.375   5.915 -0.0806 -0.3696  0.8836
  130OSM    C1413945   3.575   4.372   5.745 -0.7686 -0.2486  0.4842
  130OSM   H14A13946   3.518   4.280   5.739 -1.6796  0.3018  0.4691
  130OSM   H14B13947   3.670   4.358   5.696 -1.5636  1.4819 -1.7500
  130OSM   H14C13948   3.515   4.434   5.679  1.2329 -0.5750 -1.7916
  130OSM    C1313949   3.653   4.562   5.897 -0.4540 -0.1229 -0.3239
  130OSM   H13A13950   3.629   4.630   5.816  0.9084 -0.0642 -0.7131
  130OSM   H13B13951   3.756   4.540   5.872 -0.1795  3.1143 -2.7418
  130OSM   H13C13952   3.647   4.604   5.996 -2.2155 -1.1544  0.0332
  130OSM    C1213953   3.631   4.336   5.988  0.2943  0.3130 -0.2789
  130OSM   H12A13954   3.737   4.324   5.972  0.5740 -0.5494  1.8352
  130OSM   H12B13955   3.576   4.244   5.976  1.8867 -0.7898  0.5880
  130OSM    C1113956   3.624   4.380   6.138  0.1323 -0.6610 -0.3650
  130OSM   H11A13957   3.680   4.474   6.152 -2.6269  1.1493 -0.7452
  130OSM   H11B13958   3.680   4.301   6.193 -1.0233 -0.3257  1.3628
  130OSM      P13959   3.401   4.269   6.222 -0.5094 -0.1418  0.3431
  130OSM    O1313960   3.278   4.321   6.268  0.4283  0.6383  0.1316
  130OSM    O1413961   3.403   4.173   6.112  0.3752  0.3745 -1.0271
  130OSM    O1113962   3.466   4.210   6.344 -0.8135 -0.2018 -0.6168
  130OSM    O1213963   3.491   4.399   6.188  0.2196  0.4314  0.5388
  130OSM    C1S13964   3.533   4.295   6.443 -0.3389 -0.6608  0.5626
  130OSM    H1S13965   3.548   4.398   6.406 -2.7492 -0.4960 -0.1099
  130OSM    H1T13966   3.627   4.241   6.467 -1.6507 -2.8263  1.0870
  130OSM     NF13967   3.487   4.412   6.652 -0.6428 -0.1847  0.2230
  130OSM    HNF13968   3.538   4.385   6.733  0.6111 -1.5291 -0.9632
  130OSM    C2S13969   3.444   4.302   6.568 -0.5731  0.0678  0.1155
  130OSM    H2S13970   3.343   4.329   6.532 -0.2389  0.2174 -0.7490
  130OSM    C3S13971   3.431   4.160   6.623 -0.1135  0.6107 -0.1489
  130OSM    H3S13972   3.532   4.129   6.658  0.3383  1.6468 -0.4751
  130OSM     O313973   3.380   4.060   6.531  0.1950  0.2871  0.0449
  130OSM    HO313974   3.379   4.104   6.446 -1.1609 -0.2959 -0.2661
  130OSM    C4S13975   3.339   4.167   6.747  0.6150  0.9484 -0.0255
  130OSM    H4S13976   3.393   4.181   6.841  0.3476  1.3883  0.0632
  130OSM    C5S13977   3.203   4.150   6.746  0.2581 -0.2044 -0.4139
  130OSM    H5S13978   3.140   4.112   6.664 -1.7258 -1.6858  1.6605
  130OSM    C6S13979   3.114   4.162   6.864 -0.6123  0.5674  0.2171
  130OSM    H6S13980   3.073   4.059   6.869 -3.2971  1.0463 -4.7240
  130OSM    H6T13981   3.025   4.226   6.846 -1.0820  0.0807  0.7666
  130OSM    C7S13982   3.167   4.197   7.005  0.3893  0.5452  0.0834
  130OSM    H7S13983   3.241   4.280   6.998  1.6964 -0.6433 -1.0187
  130OSM    H7T13984   3.230   4.110   7.036  0.2609 -0.1382 -1.5060
  130OSM    C8S13985   3.057   4.221   7.111  0.4962 -0.1213 -0.0201
  130OSM    H8S13986   3.008   4.122   7.123  2.5580 -1.2209 -0.1880
  130OSM    H8T13987   2.974   4.282   7.069  0.1224 -1.8270 -1.9460
  130OSM    C9S13988   3.099   4.266   7.254  0.4265 -0.3056 -0.4292
  130OSM    H9S13989   3.113   4.376   7.248  2.4340 -0.4823  0.1703
  130OSM    H9T13990   3.191   4.213   7.285  1.3454  1.4686  0.0079
  130OSM   C10S13991   3.001   4.251   7.366 -0.2518  0.1241 -0.8228
  130OSM   H10S13992   2.954   4.150   7.358  2.9508 -1.5167 -0.6596
  130OSM   H10T13993   2.916   4.322   7.363 -0.1227  0.5418  2.1740
  130OSM   C11S13994   3.058   4.265   7.512 -0.0398  0.3380  0.3709
  130OSM   H11S13995   3.109   4.363   7.524  2.2190 -0.9332  1.7434
  130OSM   H11T13996   3.143   4.199   7.536 -0.4660  0.4676  2.4007
  130OSM   C12S13997   2.952   4.242   7.618  0.2044 -0.4464  0.1143
  130OSM   H12S13998   2.917   4.137   7.625 -0.3370 -0.2763 -0.0251
  130OSM   H12T13999   2.857   4.293   7.592  1.3617  1.0144 -1.4773
  130OSM   C13S14000   3.004   4.274   7.759 -0.0060 -0.3475  0.9656
  130OSM   H13S14001   3.023   4.382   7.774 -0.0668 -0.3032  0.7245
  130OSM   H13T14002   3.106   4.232   7.770  0.0510 -0.5952 -0.2969
  130OSM   C14S14003   2.909   4.216   7.862 -0.2254 -0.6337 -0.6800
  130OSM   H14S14004   2.918   4.106   7.857  2.0015 -0.5746  0.3891
  130OSM   H14T14005   2.804   4.239   7.834 -0.4698  1.4436  1.5542
  130OSM   C15S14006   2.929   4.263   8.008  0.3027 -0.5769  0.1909
  130OSM   H15S14007   2.915   4.373   8.015 -2.8774 -0.9471  1.0334
  130OSM   H15T14008   3.030   4.241   8.049  1.2796  1.1374 -1.1557
  130OSM   C16S14009   2.822   4.204   8.091  0.5937 -0.1326 -0.0885
  130OSM   H16S14010   2.805   4.101   8.053  0.9881  0.3847 -1.7381
  130OSM   H16T14011   2.731   4.261   8.063  1.4835  1.0113 -0.7197
  130OSM   C17S14012   2.851   4.206   8.238 -0.3031  0.1093  0.2302
  130OSM   H17S14013   2.889   4.307   8.264  3.5037 -1.4718  1.4447
  130OSM   H17T14014   2.936   4.138   8.261  1.3090  2.1560  0.6950
  130OSM   C18S14015   2.729   4.167   8.320  0.1659 -0.0663  0.0274
  130OSM   H18S14016   2.700   4.066   8.287  3.4426 -1.5422  1.2115
  130OSM   H18T14017   2.640   4.231   8.301  0.5931  0.4514 -0.2775
  130OSM   H18U14018   2.732   4.163   8.431 -0.6418  3.5641  0.3074
  130OSM    C1F14019   3.474   4.542   6.622  0.1412  0.0981  0.0797
  130OSM     OF14020   3.432   4.576   6.514 -0.1656 -0.0642  0.2954
  130OSM    C2F14021   3.511   4.642   6.727  0.4585 -0.0122 -0.0183
  130OSM    H2F14022   3.622   4.646   6.737  0.6032  0.2452 -1.4880
  130OSM    H2G14023   3.457   4.619   6.821 -1.0020  0.2500 -0.7626
  130OSM    C3F14024   3.465   4.789   6.686 -0.5544 -0.1400 -0.7492
  130OSM    H3F14025   3.354   4.793   6.681 -0.5887 -1.1336 -1.0166
  130OSM    H3G14026   3.505   4.806   6.584 -1.8967  0.1555 -1.2421
  130OSM    C4F14027   3.522   4.896   6.794 -0.1642 -0.8454  0.5131
  130OSM    H4F14028   3.511   4.997   6.750  0.7153 -0.2128  1.6811
  130OSM    H4G14029   3.633   4.893   6.795 -0.0511  0.4586  3.6243
  130OSM    C5F14030   3.482   4.870   6.938 -0.1628  0.4556 -0.2070
  130OSM    H5F14031   3.553   4.915   7.010 -1.5786 -1.3001  2.4573
  130OSM    H5G14032   3.474   4.764   6.970 -1.4143  1.4623  3.3023
  130OSM    C6F14033   3.344   4.936   6.971 -0.6331  0.3017  0.2376
  130OSM    H6F14034   3.277   4.905   6.888  1.3567 -1.5144 -0.7670
  130OSM    H6G14035   3.364   5.045   6.963 -0.0233  0.1183 -0.8155
  130OSM    C7F14036   3.279   4.904   7.103 -0.3088  0.2130  0.5410
  130OSM    H7F14037   3.228   4.806   7.091  0.0435  0.0282  0.5295
  130OSM    H7G14038   3.210   4.985   7.134 -0.3008 -0.0064  1.1510
  130OSM    C8F14039   3.392   4.872   7.203 -0.3271  0.0656  0.7118
  130OSM    H8F14040   3.469   4.952   7.196 -0.5161  0.2292  0.4571
  130OSM    H8G14041   3.443   4.780   7.167  1.9374  1.5481 -0.0137
  130OSM    C9F14042   3.335   4.875   7.334 -0.2815  0.1610 -0.8423
  130OSM    H9F14043   3.226   4.892   7.326 -0.0720  1.9713 -0.1384
  130OSM   C10F14044   3.383   4.868   7.463  0.5252  0.1641 -0.3118
  130OSM   H10F14045   3.311   4.878   7.546  1.4499 -1.3117  0.7392
  130OSM   C11F14046   3.528   4.835   7.511  0.7294 -0.3635 -0.1001
  130OSM   H11F14047   3.586   4.787   7.429  1.6854 -0.2612  0.5009
  130OSM   H11G14048   3.525   4.751   7.583 -0.2401 -0.6433 -0.4445
  130OSM   C12F14049   3.593   4.945   7.582  0.4526 -0.1509 -0.7777
  130OSM   H12F14050   3.624   5.023   7.509  2.8411 -0.2811  0.0022
  130OSM   H12G14051   3.685   4.902   7.627 -0.0966 -0.3585  0.1636
  130OSM   C13F14052   3.522   5.002   7.703  0.0854  0.0364  0.0760
  130OSM   H13F14053   3.425   5.039   7.664  0.9320  0.4315 -1.7462
  130OSM   H13G14054   3.588   5.089   7.721 -1.3168  1.2831 -0.6210
  130OSM   C14F14055   3.497   4.910   7.821  0.2551  0.2029 -0.4037
  130OSM   H14F14056   3.577   4.919   7.897 -0.9052 -2.2705  1.2438
  130OSM   H14G14057   3.489   4.804   7.787 -3.1848  0.4267 -0.6542
  130OSM   C15F14058   3.356   4.932   7.891 -0.3083  0.0001 -1.5794
  130OSM   H15F14059   3.281   4.926   7.809 -0.6317 -1.3589 -1.2144
  130OSM   H15G14060   3.352   5.035   7.933  0.4785  0.1148 -1.7668
  130OSM   C16F14061   3.311   4.814   7.965 -0.8157  0.0851 -0.1781
  130OSM   H16F14062   3.356   4.725   7.916 -1.0193 -0.5425  0.7440
  130OSM   H16G14063   3.201   4.817   7.948 -0.8325 -0.3184 -0.1570
  130OSM   C17F14064   3.355   4.804   8.113  0.7115  0.2119  0.1567
  130OSM   H17F14065   3.464   4.827   8.115  1.5528 -3.2400  0.6527
  130OSM   H17G14066   3.348   4.694   8.131 -0.4764  0.1410 -0.6244
  130OSM   C18F14067   3.282   4.893   8.207 -0.4869 -0.1265  0.3263
  130OSM   H18F14068   3.176   4.866   8.193 -0.2761 -0.9069  0.1759
  130OSM   H18G14069   3.290   5.000   8.176 -3.0247  0.2484  0.8154
  130OSM   H18H14070   3.305   4.887   8.316  1.0094  1.3002  0.1432
  131OSM      N14071   4.102   2.504   5.920 -0.2393  0.1137  0.1993
  131OSM    C1514072   4.240   2.498   5.849  0.7300  0.5235 -0.4704
  131OSM   H15A14073   4.254   2.559   5.761  0.2872 -0.0155 -0.9234
  131OSM   H15B14074   4.248   2.397   5.811  2.2540  0.4784 -0.0673
  131OSM   H15C14075   4.316   2.509   5.925  1.1375 -0.2730 -0.7496
  131OSM    C1414076   4.070   2.646   5.953 -0.2101  0.6311  0.7865
  131OSM   H14A14077   3.972   2.650   6.000  0.5062  3.4436  2.2208
  131OSM   H14B14078   4.055   2.716   5.872  2.6685 -1.9171 -2.2487
  131OSM   H14C14079   4.152   2.699   5.998  1.6913 -0.9299 -0.6572
  131OSM    C1314080   4.003   2.459   5.817  0.1813  0.2251  0.0914
  131OSM   H13A14081   3.898   2.468   5.840  0.1315  0.9550 -0.3805
  131OSM   H13B14082   4.027   2.354   5.811  1.1633  0.2635  2.3407
  131OSM   H13C14083   4.022   2.486   5.714  0.6850 -1.3397 -0.2468
  131OSM    C1214084   4.087   2.415   6.040  0.6292 -0.2791 -0.0887
  131OSM   H12A14085   3.990   2.433   6.083  0.2552  1.5854 -1.5896
  131OSM   H12B14086   4.150   2.438   6.125  1.6624 -2.5395 -0.1804
  131OSM    C1114087   4.105   2.263   6.013  0.0955 -0.5020 -0.2044
  131OSM   H11A14088   4.137   2.215   6.108 -0.1780  1.6146  1.0077
  131OSM   H11B14089   4.196   2.239   5.954  1.4196  1.0821  1.0983
  131OSM      P14090   3.857   2.167   6.027 -0.1413  0.6278  0.3680
  131OSM    O1314091   3.834   2.274   6.128 -0.4119  0.0542  0.7433
  131OSM    O1414092   3.757   2.147   5.925 -0.5553  0.3490  0.4966
  131OSM    O1114093   3.900   2.023   6.088  0.5968  0.5696  0.4483
  131OSM    O1214094   3.987   2.209   5.959 -0.3371 -0.0934 -0.5615
  131OSM    C1S14095   3.965   2.011   6.212 -0.2760  0.1521 -0.3239
  131OSM    H1S14096   4.016   2.104   6.244 -0.6130  0.4970 -0.7812
  131OSM    H1T14097   4.041   1.931   6.201 -0.5702 -0.1951  0.0979
  131OSM     NF14098   3.954   1.954   6.452 -0.3970 -0.4135 -0.0558
  131OSM    HNF14099   3.972   1.862   6.486 -0.8995  0.6664  3.5243
  131OSM    C2S14100   3.873   1.965   6.331 -1.0205 -0.8353 -0.4554
  131OSM    H2S14101   3.789   2.037   6.341  0.6195  1.3727 -1.6187
  131OSM    C3S14102   3.812   1.832   6.287 -0.6513  0.9295  0.8579
  131OSM    H3S14103   3.890   1.762   6.252  0.1116  2.4076 -0.4889
  131OSM     O314104   3.727   1.834   6.172  0.2758  0.4739 -0.6752
  131OSM    HO314105   3.738   1.919   6.129 -0.4244  1.3455  0.8173
  131OSM    C4S14106   3.741   1.778   6.405 -0.1557  0.2031  0.3217
  131OSM    H4S14107   3.802   1.702   6.457 -0.2369  0.8598  1.4287
  131OSM    C5S14108   3.632   1.832   6.464  0.0499  0.7456  0.6459
  131OSM    H5S14109   3.582   1.921   6.424  3.3544  2.0335 -1.0220
  131OSM    C6S14110   3.575   1.769   6.587 -0.3998  0.6228  0.0809
  131OSM    H6S14111   3.629   1.675   6.614 -0.6052  0.0057 -1.5162
  131OSM    H6T14112   3.469   1.735   6.576 -0.2712  0.1547  0.2622
  131OSM    C7S14113   3.596   1.863   6.711  0.9372 -0.3196  0.5241
  131OSM    H7S14114   3.539   1.824   6.798  0.4390  1.6841  1.1560
  131OSM    H7T14115   3.561   1.966   6.689  2.1368  0.1828  0.8853
  131OSM    C8S14116   3.747   1.886   6.751  0.2048  0.2932 -0.2418
  131OSM    H8S14117   3.777   1.974   6.690  2.2430 -1.0542 -1.3164
  131OSM    H8T14118   3.803   1.796   6.717 -1.9052 -0.7621 -1.0708
  131OSM    C9S14119   3.756   1.909   6.905 -0.0692  0.3114  0.6165
  131OSM    H9S14120   3.691   1.995   6.932 -0.1192  0.4896 -0.0566
  131OSM    H9T14121   3.856   1.944   6.938  1.0955 -1.1201 -1.1925
  131OSM   C10S14122   3.736   1.778   6.987  0.3119 -1.1286 -0.0485
  131OSM   H10S14123   3.641   1.729   6.958 -0.1637 -0.4944  0.4072
  131OSM   H10T14124   3.703   1.809   7.088 -1.6664 -0.8379 -0.7338
  131OSM   C11S14125   3.856   1.690   6.991 -0.0656  0.4613 -0.0889
  131OSM   H11S14126   3.956   1.726   7.025 -0.4200  0.3518  1.0877
  131OSM   H11T14127   3.866   1.667   6.882 -0.3481  0.7798 -0.1826
  131OSM   C12S14128   3.822   1.555   7.060  0.0691  0.7059  0.0871
  131OSM   H12S14129   3.720   1.526   7.025 -0.2325  0.4207  1.1602
  131OSM   H12T14130   3.821   1.570   7.170  1.6211 -0.2461  0.2432
  131OSM   C13S14131   3.928   1.446   7.034 -0.5403 -0.2961  0.5634
  131OSM   H13S14132   4.030   1.483   7.055 -1.4688  0.8291  3.7557
  131OSM   H13T14133   3.918   1.411   6.930  0.1021 -1.3309  0.8374
  131OSM   C14S14134   3.924   1.327   7.126  0.4926  0.0712 -0.2886
  131OSM   H14S14135   3.985   1.240   7.093 -0.1616 -0.5591  0.1494
  131OSM   H14T14136   3.817   1.299   7.128  0.2778  0.5574 -2.3796
  131OSM   C15S14137   3.972   1.362   7.268  0.0693  0.1469 -0.5081
  131OSM   H15S14138   3.921   1.448   7.316 -0.7631 -0.3407 -0.5095
  131OSM   H15T14139   4.081   1.385   7.259 -0.0339  1.0786  0.5086
  131OSM   C16S14140   3.946   1.251   7.366 -0.9260 -0.5139  0.5706
  131OSM   H16S14141   4.000   1.162   7.329  1.3602  0.5146  1.2249
  131OSM   H16T14142   3.838   1.224   7.368 -1.2761  0.8262  1.7289
  131OSM   C17S14143   3.986   1.285   7.512  0.1771 -0.1690  0.1506
  131OSM   H17S14144   3.959   1.389   7.540 -0.4540 -0.1596 -0.4725
  131OSM   H17T14145   4.097   1.292   7.518  0.2376 -1.5651  1.0880
  131OSM   C18S14146   3.944   1.175   7.609  0.1330 -0.7748 -0.4051
  131OSM   H18S14147   3.976   1.075   7.572  0.1406 -1.0252  0.2559
  131OSM   H18T14148   3.833   1.177   7.614  0.1332 -0.9579  4.3575
  131OSM   H18U14149   3.984   1.200   7.710  1.8504  2.9199 -1.8332
  131OSM    C1F14150   3.993   2.054   6.527 -0.0187 -0.1357  0.0898
  131OSM     OF14151   3.965   2.173   6.503  0.1228 -1.0040  0.8822
  131OSM    C2F14152   4.081   2.021   6.648  0.2172 -0.4125  1.0880
  131OSM    H2F14153   4.183   1.992   6.615  0.5280  1.4005  0.3223
  131OSM    H2G14154   4.037   1.933   6.700  1.7767 -0.6535  2.0702
  131OSM    C3F14155   4.087   2.141   6.744  0.0680 -0.0273  0.3413
  131OSM    H3F14156   3.981   2.160   6.771 -0.7469  0.1467 -2.5844
  131OSM    H3G14157   4.108   2.237   6.691 -0.2873  0.8899  1.8033
  131OSM    C4F14158   4.181   2.124   6.865 -0.5654  0.6986  0.2792
  131OSM    H4F14159   4.177   2.211   6.933 -0.9283  0.1253  1.0002
  131OSM    H4G14160   4.282   2.098   6.824 -0.5422 -0.1213  0.8348
  131OSM    C5F14161   4.128   2.009   6.954  0.3201  0.5215  0.0984
  131OSM    H5F14162   4.127   1.913   6.897 -0.7297  0.4798  0.1737
  131OSM    H5G14163   4.024   2.041   6.975  0.0748 -0.3730  0.3002
  131OSM    C6F14164   4.205   1.994   7.084 -0.1503 -0.8741  0.1997
  131OSM    H6F14165   4.185   2.082   7.149  0.9997 -1.3476  1.2179
  131OSM    H6G14166   4.313   1.982   7.059 -0.0940 -3.6075  1.4527
  131OSM    C7F14167   4.156   1.872   7.161 -0.5168 -0.2388 -0.0624
  131OSM    H7F14168   4.237   1.865   7.237  1.2632  2.3130 -1.5535
  131OSM    H7G14169   4.165   1.777   7.105 -0.4535 -0.2975  0.0492
  131OSM    C8F14170   4.027   1.888   7.244 -0.0706  0.2262 -0.7043
  131OSM    H8F14171   3.947   1.917   7.173 -0.9662  0.3736  0.3417
  131OSM    H8G14172   4.027   1.981   7.304 -2.4541  0.4244 -0.9413
  131OSM    C9F14173   3.986   1.776   7.337 -0.2515  0.1669 -0.2085
  131OSM    H9F14174   3.933   1.694   7.286 -1.5618  0.3649  0.7904
  131OSM   C10F14175   3.985   1.756   7.472  0.1881 -0.7569 -0.3886
  131OSM   H10F14176   3.945   1.662   7.512  0.3483 -1.8537 -2.6516
  131OSM   C11F14177   4.044   1.856   7.567 -0.2185 -0.5785  0.2426
  131OSM   H11F14178   3.976   1.908   7.637  1.8438  0.3506  1.6739
  131OSM   H11G14179   4.102   1.939   7.520  1.2322 -1.6013  0.1714
  131OSM   C12F14180   4.135   1.784   7.672 -0.4364 -0.3242 -0.0923
  131OSM   H12F14181   4.205   1.715   7.620 -0.5385 -0.1774 -0.4348
  131OSM   H12G14182   4.066   1.722   7.732 -1.9513 -0.9652 -2.3302
  131OSM   C13F14183   4.206   1.881   7.765  0.0046 -0.1288  0.7515
  131OSM   H13F14184   4.140   1.953   7.817  2.8806  4.0859 -0.9297
  131OSM   H13G14185   4.287   1.939   7.717 -0.7070 -2.4844 -3.8913
  131OSM   C14F14186   4.271   1.806   7.888  0.2540  0.3126 -0.1809
  131OSM   H14F14187   4.368   1.855   7.910 -0.0478  0.5744  0.5838
  131OSM   H14G14188   4.304   1.703   7.862  1.0994 -0.0966  2.2327
  131OSM   C15F14189   4.185   1.806   8.013 -0.7045  0.0618  0.3706
  131OSM   H15F14190   4.083   1.767   7.989 -0.1840 -0.1179 -1.7796
  131OSM   H15G14191   4.168   1.908   8.053  0.9695  0.6595 -0.3557
  131OSM   C16F14192   4.232   1.722   8.127 -0.0051 -0.1490  0.0287
  131OSM   H16F14193   4.340   1.740   8.140 -0.2507  2.9292 -1.3350
  131OSM   H16G14194   4.226   1.617   8.093 -2.1273  0.2914 -1.1728
  131OSM   C17F14195   4.141   1.748   8.249 -0.0397  0.5836  0.4084
  131OSM   H17F14196   4.033   1.737   8.224 -0.1381 -2.6129  1.7921
  131OSM   H17G14197   4.165   1.847   8.294  0.0581  0.2527  1.1026
  131OSM   C18F14198   4.165   1.646   8.363 -0.0004  0.4569 -0.1543
  131OSM   H18F14199   4.274   1.626   8.368 -0.3808 -1.5318  1.0649
  131OSM   H18G14200   4.123   1.545   8.342 -0.1034  0.6029 -0.6903
  131OSM   H18H14201   4.124   1.681   8.460  0.5298  0.9907 -0.1190
  132OSM      N14202   3.023   2.192   5.990 -0.6055 -0.3345  0.2423
  132OSM    C1514203   2.979   2.333   6.007  0.1716 -0.1224 -0.1142
  132OSM   H15A14204   2.880   2.351   5.968  0.1188 -0.0662  0.0447
  132OSM   H15B14205   3.047   2.406   5.966 -1.1448  0.0770 -2.0695
  132OSM   H15C14206   2.958   2.351   6.111 -0.0184  2.7602 -0.5653
  132OSM    C1414207   3.044   2.176   5.840  0.3282  0.0560 -0.0320
  132OSM   H14A14208   3.071   2.075   5.812  0.7555 -0.1222  0.9903
  132OSM   H14B14209   3.130   2.236   5.815  0.4684  0.0072  0.3217
  132OSM   H14C14210   2.960   2.208   5.780 -0.6839  0.3589  1.4870
  132OSM    C1314211   3.150   2.165   6.059 -0.2091 -0.7936 -0.5462
  132OSM   H13A14212   3.228   2.224   6.013  1.2452 -1.1914  1.2910
  132OSM   H13B14213   3.171   2.059   6.053 -0.0169 -0.8587  0.8924
  132OSM   H13C14214   3.136   2.188   6.164  1.5599 -0.2376 -0.4071
  132OSM    C1214215   2.915   2.087   6.029 -0.1641  0.0010 -0.0596
  132OSM   H12A14216   2.957   1.991   6.002 -0.4271 -0.5715  1.4882
  132OSM   H12B14217   2.829   2.100   5.964  2.1744  3.5974 -2.8351
  132OSM    C1114218   2.881   2.071   6.173  0.3984 -0.2225  0.4777
  132OSM   H11A14219   2.980   2.071   6.224  0.7228 -1.9888 -0.0906
  132OSM   H11B14220   2.844   1.967   6.187  2.3694 -0.8431  1.5768
  132OSM      P14221   2.781   2.281   6.307  0.1229  0.2584 -0.5537
  132OSM    O1314222   2.897   2.370   6.281  0.5331 -0.2754  0.1849
  132OSM    O1414223   2.643   2.334   6.293 -0.4221 -0.0129 -0.1663
  132OSM    O1114224   2.789   2.215   6.448 -0.1985 -0.2639 -0.0849
  132OSM    O1214225   2.778   2.162   6.208  0.3267 -1.1011 -0.5568
  132OSM    C1S14226   2.808   2.077   6.474  0.4506 -0.0210  0.5494
  132OSM    H1S14227   2.916   2.058   6.456  0.2207 -1.3684  0.4974
  132OSM    H1T14228   2.744   2.017   6.406 -0.5024  2.9886 -1.4191
  132OSM     NF14229   2.836   1.903   6.662 -0.0796 -0.8192  0.4713
  132OSM    HNF14230   2.779   1.821   6.668  0.6471 -1.3388  0.3177
  132OSM    C2S14231   2.786   2.037   6.626 -0.4378  0.0777  0.5762
  132OSM    H2S14232   2.851   2.113   6.675  0.5123  0.2114 -0.8269
  132OSM    C3S14233   2.633   2.064   6.656 -0.0187  0.0042  0.4641
  132OSM    H3S14234   2.574   1.992   6.596 -1.5012  0.0888  1.7341
  132OSM     O314235   2.597   2.203   6.628  0.0878  1.0381  0.0772
  132OSM    HO314236   2.671   2.227   6.572 -0.0938  1.7353  0.1225
  132OSM    C4S14237   2.602   2.038   6.799  0.2685  1.0460 -0.1812
  132OSM    H4S14238   2.683   2.052   6.872 -0.7636 -2.4346  1.8581
  132OSM    C5S14239   2.503   1.968   6.860 -0.7983 -0.1618  0.1562
  132OSM    H5S14240   2.434   1.924   6.786  0.4205 -0.8529 -0.6023
  132OSM    C6S14241   2.504   1.958   7.014 -0.5883 -0.0180  0.0616
  132OSM    H6S14242   2.598   1.985   7.066  0.1710  1.1631 -1.8545
  132OSM    H6T14243   2.479   1.853   7.043 -1.8126 -0.4732 -2.3733
  132OSM    C7S14244   2.390   2.046   7.062  0.2175 -0.4008 -0.2656
  132OSM    H7S14245   2.299   2.021   7.002  1.1077  0.5814 -2.0969
  132OSM    H7T14246   2.405   2.155   7.047  1.4148 -0.5349 -0.1237
  132OSM    C8S14247   2.357   2.032   7.217  0.4844 -1.0168 -0.6509
  132OSM    H8S14248   2.263   2.083   7.247  1.2981  1.1729 -1.6066
  132OSM    H8T14249   2.439   2.098   7.254 -0.4072 -0.4162  0.3118
  132OSM    C9S14250   2.336   1.895   7.271 -0.3595 -0.0410 -0.4437
  132OSM    H9S14251   2.433   1.841   7.262  1.6489  2.8295  2.2083
  132OSM    H9T14252   2.252   1.846   7.218 -0.4266 -0.8163  0.3491
  132OSM   C10S14253   2.299   1.884   7.423 -0.5494 -0.1689  0.3543
  132OSM   H10S14254   2.286   1.775   7.442  4.6590 -1.1978 -0.5587
  132OSM   H10T14255   2.213   1.948   7.452  0.5896  0.6892  1.9943
  132OSM   C11S14256   2.421   1.920   7.513 -0.3863 -0.3389  0.1224
  132OSM   H11S14257   2.463   2.019   7.483 -1.0690  0.2476  1.0404
  132OSM   H11T14258   2.506   1.853   7.491  0.9327  1.7669 -1.5324
  132OSM   C12S14259   2.393   1.914   7.664  0.7551  0.8196 -0.7594
  132OSM   H12S14260   2.324   1.828   7.677  1.6824  0.0671 -0.6358
  132OSM   H12T14261   2.355   2.014   7.692  4.1610  1.3505  2.8979
  132OSM   C13S14262   2.517   1.874   7.743  0.4239  0.7229 -0.1951
  132OSM   H13S14263   2.602   1.937   7.707  2.0408 -0.2011  1.7903
  132OSM   H13T14264   2.537   1.768   7.719 -1.1061  0.2269  0.6143
  132OSM   C14S14265   2.507   1.888   7.899 -0.1624 -0.6391  0.9490
  132OSM   H14S14266   2.404   1.866   7.935 -2.0329 -0.4516 -3.6859
  132OSM   H14T14267   2.520   1.997   7.914  0.5234 -0.7010  0.8169
  132OSM   C15S14268   2.610   1.817   7.984  0.1970 -0.0943 -0.2814
  132OSM   H15S14269   2.710   1.861   7.962 -0.2985  2.3161  1.7649
  132OSM   H15T14270   2.615   1.712   7.947 -1.3488  0.2058 -1.4602
  132OSM   C16S14271   2.577   1.801   8.130 -0.3650 -0.1875  0.2805
  132OSM   H16S14272   2.491   1.732   8.137 -1.2935  0.6259 -2.2800
  132OSM   H16T14273   2.536   1.894   8.174 -2.9236  0.6792 -3.5009
  132OSM   C17S14274   2.696   1.740   8.201 -0.4214  0.0683 -0.2607
  132OSM   H17S14275   2.780   1.812   8.190 -0.9195  0.4715 -1.5353
  132OSM   H17T14276   2.723   1.653   8.138 -0.3992  0.7282 -1.1820
  132OSM   C18S14277   2.679   1.691   8.342  0.7555 -0.3426 -0.2134
  132OSM   H18S14278   2.780   1.666   8.381 -0.2283 -3.6033  0.5474
  132OSM   H18T14279   2.626   1.594   8.355 -1.0141  0.6919  0.7443
  132OSM   H18U14280   2.641   1.778   8.399 -1.9355  0.4934 -2.9554
  132OSM    C1F14281   2.962   1.870   6.651  0.2799 -0.1824 -0.0140
  132OSM     OF14282   3.050   1.957   6.643  0.9364  0.4727  0.0956
  132OSM    C2F14283   2.984   1.727   6.648  0.2504  0.3722  0.2971
  132OSM    H2F14284   3.014   1.695   6.546  0.0873  1.8546 -0.2329
  132OSM    H2G14285   2.911   1.657   6.694  0.5722 -1.5294 -1.8832
  132OSM    C3F14286   3.117   1.708   6.728  0.6667  0.0896 -0.1964
  132OSM    H3F14287   3.113   1.750   6.831  1.3268 -0.7368  0.1693
  132OSM    H3G14288   3.199   1.765   6.680  0.8663  0.0981  0.1567
  132OSM    C4F14289   3.170   1.561   6.725  0.2910 -0.3290 -0.9220
  132OSM    H4F14290   3.178   1.533   6.618  1.3532  1.0994 -1.2454
  132OSM    H4G14291   3.092   1.503   6.779  0.7740 -0.3066 -0.1904
  132OSM    C5F14292   3.301   1.545   6.803 -0.3054  0.0882  0.4405
  132OSM    H5F14293   3.381   1.608   6.758  1.0816 -0.3900  2.1367
  132OSM    H5G14294   3.338   1.440   6.795  0.3310  0.3366 -0.0212
  132OSM    C6F14295   3.279   1.557   6.957 -0.6304  0.1176  0.7738
  132OSM    H6F14296   3.194   1.499   6.999 -0.6465  0.8371  1.7772
  132OSM    H6G14297   3.256   1.665   6.964  0.3033  0.3763 -0.0137
  132OSM    C7F14298   3.400   1.526   7.046 -0.3237  0.3459 -0.2708
  132OSM    H7F14299   3.481   1.590   7.004 -0.4794  2.6894  2.7202
  132OSM    H7G14300   3.433   1.422   7.025  1.8079  1.3812 -2.6207
  132OSM    C8F14301   3.373   1.554   7.195 -0.1613 -0.7443 -0.2011
  132OSM    H8F14302   3.311   1.474   7.240 -0.4757 -0.6601 -0.4789
  132OSM    H8G14303   3.322   1.652   7.204 -0.1072 -0.7510  0.1935
  132OSM    C9F14304   3.508   1.549   7.271 -0.0749 -0.6274 -0.1812
  132OSM    H9F14305   3.562   1.454   7.283  1.5140  0.3051  0.2661
  132OSM   C10F14306   3.554   1.655   7.339 -0.3869 -0.4018 -0.2822
  132OSM   H10F14307   3.639   1.644   7.409 -1.1335  2.1517  1.1535
  132OSM   C11F14308   3.499   1.794   7.368  0.4447 -0.2893 -0.3253
  132OSM   H11F14309   3.449   1.836   7.278 -0.3619 -3.4662 -1.4662
  132OSM   H11G14310   3.579   1.869   7.388  0.4196 -0.4460  0.4180
  132OSM   C12F14311   3.405   1.808   7.494  0.1202 -0.0680  0.1051
  132OSM   H12F14312   3.308   1.760   7.470  0.2505  0.0580 -0.6990
  132OSM   H12G14313   3.387   1.917   7.502  1.1040  0.0475  0.8720
  132OSM   C13F14314   3.467   1.767   7.625 -0.5936 -0.1431 -0.4736
  132OSM   H13F14315   3.525   1.673   7.610  0.0272 -0.0051  0.8814
  132OSM   H13G14316   3.386   1.747   7.699  0.6449 -0.1778  0.9157
  132OSM   C14F14317   3.559   1.868   7.691 -0.3253  0.1060 -0.4147
  132OSM   H14F14318   3.489   1.940   7.739 -0.3753  0.0836 -0.4542
  132OSM   H14G14319   3.608   1.920   7.606 -2.2266  0.8051 -1.1361
  132OSM   C15F14320   3.670   1.806   7.780 -0.3189  0.0784  0.7179
  132OSM   H15F14321   3.737   1.752   7.710 -1.7569 -1.2988  0.3447
  132OSM   H15G14322   3.619   1.741   7.854 -1.5444  1.3749  1.0712
  132OSM   C16F14323   3.746   1.917   7.859  0.3437 -0.0635  0.2101
  132OSM   H16F14324   3.759   2.011   7.802 -0.1654 -0.4701 -0.5900
  132OSM   H16G14325   3.848   1.878   7.882  1.1384  2.1239  0.6363
  132OSM   C17F14326   3.675   1.959   7.987  0.2575 -0.7972  0.2014
  132OSM   H17F14327   3.579   2.009   7.963  1.7423  1.7417 -0.9137
  132OSM   H17G14328   3.740   2.042   8.023  1.9567 -2.1541  0.3631
  132OSM   C18F14329   3.669   1.860   8.100  0.5651 -0.2842  0.0424
  132OSM   H18F14330   3.747   1.790   8.063  2.3635  2.0062 -0.7910
  132OSM   H18G14331   3.572   1.807   8.105 -0.0125  0.8168  1.1065
  132OSM   H18H14332   3.695   1.903   8.199  1.7390 -0.5995 -0.1079
  133OSM      N14333   6.357   1.495   6.202 -0.1558 -0.1876  0.2370
  133OSM    C1514334   6.256   1.403   6.264 -0.3345  0.3922  0.5785
  133OSM   H15A14335   6.275   1.297   6.253 -0.1806  0.2099  2.3258
  133OSM   H15B14336   6.159   1.422   6.221 -0.1612  2.8918  1.1473
  133OSM   H15C14337   6.240   1.417   6.370 -0.2065  0.9331  0.5278
  133OSM    C1414338   6.493   1.423   6.233  0.3773 -0.0148 -0.0387
  133OSM   H14A14339   6.494   1.417   6.341 -3.3670 -0.4896  0.1253
  133OSM   H14B14340   6.575   1.478   6.189  1.9256 -1.6127  0.7414
  133OSM   H14C14341   6.493   1.324   6.190 -0.2231  0.4232 -1.0786
  133OSM    C1314342   6.340   1.493   6.054  0.4283  0.3831  0.4921
  133OSM   H13A14343   6.425   1.538   6.007  0.1365  0.4217  0.0018
  133OSM   H13B14344   6.247   1.533   6.017  0.9205  0.7188 -0.3885
  133OSM   H13C14345   6.340   1.387   6.031 -1.7607  0.5515 -0.5043
  133OSM    C1214346   6.348   1.641   6.243 -0.8705  0.0667  0.1482
  133OSM   H12A14347   6.422   1.687   6.178 -0.4558 -0.3743  0.3008
  133OSM   H12B14348   6.385   1.649   6.344 -0.0958  0.0876 -0.1307
  133OSM    C1114349   6.216   1.715   6.241  0.0444 -0.2100  0.6090
  133OSM   H11A14350   6.181   1.703   6.137  1.3294 -1.0607  0.2504
  133OSM   H11B14351   6.220   1.824   6.264  0.5230 -0.0845 -0.0428
  133OSM      P14352   5.970   1.685   6.344 -0.3496  0.1259 -0.0309
  133OSM    O1314353   5.923   1.727   6.208  0.6719  0.5546 -0.7353
  133OSM    O1414354   5.900   1.579   6.412  0.0377 -0.4072 -0.2972
  133OSM    O1114355   5.968   1.813   6.425  0.0357 -0.4896 -0.0810
  133OSM    O1214356   6.128   1.656   6.342 -0.1831 -0.0315 -0.8304
  133OSM    C1S14357   5.906   1.838   6.546 -0.5158 -0.5522 -0.4643
  133OSM    H1S14358   5.810   1.781   6.551 -0.5178 -0.5133  0.0325
  133OSM    H1T14359   5.879   1.946   6.548  0.1227 -0.3937 -0.1225
  133OSM     NF14360   5.920   1.851   6.787  0.1660 -0.2872 -0.0237
  133OSM    HNF14361   5.944   1.942   6.821  2.2466 -0.8176  0.0612
  133OSM    C2S14362   5.995   1.820   6.674 -0.5076  0.1347 -0.1870
  133OSM    H2S14363   6.028   1.714   6.686  0.6344  0.7602  3.1804
  133OSM    C3S14364   6.128   1.906   6.667 -0.0198  0.2609 -1.2525
  133OSM    H3S14365   6.100   2.014   6.665 -0.9484  0.1776  1.7406
  133OSM     O314366   6.209   1.893   6.546  0.6649 -0.3880 -0.0792
  133OSM    HO314367   6.161   1.826   6.497 -0.1179 -2.5199  3.2504
  133OSM    C4S14368   6.211   1.880   6.788 -0.1073 -0.0479  0.5875
  133OSM    H4S14369   6.242   1.775   6.802 -0.8856 -0.1812  1.3795
  133OSM    C5S14370   6.259   1.980   6.869  0.3256  0.2719  0.1781
  133OSM    H5S14371   6.228   2.085   6.860  0.0641  0.1696 -0.1227
  133OSM    C6S14372   6.352   1.943   6.987  1.0366 -0.2749 -0.0710
  133OSM    H6S14373   6.459   1.949   6.959  0.7928  0.6210 -0.8815
  133OSM    H6T14374   6.352   1.835   7.010 -3.6001 -0.3125  0.6162
  133OSM    C7S14375   6.326   2.013   7.117 -0.5335  0.5765 -0.0580
  133OSM    H7S14376   6.216   2.025   7.130 -0.5677  0.0389  0.1647
  133OSM    H7T14377   6.351   2.121   7.110 -1.7958  0.8192 -1.2297
  133OSM    C8S14378   6.388   1.957   7.239  0.1041 -0.6214 -0.5105
  133OSM    H8S14379   6.499   1.970   7.240  0.6528 -4.2431  0.5752
  133OSM    H8T14380   6.380   1.846   7.236  3.0912 -0.9265 -0.6002
  133OSM    C9S14381   6.327   2.016   7.370 -0.1380 -0.9202  0.7133
  133OSM    H9S14382   6.220   1.991   7.360  0.2384 -1.9120 -1.4144
  133OSM    H9T14383   6.327   2.127   7.383  0.0785 -0.6766 -1.0327
  133OSM   C10S14384   6.380   1.957   7.498 -0.1938  0.6971 -0.5069
  133OSM   H10S14385   6.491   1.953   7.497  0.0812  4.6798 -0.1330
  133OSM   H10T14386   6.327   1.860   7.513 -1.4349  1.5137  0.6529
  133OSM   C11S14387   6.342   2.047   7.619 -0.4898  0.1177 -0.9152
  133OSM   H11S14388   6.232   2.059   7.625 -0.9275 -0.8870 -4.5425
  133OSM   H11T14389   6.378   2.151   7.604  2.2153 -0.3019  1.6405
  133OSM   C12S14390   6.407   1.995   7.746  0.8433 -0.7188 -0.1392
  133OSM   H12S14391   6.517   2.011   7.748  0.9002 -1.1407  0.2305
  133OSM   H12T14392   6.379   1.889   7.755 -1.1281 -0.5088 -2.6864
  133OSM   C13S14393   6.361   2.053   7.877  0.1443 -1.1073 -0.0270
  133OSM   H13S14394   6.254   2.081   7.888  1.4492  4.5266  2.0167
  133OSM   H13T14395   6.419   2.145   7.899 -3.1941  1.1706  0.1308
  133OSM   C14S14396   6.375   1.953   7.997  0.5577 -0.2754 -0.4799
  133OSM   H14S14397   6.472   1.904   7.974  1.8175  1.3920  1.0069
  133OSM   H14T14398   6.294   1.877   7.996  0.1339  0.1596  0.2050
  133OSM   C15S14399   6.371   2.023   8.139 -0.2751  0.8479  0.8815
  133OSM   H15S14400   6.467   2.074   8.159  1.3536 -0.9848 -1.7193
  133OSM   H15T14401   6.372   1.947   8.221 -2.0334 -0.7091 -0.4471
  133OSM   C16S14402   6.261   2.117   8.168  0.0527  0.0705 -0.8705
  133OSM   H16S14403   6.161   2.067   8.168 -0.8994  1.8812 -0.1769
  133OSM   H16T14404   6.255   2.192   8.086 -0.3848  2.0483  0.8971
  133OSM   C17S14405   6.272   2.189   8.304 -0.1419  0.7122  0.1088
  133OSM   H17S14406   6.206   2.279   8.304  0.3883  1.1214 -1.1634
  133OSM   H17T14407   6.379   2.210   8.327 -0.2476 -0.7514  2.2775
  133OSM   C18S14408   6.214   2.101   8.416  0.5386  1.0870  0.4313
  133OSM   H18S14409   6.244   2.153   8.510 -1.2285  2.5771  0.2279
  133OSM   H18T14410   6.255   1.998   8.419  1.2892  1.3629  0.0451
  133OSM   H18U14411   6.103   2.108   8.421  0.5848  3.3161 -0.4668
  133OSM    C1F14412   5.815   1.779   6.819  0.2027 -0.6427  0.0892
  133OSM     OF14413   5.779   1.671   6.770  0.4332 -0.1752  0.0202
  133OSM    C2F14414   5.739   1.852   6.921 -0.2114  0.1533  0.3798
  133OSM    H2F14415   5.632   1.853   6.890 -0.4199  0.4159  1.0990
  133OSM    H2G14416   5.763   1.960   6.914  3.3081 -0.5729 -1.7645
  133OSM    C3F14417   5.751   1.800   7.076 -0.0128  0.2763 -0.2857
  133OSM    H3F14418   5.748   1.690   7.089 -1.6024  0.3334  0.1084
  133OSM    H3G14419   5.671   1.855   7.131 -0.3160  0.6322 -1.0655
  133OSM    C4F14420   5.877   1.854   7.147 -0.0963 -0.5421 -0.1676
  133OSM    H4F14421   5.903   1.958   7.119  2.2024 -0.1994  2.7154
  133OSM    H4G14422   5.962   1.807   7.094 -0.6247  0.5621 -2.0728
  133OSM    C5F14423   5.888   1.822   7.297  0.3682  0.4331 -0.7022
  133OSM    H5F14424   5.996   1.839   7.319  0.5162 -0.7010 -0.5027
  133OSM    H5G14425   5.882   1.712   7.307  0.6439  0.5436  0.8721
  133OSM    C6F14426   5.800   1.915   7.393 -0.0439  0.1182  0.0960
  133OSM    H6F14427   5.713   1.847   7.408  0.4283 -0.8258 -1.3081
  133OSM    H6G14428   5.795   2.011   7.336  2.5455  1.0059  1.2076
  133OSM    C7F14429   5.883   1.942   7.518 -0.4116  0.5710 -0.2152
  133OSM    H7F14430   5.821   1.997   7.592 -3.0682 -0.9363 -1.1689
  133OSM    H7G14431   5.979   1.992   7.492  0.1685 -1.0047 -1.2029
  133OSM    C8F14432   5.923   1.816   7.599  0.1837  0.4812 -0.4395
  133OSM    H8F14433   5.956   1.724   7.546 -0.4091 -0.4242  0.7169
  133OSM    H8G14434   5.822   1.780   7.630  0.9599 -3.0180 -1.5436
  133OSM    C9F14435   6.001   1.850   7.721  0.0687 -0.9557  0.5406
  133OSM    H9F14436   6.095   1.905   7.703 -0.5079 -0.7650 -2.2864
  133OSM   C10F14437   5.975   1.831   7.852  0.4882 -0.0120  0.5280
  133OSM   H10F14438   6.047   1.864   7.929  1.8098 -0.4394 -0.4945
  133OSM   C11F14439   5.849   1.772   7.907 -1.1603  0.0532 -0.9850
  133OSM   H11F14440   5.855   1.661   7.901 -0.0531  0.1157 -1.1534
  133OSM   H11G14441   5.762   1.798   7.843 -0.6211 -0.8873 -2.1541
  133OSM   C12F14442   5.825   1.818   8.057 -0.0817  0.5434  0.4790
  133OSM   H12F14443   5.718   1.798   8.077  0.4151 -0.3822  2.5315
  133OSM   H12G14444   5.826   1.929   8.062  3.3367  0.6146  0.8771
  133OSM   C13F14445   5.912   1.763   8.166  0.6253 -0.1850 -0.5012
  133OSM   H13F14446   6.011   1.806   8.142 -0.6079  2.2647 -1.5174
  133OSM   H13G14447   5.907   1.652   8.175  1.7340 -0.1937  0.2024
  133OSM   C14F14448   5.870   1.835   8.300 -0.0839 -0.3252  0.0711
  133OSM   H14F14449   5.766   1.809   8.326  0.0489 -1.0218 -0.0882
  133OSM   H14G14450   5.870   1.946   8.285 -1.7767 -0.4737 -1.3650
  133OSM   C15F14451   5.958   1.792   8.424  0.3229  0.2792  1.2726
  133OSM   H15F14452   6.058   1.837   8.404  0.2632 -0.8277 -2.2700
  133OSM   H15G14453   5.983   1.684   8.411 -0.1188  0.3849 -0.6718
  133OSM   C16F14454   5.882   1.842   8.553 -0.2742  0.1666 -0.1776
  133OSM   H16F14455   5.805   1.765   8.569  0.7712 -1.1439 -1.2342
  133OSM   H16G14456   5.842   1.943   8.531 -0.9101  0.4650  2.0754
  133OSM   C17F14457   5.971   1.843   8.677 -0.1137  0.3421 -0.0141
  133OSM   H17F14458   5.922   1.889   8.765  1.9285  1.8621  0.4147
  133OSM   H17G14459   6.053   1.916   8.655  1.4780 -0.9728  1.2631
  133OSM   C18F14460   6.024   1.704   8.720 -0.1229 -0.5441 -0.2869
  133OSM   H18F14461   5.938   1.649   8.763  0.3419 -2.5652 -1.7702
  133OSM   H18G14462   6.108   1.703   8.793 -0.5299  0.4033  0.2168
  133OSM   H18H14463   6.050   1.653   8.625  0.3599 -1.1893  0.1833
  134OSM      N14464   4.191   4.568   6.202 -0.7102  0.4076 -0.3189
  134OSM    C1514465   4.208   4.440   6.141 -0.8203 -0.4276 -0.0992
  134OSM   H15A14466   4.160   4.439   6.044 -0.2735 -0.5733 -0.3741
  134OSM   H15B14467   4.158   4.364   6.200 -1.0992  0.3399  0.6703
  134OSM   H15C14468   4.314   4.423   6.130 -0.9618 -0.8818 -0.8175
  134OSM    C1414469   4.282   4.661   6.135  0.4177  0.4715  0.4591
  134OSM   H14A14470   4.265   4.673   6.029 -1.8228  1.7472  0.8895
  134OSM   H14B14471   4.384   4.629   6.148  0.1960 -1.4397 -1.6574
  134OSM   H14C14472   4.277   4.756   6.185  0.9853  0.7753 -0.0599
  134OSM    C1314473   4.049   4.605   6.203  0.2077  0.0494  0.2343
  134OSM   H13A14474   3.987   4.547   6.269 -0.2673 -0.8773 -0.9972
  134OSM   H13B14475   4.008   4.601   6.104  3.1703  1.7163 -1.1913
  134OSM   H13C14476   4.027   4.707   6.233 -0.0162  0.8062 -2.2950
  134OSM    C1214477   4.237   4.572   6.346  0.9782  0.1919 -0.0900
  134OSM   H12A14478   4.168   4.515   6.407 -0.6218 -0.5900 -2.4839
  134OSM   H12B14479   4.231   4.675   6.378  0.6548 -0.0655  0.7043
  134OSM    C1114480   4.373   4.524   6.401  0.0600  0.2141  0.5934
  134OSM   H11A14481   4.379   4.419   6.366  0.0252  1.0526 -2.1598
  134OSM   H11B14482   4.368   4.525   6.512 -2.1245  0.3524  0.5325
  134OSM      P14483   4.604   4.553   6.277  0.1526  0.1478 -0.2434
  134OSM    O1314484   4.557   4.457   6.179  0.1030 -0.0506  0.4231
  134OSM    O1414485   4.694   4.658   6.223  0.3117 -0.2908 -0.4264
  134OSM    O1114486   4.680   4.473   6.381  0.1275  0.6380 -0.0351
  134OSM    O1214487   4.475   4.610   6.353  1.0173 -0.1220  0.1677
  134OSM    C1S14488   4.711   4.513   6.521 -0.7768 -0.1444 -0.0230
  134OSM    H1S14489   4.636   4.581   6.567 -0.5962 -0.6343  1.0103
  134OSM    H1T14490   4.806   4.569   6.518 -0.5493 -0.5311 -2.2891
  134OSM     NF14491   4.721   4.421   6.761 -0.0548  0.0889  0.7322
  134OSM    HNF14492   4.809   4.454   6.796  0.5272 -1.8810  1.2471
  134OSM    C2S14493   4.728   4.389   6.620  0.1616  0.4834  0.3861
  134OSM    H2S14494   4.648   4.319   6.590  0.1005  0.2589  1.0648
  134OSM    C3S14495   4.860   4.317   6.583  0.0856 -0.2263 -0.7952
  134OSM    H3S14496   4.945   4.385   6.603 -1.4854  1.5214  0.1490
  134OSM     O314497   4.866   4.281   6.445  0.0566 -0.3850  0.4206
  134OSM    HO314498   4.788   4.324   6.410 -1.5736 -1.9438  1.9440
  134OSM    C4S14499   4.867   4.192   6.670 -0.0333 -0.7096 -0.5837
  134OSM    H4S14500   4.784   4.120   6.669 -1.0146  0.4026 -1.3876
  134OSM    C5S14501   4.969   4.179   6.752  0.2044  0.3291 -0.1921
  134OSM    H5S14502   5.042   4.262   6.755 -0.4759  0.9074  0.6522
  134OSM    C6S14503   4.980   4.054   6.831 -0.5178 -0.2237  0.6533
  134OSM    H6S14504   5.060   3.992   6.786 -0.9067 -1.7077  1.9146
  134OSM    H6T14505   4.886   3.996   6.818  0.0570 -1.0643  0.1480
  134OSM    C7S14506   5.007   4.079   6.978 -0.2310  1.1247 -0.0907
  134OSM    H7S14507   4.924   4.142   7.017 -0.0195  0.7010  1.1065
  134OSM    H7T14508   5.106   4.128   6.969 -0.5488  2.3292  2.1077
  134OSM    C8S14509   5.019   3.956   7.064  0.4585  0.3773 -0.2686
  134OSM    H8S14510   5.065   3.977   7.163  1.6308  0.9510 -0.9066
  134OSM    H8T14511   5.087   3.888   7.009  1.8096  2.1784 -0.9253
  134OSM    C9S14512   4.884   3.890   7.107 -1.1020  0.1563  0.1480
  134OSM    H9S14513   4.853   3.853   7.006  3.1673 -3.0937 -0.2043
  134OSM    H9T14514   4.809   3.965   7.142 -1.4048 -0.8801  1.8214
  134OSM   C10S14515   4.907   3.779   7.207 -0.4850 -0.0368  0.0505
  134OSM   H10S14516   4.981   3.710   7.160 -0.9004 -1.7959  1.8678
  134OSM   H10T14517   4.824   3.705   7.208  0.8356 -1.6178 -1.0612
  134OSM   C11S14518   4.948   3.816   7.347 -0.3275 -0.5119  0.9916
  134OSM   H11S14519   5.057   3.835   7.337 -0.3537 -0.6971  0.2356
  134OSM   H11T14520   4.951   3.728   7.414 -1.4219 -1.6599 -0.3988
  134OSM   C12S14521   4.880   3.935   7.408 -0.9653  0.1994  0.6899
  134OSM   H12S14522   4.774   3.919   7.439 -2.4504  3.7792 -1.8123
  134OSM   H12T14523   4.890   4.024   7.342 -1.1820 -0.0833  0.2783
  134OSM   C13S14524   4.940   3.975   7.547  0.6231  0.0674 -0.2730
  134OSM   H13S14525   4.867   4.046   7.591  0.2859 -1.6840  2.2872
  134OSM   H13T14526   5.031   4.039   7.544  1.0048 -0.5091 -1.8113
  134OSM   C14S14527   4.975   3.859   7.643  0.1115  0.5322 -0.0777
  134OSM   H14S14528   5.061   3.812   7.590  0.5160  0.9361  0.2137
  134OSM   H14T14529   4.895   3.782   7.636 -1.3394  2.0883 -1.6722
  134OSM   C15S14530   4.997   3.914   7.789  0.2993  0.2063 -0.1791
  134OSM   H15S14531   4.944   4.010   7.810 -0.0445 -0.2938  1.3864
  134OSM   H15T14532   5.103   3.944   7.802  0.0767  2.2974 -2.4815
  134OSM   C16S14533   4.944   3.826   7.902 -0.1050  0.4434  0.0400
  134OSM   H16S14534   4.999   3.730   7.904  0.2574  0.6613  1.3710
  134OSM   H16T14535   4.835   3.824   7.882 -0.2975  1.2399  0.9356
  134OSM   C17S14536   4.963   3.874   8.045 -0.4588  0.0356 -0.1030
  134OSM   H17S14537   4.925   3.977   8.057  0.0003  0.0059  2.0736
  134OSM   H17T14538   5.071   3.882   8.068 -0.1692  3.7531 -2.0502
  134OSM   C18S14539   4.900   3.786   8.150  0.2382 -0.1530  0.1341
  134OSM   H18S14540   4.877   3.857   8.233  0.6935  1.7889 -1.3259
  134OSM   H18T14541   4.972   3.709   8.185  0.6682 -0.8933 -2.2026
  134OSM   H18U14542   4.813   3.730   8.110  2.6546 -1.8352 -3.2244
  134OSM    C1F14543   4.606   4.451   6.817  0.0869 -0.5421 -0.4852
  134OSM     OF14544   4.500   4.436   6.755  0.4150  0.1966  0.0723
  134OSM    C2F14545   4.609   4.501   6.957 -0.6480  0.2131 -0.8054
  134OSM    H2F14546   4.511   4.546   6.984  0.5020  1.2659  1.9666
  134OSM    H2G14547   4.680   4.586   6.966 -3.8455  3.0457 -0.1042
  134OSM    C3F14548   4.648   4.381   7.043  0.0348  0.3412  0.5565
  134OSM    H3F14549   4.732   4.315   7.011 -0.6465 -0.0907 -0.3996
  134OSM    H3G14550   4.557   4.317   7.039  0.6773 -0.6288  1.0794
  134OSM    C4F14551   4.660   4.418   7.187 -0.1956 -0.3531  0.1946
  134OSM    H4F14552   4.565   4.472   7.208  0.7768  2.0121 -1.1850
  134OSM    H4G14553   4.743   4.490   7.203 -1.5904  1.9758 -2.3015
  134OSM    C5F14554   4.678   4.292   7.274  0.4886  0.2726 -0.2947
  134OSM    H5F14555   4.765   4.235   7.234 -0.2520 -0.2495 -1.2180
  134OSM    H5G14556   4.594   4.222   7.254  0.4280 -0.2442  1.6257
  134OSM    C6F14557   4.701   4.322   7.422 -0.0450 -0.3346  1.0061
  134OSM    H6F14558   4.788   4.391   7.428  0.4738 -0.5572 -2.1503
  134OSM    H6G14559   4.726   4.225   7.470 -0.9296 -0.9669  0.2318
  134OSM    C7F14560   4.577   4.383   7.492 -0.0302  0.4008 -0.0286
  134OSM    H7F14561   4.494   4.313   7.470 -1.1926  1.1621  1.6844
  134OSM    H7G14562   4.546   4.480   7.447 -0.7664  0.1017 -0.1663
  134OSM    C8F14563   4.589   4.399   7.642 -0.5129 -0.0391  0.5897
  134OSM    H8F14564   4.623   4.300   7.678  2.4966  1.1105  1.1870
  134OSM    H8G14565   4.491   4.432   7.682 -1.6627 -0.9323 -1.3464
  134OSM    C9F14566   4.700   4.492   7.681  0.1344  0.6919 -0.0400
  134OSM    H9F14567   4.697   4.595   7.644  2.1493  0.3829 -1.2004
  134OSM   C10F14568   4.807   4.457   7.760 -0.6522 -0.3620  0.0969
  134OSM   H10F14569   4.883   4.533   7.779  0.3797 -0.8781 -1.7175
  134OSM   C11F14570   4.834   4.325   7.837 -1.0880  0.6602 -0.1051
  134OSM   H11F14571   4.915   4.265   7.792 -1.3857  0.5441 -0.4935
  134OSM   H11G14572   4.749   4.253   7.840 -1.2167  0.7025 -1.6723
  134OSM   C12F14573   4.869   4.347   7.984 -0.1396 -0.2153 -0.3115
  134OSM   H12F14574   4.966   4.400   7.977 -0.5268  0.6269  0.3744
  134OSM   H12G14575   4.890   4.260   8.049 -1.1997  0.6609  1.3021
  134OSM   C13F14576   4.757   4.429   8.057  0.5322 -0.4935 -0.6620
  134OSM   H13F14577   4.660   4.375   8.052 -0.1026  0.5763 -0.2647
  134OSM   H13G14578   4.742   4.524   8.002 -1.1929 -0.6257 -0.4968
  134OSM   C14F14579   4.796   4.450   8.205 -0.3886  0.0098  0.0075
  134OSM   H14F14580   4.883   4.518   8.200 -0.3147  0.0146  1.1442
  134OSM   H14G14581   4.823   4.351   8.246 -1.7726 -0.6974 -0.6844
  134OSM   C15F14582   4.696   4.521   8.283  0.0779 -0.1482  1.0076
  134OSM   H15F14583   4.595   4.482   8.309 -0.0081  0.6229  1.8963
  134OSM   H15G14584   4.678   4.616   8.229  0.4981 -0.3146  0.5739
  134OSM   C16F14585   4.754   4.543   8.419  0.0551  0.5895  0.1820
  134OSM   H16F14586   4.850   4.598   8.406  0.6679 -0.8791 -2.3896
  134OSM   H16G14587   4.790   4.451   8.470  1.8355  2.1123  1.8243
  134OSM   C17F14588   4.674   4.612   8.538 -0.3685 -0.0520  0.4357
  134OSM   H17F14589   4.581   4.549   8.538 -0.4782  0.0407  2.3168
  134OSM   H17G14590   4.658   4.719   8.515  0.1706  0.4545  2.2800
  134OSM   C18F14591   4.736   4.593   8.675 -0.5178  0.0281 -0.7813
  134OSM   H18F14592   4.725   4.488   8.710  2.7991  0.0823  0.7433
  134OSM   H18G14593   4.694   4.665   8.749  1.1918 -0.5576  0.8024
  134OSM   H18H14594   4.844   4.615   8.668 -0.3430 -1.1331 -2.1407
  135OSM      N14595   3.658   3.855   6.259  0.2214 -0.3364 -0.3473
  135OSM    C1514596   3.548   3.768   6.196 -0.0787  0.5958  0.2338
  135OSM   H15A14597   3.449   3.798   6.228 -0.2749 -0.8464  1.0573
  135OSM   H15B14598   3.550   3.668   6.237 -4.2276  0.1636 -0.2007
  135OSM   H15C14599   3.556   3.759   6.089  1.4699  1.3775  0.2600
  135OSM    C1414600   3.664   3.992   6.189  0.1611 -0.3797  0.2761
  135OSM   H14A14601   3.724   4.063   6.244  2.3872  0.9822 -3.5632
  135OSM   H14B14602   3.568   4.043   6.187 -0.4748 -1.4545  1.4515
  135OSM   H14C14603   3.699   3.992   6.087 -0.9218  1.0478 -0.1431
  135OSM    C1314604   3.618   3.891   6.405  0.8459  0.0775  0.0947
  135OSM   H13A14605   3.530   3.951   6.415 -1.4595 -2.9741 -0.4340
  135OSM   H13B14606   3.706   3.940   6.444  2.6886 -0.8858 -2.4811
  135OSM   H13C14607   3.606   3.796   6.454  1.3538 -0.2381 -0.3719
  135OSM    C1214608   3.792   3.791   6.251 -0.9255 -0.3041  0.4366
  135OSM   H12A14609   3.818   3.795   6.146 -2.0525 -2.2518  0.0376
  135OSM   H12B14610   3.784   3.690   6.288  0.7167 -0.9822 -0.9209
  135OSM    C1114611   3.909   3.862   6.332  0.7699  0.1312 -0.0796
  135OSM   H11A14612   3.999   3.796   6.332 -0.2085 -1.2701  0.3277
  135OSM   H11B14613   3.871   3.851   6.436  3.3037 -0.2936  0.8539
  135OSM      P14614   3.962   4.113   6.389  0.1307  0.1761  0.1328
  135OSM    O1314615   3.961   4.239   6.310 -0.6186 -0.0177 -0.3937
  135OSM    O1414616   3.867   4.105   6.502 -0.3474 -0.2005  0.4146
  135OSM    O1114617   4.107   4.090   6.446 -0.4757 -0.2329  0.4425
  135OSM    O1214618   3.934   3.995   6.289  0.0933  0.4774  0.1921
  135OSM    C1S14619   4.185   4.188   6.512 -0.1872 -0.3730 -0.8463
  135OSM    H1S14620   4.128   4.277   6.546 -0.2214 -1.5925  2.7214
  135OSM    H1T14621   4.264   4.233   6.449  1.2710  0.9973  1.7997
  135OSM     NF14622   4.286   4.242   6.750  0.1763 -0.4748  0.5491
  135OSM    HNF14623   4.382   4.245   6.776  0.3604 -1.1637 -0.0016
  135OSM    C2S14624   4.245   4.132   6.652 -0.0543 -0.9105 -0.3653
  135OSM    H2S14625   4.158   4.082   6.700 -1.5743  1.6466 -0.2437
  135OSM    C3S14626   4.363   4.034   6.620  0.2643 -0.7803 -0.3237
  135OSM    H3S14627   4.442   4.088   6.563 -1.0328  0.4872 -0.9759
  135OSM     O314628   4.321   3.920   6.543  0.3954 -0.0215 -0.1124
  135OSM    HO314629   4.234   3.944   6.511  0.1214  0.2639  0.8173
  135OSM    C4S14630   4.401   3.974   6.751 -0.0431  0.0578  0.5818
  135OSM    H4S14631   4.323   3.909   6.795  0.2908 -0.6741  0.0982
  135OSM    C5S14632   4.504   4.012   6.833 -0.4790  0.7952 -0.5346
  135OSM    H5S14633   4.577   4.089   6.806 -0.5051  0.7577 -0.7112
  135OSM    C6S14634   4.529   3.951   6.973 -0.1321 -0.3393  0.6933
  135OSM    H6S14635   4.547   4.040   7.038 -0.8947  0.2931  0.0560
  135OSM    H6T14636   4.616   3.882   6.982  0.0308 -0.7060 -2.5194
  135OSM    C7S14637   4.414   3.870   7.026  0.0859 -0.8630 -0.4051
  135OSM    H7S14638   4.389   3.778   6.969 -3.3970 -0.7396  0.6827
  135OSM    H7T14639   4.317   3.925   7.026  0.0129 -0.9902 -0.5479
  135OSM    C8S14640   4.419   3.828   7.174 -0.6297  0.5676 -0.1362
  135OSM    H8S14641   4.521   3.787   7.193 -1.4231 -0.4581  2.4059
  135OSM    H8T14642   4.345   3.746   7.190 -0.0516  0.2797  1.2242
  135OSM    C9S14643   4.403   3.938   7.279  0.3387 -0.2205  0.3996
  135OSM    H9S14644   4.303   3.983   7.265  1.1429  1.2914 -0.7321
  135OSM    H9T14645   4.475   4.019   7.257  0.7573 -0.7407 -0.2161
  135OSM   C10S14646   4.437   3.884   7.419  0.1151  0.2235 -0.3141
  135OSM   H10S14647   4.522   3.811   7.419 -0.7812 -0.8596  0.8307
  135OSM   H10T14648   4.357   3.818   7.458  1.4026 -0.1761  1.8589
  135OSM   C11S14649   4.477   3.986   7.535 -1.0439 -0.0013  0.1975
  135OSM   H11S14650   4.389   4.054   7.543 -0.8667  0.5516 -1.9589
  135OSM   H11T14651   4.565   4.051   7.514 -1.3211 -0.6654 -3.8239
  135OSM   C12S14652   4.517   3.909   7.664  0.8303 -0.1515 -0.1109
  135OSM   H12S14653   4.605   3.844   7.652  2.0194  0.9467  2.0634
  135OSM   H12T14654   4.424   3.859   7.697 -0.5133  2.7447  0.9062
  135OSM   C13S14655   4.549   4.016   7.772  0.5204  0.0646 -0.0804
  135OSM   H13S14656   4.486   4.106   7.757  1.3055  0.8252  1.0332
  135OSM   H13T14657   4.652   4.055   7.764  0.8588 -0.7181  0.3080
  135OSM   C14S14658   4.540   3.952   7.916 -0.9154  0.1218  0.9284
  135OSM   H14S14659   4.580   3.849   7.903  0.5986  0.7846 -0.0310
  135OSM   H14T14660   4.434   3.952   7.949 -0.1951  2.4649  3.6611
  135OSM   C15S14661   4.621   4.031   8.019  0.5233 -0.9622  0.4971
  135OSM   H15S14662   4.595   4.139   8.014 -0.1477 -0.9839  2.6003
  135OSM   H15T14663   4.730   4.015   8.007  0.5171 -0.4646 -0.2822
  135OSM   C16S14664   4.587   3.989   8.159 -0.2946  0.4456 -0.2403
  135OSM   H16S14665   4.635   3.890   8.173 -0.4658 -0.0077 -2.4881
  135OSM   H16T14666   4.476   3.982   8.166 -0.2842  0.8598  0.4476
  135OSM   C17S14667   4.641   4.077   8.271 -0.6408 -0.2913 -0.0163
  135OSM   H17S14668   4.605   4.182   8.264 -0.4273  0.1220  3.5060
  135OSM   H17T14669   4.751   4.078   8.282 -0.8287  0.2546  2.1894
  135OSM   C18S14670   4.581   4.027   8.399  0.5517 -0.0511  0.0766
  135OSM   H18S14671   4.641   4.068   8.484 -0.0676 -1.4001  1.2244
  135OSM   H18T14672   4.581   3.916   8.404 -1.6792 -0.1301 -0.8324
  135OSM   H18U14673   4.473   4.050   8.408  0.2456 -1.3973  0.1700
  135OSM    C1F14674   4.196   4.305   6.823  0.6552 -0.3946  0.1511
  135OSM     OF14675   4.076   4.298   6.802 -0.2922  0.0871  0.4527
  135OSM    C2F14676   4.246   4.392   6.934 -1.0380  0.2679  0.0722
  135OSM    H2F14677   4.234   4.497   6.901 -1.6653 -0.2415 -1.3689
  135OSM    H2G14678   4.351   4.360   6.955 -0.9665  0.3856 -0.1094
  135OSM    C3F14679   4.172   4.375   7.062  0.0999  0.8655 -0.3125
  135OSM    H3F14680   4.133   4.273   7.081  0.6449  0.3006 -1.9762
  135OSM    H3G14681   4.081   4.439   7.060  0.2126  1.0541  0.3460
  135OSM    C4F14682   4.258   4.418   7.181  0.7683 -0.5350 -0.1096
  135OSM    H4F14683   4.306   4.517   7.169  3.4916 -1.4381  2.1534
  135OSM    H4G14684   4.334   4.341   7.205  1.4548  0.4743  1.0504
  135OSM    C5F14685   4.157   4.437   7.302  0.1850 -0.3868  1.0741
  135OSM    H5F14686   4.127   4.336   7.337  0.6174 -0.6704  0.6432
  135OSM    H5G14687   4.059   4.475   7.265  1.0190  0.3869 -0.4649
  135OSM    C6F14688   4.212   4.500   7.425 -0.2911 -0.0369 -0.2706
  135OSM    H6F14689   4.227   4.608   7.407 -0.4954 -0.0785 -0.6953
  135OSM    H6G14690   4.309   4.451   7.451 -0.2777  0.6097  0.9840
  135OSM    C7F14691   4.116   4.468   7.534 -0.4106 -0.4126 -0.0495
  135OSM    H7F14692   4.054   4.376   7.525  0.3388 -0.9430  0.0788
  135OSM    H7G14693   4.051   4.557   7.542  2.4743  1.7400  1.5792
  135OSM    C8F14694   4.197   4.462   7.662  0.6853 -0.2021 -0.8619
  135OSM    H8F14695   4.264   4.550   7.661 -1.4934  1.5768  0.8291
  135OSM    H8G14696   4.261   4.370   7.664  1.8003  0.5626  0.4632
  135OSM    C9F14697   4.114   4.471   7.783  0.3892  0.8826 -0.8703
  135OSM    H9F14698   4.006   4.464   7.767 -0.1696  1.0004  2.2345
  135OSM   C10F14699   4.164   4.486   7.908  0.1853  0.2339 -0.6642
  135OSM   H10F14700   4.098   4.479   7.995  2.3273 -3.1117  0.8713
  135OSM   C11F14701   4.310   4.489   7.944  0.5258 -0.4105  0.2922
  135OSM   H11F14702   4.364   4.485   7.847 -0.6890  2.6299 -0.6338
  135OSM   H11G14703   4.335   4.397   8.001 -0.5265  0.5144  2.3411
  135OSM   C12F14704   4.346   4.613   8.026  0.2912  0.0314 -0.5137
  135OSM   H12F14705   4.318   4.713   7.987 -4.0757  0.0123  1.9269
  135OSM   H12G14706   4.456   4.607   8.040 -0.0623 -0.8022  3.0050
  135OSM   C13F14707   4.273   4.609   8.166 -0.5218  0.1910 -0.2315
  135OSM   H13F14708   4.311   4.523   8.225 -0.8290  0.3360  0.1900
  135OSM   H13G14709   4.162   4.603   8.169 -0.6461  1.0899 -1.8814
  135OSM   C14F14710   4.307   4.731   8.253 -0.0245 -0.4766  0.1210
  135OSM   H14F14711   4.272   4.827   8.210  1.0838 -0.1537 -0.0716
  135OSM   H14G14712   4.415   4.751   8.267  0.3026 -1.8542 -0.2378
  135OSM   C15F14713   4.246   4.728   8.394 -0.6108  0.2119 -0.1642
  135OSM   H15F14714   4.295   4.638   8.436 -0.7611  0.3842  0.3947
  135OSM   H15G14715   4.139   4.699   8.391 -0.6635 -0.5096  3.8271
  135OSM   C16F14716   4.259   4.854   8.487 -0.3201  0.2699 -0.2115
  135OSM   H16F14717   4.217   4.818   8.584  1.5905  0.5679  0.7808
  135OSM   H16G14718   4.195   4.925   8.430  0.6178  0.8894 -0.5164
  135OSM   C17F14719   4.392   4.916   8.511  0.2335  0.8331  0.0218
  135OSM   H17F14720   4.440   4.897   8.413 -2.2965 -1.0686 -0.9694
  135OSM   H17G14721   4.461   4.863   8.580  0.6953  0.3684 -0.7733
  135OSM   C18F14722   4.391   5.064   8.552 -0.1440  0.3042 -0.6509
  135OSM   H18F14723   4.347   5.132   8.476 -0.8548 -0.3454 -0.8374
  135OSM   H18G14724   4.493   5.100   8.577  0.5562 -1.6703 -0.5198
  135OSM   H18H14725   4.332   5.080   8.645  1.1739  1.6460 -0.0076
  136OSM      N14726   4.855   6.523   5.960  0.3566  0.0135  0.2093
  136OSM    C1514727   4.958   6.546   5.852  0.6154 -0.5376  0.1098
  136OSM   H15A14728   4.924   6.559   5.750  0.6852  1.0916  0.2690
  136OSM   H15B14729   5.023   6.460   5.848 -0.4154 -1.3101 -0.8104
  136OSM   H15C14730   5.011   6.637   5.878  0.5629  0.2065 -2.1471
  136OSM    C1414731   4.760   6.635   5.954  0.1869 -0.4331 -0.2654
  136OSM   H14A14732   4.703   6.638   5.862  0.7965  1.7920 -0.6450
  136OSM   H14B14733   4.804   6.733   5.962  1.7391 -1.1066 -0.3782
  136OSM   H14C14734   4.685   6.622   6.031  0.4180 -2.6250 -0.3648
  136OSM    C1314735   4.783   6.396   5.934 -0.1236  0.7922 -0.3076
  136OSM   H13A14736   4.860   6.321   5.928 -0.0227  0.3777  3.8385
  136OSM   H13B14737   4.746   6.398   5.832  1.2566 -1.3787 -0.9076
  136OSM   H13C14738   4.704   6.378   6.006 -3.0591  0.4059 -3.3552
  136OSM    C1214739   4.916   6.515   6.103  0.8831 -0.2076 -0.4623
  136OSM   H12A14740   4.835   6.479   6.165  0.9236 -1.8812 -1.3226
  136OSM   H12B14741   4.932   6.619   6.125 -0.3911  0.3340 -1.9492
  136OSM    C1114742   5.048   6.433   6.129  0.1135  0.2695 -0.0671
  136OSM   H11A14743   5.065   6.456   6.236  0.5833  0.9353 -0.2760
  136OSM   H11B14744   5.133   6.482   6.076 -0.3681  1.3666  0.1320
  136OSM      P14745   4.961   6.192   6.200 -0.4663 -0.2422 -0.0011
  136OSM    O1314746   4.816   6.211   6.209  0.3816 -0.1830 -0.4605
  136OSM    O1414747   5.007   6.052   6.174 -0.2237  0.6721  0.4052
  136OSM    O1114748   5.033   6.238   6.331  0.4279  0.5610  0.1651
  136OSM    O1214749   5.024   6.294   6.097 -0.3522  0.1364 -0.4917
  136OSM    C1S14750   4.958   6.290   6.435  0.6392 -0.6948 -1.0943
  136OSM    H1S14751   4.862   6.248   6.473 -0.8559  3.1662 -0.0811
  136OSM    H1T14752   4.934   6.397   6.419  0.3045 -0.7486 -0.9766
  136OSM     NF14753   4.980   6.304   6.694  0.0923  0.5287  0.3090
  136OSM    HNF14754   4.978   6.390   6.745 -0.6894 -0.1217  1.4145
  136OSM    C2S14755   5.050   6.293   6.563 -0.2134 -0.2777 -0.8795
  136OSM    H2S14756   5.111   6.201   6.569 -1.7545 -1.2510  2.1953
  136OSM    C3S14757   5.157   6.413   6.542 -0.5487  0.1862  0.5281
  136OSM    H3S14758   5.105   6.512   6.549 -0.2524  0.3847  0.0296
  136OSM     O314759   5.210   6.424   6.407 -0.1690 -0.1378 -0.4898
  136OSM    HO314760   5.173   6.347   6.362 -1.8819  0.0015  0.6227
  136OSM    C4S14761   5.267   6.404   6.642 -0.0969  0.7640  0.2781
  136OSM    H4S14762   5.239   6.439   6.743  5.0017  0.3718  2.0800
  136OSM    C5S14763   5.395   6.359   6.623  0.3319  0.1991 -0.6826
  136OSM    H5S14764   5.431   6.324   6.525 -2.7783 -0.2564 -1.7830
  136OSM    C6S14765   5.512   6.366   6.720 -0.2486 -0.2048 -0.0291
  136OSM    H6S14766   5.593   6.431   6.680  0.4475 -1.4365 -0.6902
  136OSM    H6T14767   5.556   6.266   6.736 -2.4648 -1.5493 -1.7533
  136OSM    C7S14768   5.487   6.422   6.856  0.0149  0.6404  0.1204
  136OSM    H7S14769   5.406   6.366   6.907 -0.9737  0.6746 -1.3694
  136OSM    H7T14770   5.460   6.530   6.849 -0.1240  0.6587  0.8604
  136OSM    C8S14771   5.614   6.396   6.948 -0.1611  0.2537 -0.6213
  136OSM    H8S14772   5.697   6.465   6.922 -1.1164  1.6980  0.0311
  136OSM    H8T14773   5.656   6.295   6.926 -1.1060 -0.6124  1.2720
  136OSM    C9S14774   5.578   6.399   7.095 -0.0802 -0.0362  0.4807
  136OSM    H9S14775   5.492   6.336   7.126 -0.8721  0.4128 -0.7303
  136OSM    H9T14776   5.549   6.506   7.105 -1.6057 -0.5350  1.7761
  136OSM   C10S14777   5.686   6.358   7.194 -0.5020 -1.1843 -0.1143
  136OSM   H10S14778   5.787   6.392   7.161 -0.9705 -1.1791 -1.6204
  136OSM   H10T14779   5.704   6.248   7.190  0.8345 -0.9536 -1.7111
  136OSM   C11S14780   5.657   6.420   7.337  0.7738  0.2192  0.1371
  136OSM   H11S14781   5.547   6.429   7.351  0.7356  0.0077 -0.0116
  136OSM   H11T14782   5.703   6.520   7.351 -0.4697  0.9417 -0.7916
  136OSM   C12S14783   5.719   6.331   7.450  0.0243  0.1619 -0.0470
  136OSM   H12S14784   5.825   6.338   7.417  0.3173 -0.3195  0.7657
  136OSM   H12T14785   5.679   6.228   7.450  0.7311 -0.1292 -1.3525
  136OSM   C13S14786   5.695   6.397   7.587  0.0142 -0.0638  0.7163
  136OSM   H13S14787   5.586   6.382   7.602  0.4225 -3.6086  1.0137
  136OSM   H13T14788   5.723   6.503   7.566  0.3725 -0.5494 -1.4889
  136OSM   C14S14789   5.783   6.358   7.708  0.1305 -0.4370  0.4890
  136OSM   H14S14790   5.887   6.392   7.689 -0.7524  2.5976  0.5781
  136OSM   H14T14791   5.785   6.247   7.719 -2.6647 -0.3689  3.2898
  136OSM   C15S14792   5.730   6.422   7.836 -0.3556  0.5918 -0.4338
  136OSM   H15S14793   5.635   6.380   7.874 -0.4360  1.2191  0.0812
  136OSM   H15T14794   5.693   6.521   7.802 -4.2577 -0.2907  0.7820
  136OSM   C16S14795   5.820   6.432   7.957 -0.4074  0.0095  0.0828
  136OSM   H16S14796   5.917   6.473   7.921  0.5343 -2.4889 -0.4902
  136OSM   H16T14797   5.828   6.328   7.994  2.1172  0.0546 -0.1654
  136OSM   C17S14798   5.763   6.525   8.062  0.0521 -0.2245  0.3877
  136OSM   H17S14799   5.653   6.517   8.069  0.0890  0.4788  3.0575
  136OSM   H17T14800   5.784   6.626   8.022 -1.4844 -0.3882 -0.9323
  136OSM   C18S14801   5.829   6.507   8.199 -0.2604 -0.2636  1.0410
  136OSM   H18S14802   5.939   6.499   8.193 -0.4610 -3.3211 -1.0963
  136OSM   H18T14803   5.782   6.418   8.247 -1.1492 -1.2914 -1.5500
  136OSM   H18U14804   5.811   6.595   8.264 -0.5746  1.5448 -1.3510
  136OSM    C1F14805   4.899   6.202   6.724  0.0662 -0.0317 -1.0831
  136OSM     OF14806   4.868   6.109   6.650 -0.1898  0.0838 -0.2130
  136OSM    C2F14807   4.830   6.207   6.864 -0.3717 -0.1814  0.5994
  136OSM    H2F14808   4.905   6.249   6.934  0.5020 -0.6453 -0.0297
  136OSM    H2G14809   4.818   6.101   6.894 -0.8400 -1.1645 -2.6476
  136OSM    C3F14810   4.700   6.284   6.877  0.0174 -0.3681 -0.7189
  136OSM    H3F14811   4.631   6.227   6.811 -1.5245  0.5995 -0.0058
  136OSM    H3G14812   4.712   6.387   6.839  0.5707  1.1049  2.9899
  136OSM    C4F14813   4.639   6.276   7.016  0.2683 -0.0525 -0.6944
  136OSM    H4F14814   4.663   6.173   7.049  1.1292  1.0662  2.5843
  136OSM    H4G14815   4.528   6.287   7.012  0.2643 -0.0630 -0.6169
  136OSM    C5F14816   4.693   6.388   7.109  0.5646  0.0649 -0.0209
  136OSM    H5F14817   4.612   6.409   7.182  0.1309 -0.3031 -0.3886
  136OSM    H5G14818   4.709   6.486   7.058  0.0199  0.1988  0.0610
  136OSM    C6F14819   4.806   6.338   7.193  0.3162 -0.5229  0.6014
  136OSM    H6F14820   4.857   6.425   7.238 -0.4015  1.4251 -2.0894
  136OSM    H6G14821   4.883   6.292   7.127  0.9624  2.4797 -0.8934
  136OSM    C7F14822   4.769   6.232   7.298  0.6481 -0.4617 -0.0872
  136OSM    H7F14823   4.753   6.130   7.257  2.3155 -0.9506  0.3704
  136OSM    H7G14824   4.684   6.272   7.357  0.2610  0.6876 -1.4029
  136OSM    C8F14825   4.889   6.210   7.396  0.7120 -0.4007 -0.6487
  136OSM    H8F14826   4.890   6.303   7.456 -0.0557 -1.9470  1.9049
  136OSM    H8G14827   4.978   6.191   7.333  1.8296 -2.0290  1.3113
  136OSM    C9F14828   4.863   6.099   7.497  0.0966 -0.7372 -0.1552
  136OSM    H9F14829   4.871   5.999   7.452  1.0416 -0.7473  0.0243
  136OSM   C10F14830   4.826   6.112   7.628 -0.7825 -0.6342 -0.6309
  136OSM   H10F14831   4.806   6.018   7.681 -1.5880 -0.8874 -1.3676
  136OSM   C11F14832   4.797   6.240   7.710  0.4586  0.5315  0.7745
  136OSM   H11F14833   4.690   6.250   7.738  0.8304  0.2681  2.3763
  136OSM   H11G14834   4.817   6.325   7.642 -1.5080 -0.7742 -1.6384
  136OSM   C12F14835   4.889   6.244   7.835 -0.3982 -0.4069  0.8379
  136OSM   H12F14836   4.994   6.249   7.800 -0.5222 -1.0353  0.3571
  136OSM   H12G14837   4.892   6.154   7.900  1.9824  0.1051  1.5349
  136OSM   C13F14838   4.869   6.375   7.910  0.2134  0.4882  0.3979
  136OSM   H13F14839   4.764   6.375   7.949  0.5216 -0.1162  1.2549
  136OSM   H13G14840   4.883   6.466   7.848  0.4268  0.9522  1.1130
  136OSM   C14F14841   4.963   6.391   8.022 -0.4566 -0.8139  0.2109
  136OSM   H14F14842   5.069   6.407   7.992 -0.8554  0.3802 -0.6524
  136OSM   H14G14843   4.973   6.302   8.087  0.7062  1.2574  3.0389
  136OSM   C15F14844   4.948   6.514   8.117  0.2673  0.8653 -0.9321
  136OSM   H15F14845   4.841   6.517   8.145  0.0583 -0.7157 -1.4691
  136OSM   H15G14846   4.968   6.610   8.064 -1.7586  1.7828 -0.1469
  136OSM   C16F14847   5.019   6.491   8.256  0.1320 -0.4768  0.5814
  136OSM   H16F14848   5.127   6.508   8.240  0.3410 -2.4983 -0.4587
  136OSM   H16G14849   4.997   6.390   8.299  0.0649 -0.4002  0.7287
  136OSM   C17F14850   4.957   6.604   8.354 -0.0073  0.1442  0.1121
  136OSM   H17F14851   4.846   6.600   8.346 -0.2855  3.3388  0.9638
  136OSM   H17G14852   4.984   6.705   8.319 -1.8495  1.2465  1.6690
  136OSM   C18F14853   4.983   6.594   8.502 -0.3100 -0.5884  0.1164
  136OSM   H18F14854   4.925   6.670   8.559 -2.7249 -1.7660 -0.6500
  136OSM   H18G14855   5.092   6.599   8.523 -0.2463 -0.7221 -0.1775
  136OSM   H18H14856   4.952   6.495   8.540  0.0036 -0.9694 -0.5978
  137OSM      N14857   5.264   5.625   6.336 -0.7429 -0.1428 -1.1601
  137OSM    C1514858   5.227   5.690   6.205 -0.4048 -0.4415 -0.1901
  137OSM   H15A14859   5.277   5.658   6.115  0.8870  0.8568  0.0198
  137OSM   H15B14860   5.255   5.794   6.201  0.2050 -0.6519 -2.2707
  137OSM   H15C14861   5.121   5.682   6.185 -0.2549  0.6457 -1.5714
  137OSM    C1414862   5.400   5.657   6.383 -0.1630  0.0683 -0.4330
  137OSM   H14A14863   5.421   5.761   6.401 -0.2531  0.4367 -2.2843
  137OSM   H14B14864   5.478   5.628   6.315  0.0053  0.2964 -0.3373
  137OSM   H14C14865   5.431   5.592   6.464 -1.1270 -0.6615 -0.6277
  137OSM    C1314866   5.180   5.669   6.448  0.2030  0.1053 -0.3736
  137OSM   H13A14867   5.175   5.776   6.463  0.5159 -0.0321  0.7337
  137OSM   H13B14868   5.211   5.625   6.541 -0.8980  2.0911  0.9890
  137OSM   H13C14869   5.078   5.636   6.430 -0.0525  0.0775  1.0553
  137OSM    C1214870   5.247   5.475   6.316 -0.3250  0.0206 -0.7528
  137OSM   H12A14871   5.319   5.446   6.241  0.7784 -0.5169  0.4792
  137OSM   H12B14872   5.148   5.458   6.278 -1.2669  0.1110  1.4902
  137OSM    C1114873   5.262   5.379   6.437  0.1262 -0.2869 -0.0255
  137OSM   H11A14874   5.238   5.276   6.402 -1.1944  0.4960 -1.5452
  137OSM   H11B14875   5.188   5.396   6.518  1.2941 -1.3512  1.3410
  137OSM      P14876   5.512   5.311   6.418  0.0920  0.4746 -0.0353
  137OSM    O1314877   5.458   5.243   6.299  0.0180 -0.5072 -0.5922
  137OSM    O1414878   5.631   5.394   6.386 -0.0360  0.1760  0.2435
  137OSM    O1114879   5.552   5.203   6.525 -0.2785  0.1636  0.6113
  137OSM    O1214880   5.394   5.393   6.486 -0.4541 -0.0258 -0.0466
  137OSM    C1S14881   5.605   5.220   6.657 -0.1698  0.4448  0.0070
  137OSM    H1S14882   5.520   5.221   6.727 -0.4333  1.0237 -0.3087
  137OSM    H1T14883   5.660   5.316   6.668 -2.1181  1.6148 -0.0288
  137OSM     NF14884   5.733   5.119   6.843 -0.4256  0.2686 -0.4201
  137OSM    HNF14885   5.827   5.134   6.874 -0.9226  1.6369  0.5265
  137OSM    C2S14886   5.703   5.102   6.708  0.3006  0.6985  0.2235
  137OSM    H2S14887   5.657   5.001   6.695  2.9095 -0.4985 -0.3326
  137OSM    C3S14888   5.829   5.099   6.611 -0.0667  0.0306  0.7810
  137OSM    H3S14889   5.874   5.200   6.619  0.5511  0.1597 -2.8391
  137OSM     O314890   5.798   5.075   6.472 -0.4788 -0.8112  0.7910
  137OSM    HO314891   5.702   5.076   6.461 -0.2405 -0.3562 -1.7888
  137OSM    C4S14892   5.938   5.003   6.665 -0.2461 -0.6829 -0.0079
  137OSM    H4S14893   6.022   5.047   6.721 -0.6670  1.2773 -0.8523
  137OSM    C5S14894   5.948   4.872   6.646 -0.3679 -0.3011  0.6042
  137OSM    H5S14895   5.862   4.821   6.598 -0.7854  2.0913 -1.4158
  137OSM    C6S14896   6.065   4.786   6.692  0.5353  0.1987 -0.2944
  137OSM    H6S14897   6.151   4.853   6.712  2.1521 -1.6422 -0.7708
  137OSM    H6T14898   6.107   4.715   6.617  2.3670  1.2780 -0.3464
  137OSM    C7S14899   6.048   4.702   6.825 -0.1721  1.3443 -0.1063
  137OSM    H7S14900   6.147   4.653   6.839 -1.2105 -1.2531 -1.1342
  137OSM    H7T14901   5.977   4.618   6.809  0.9673  0.2459  0.4358
  137OSM    C8S14902   6.010   4.773   6.954 -0.1868 -0.1706 -0.3966
  137OSM    H8S14903   5.947   4.709   7.020 -1.3167  1.4022  0.1330
  137OSM    H8T14904   5.948   4.860   6.922 -0.3530 -0.8730 -2.0972
  137OSM    C9S14905   6.131   4.830   7.034  0.1902  0.8290 -0.3014
  137OSM    H9S14906   6.160   4.924   6.982 -1.2223  1.2883 -0.2877
  137OSM    H9T14907   6.216   4.761   7.055 -0.8549 -1.5713 -3.2219
  137OSM   C10S14908   6.087   4.880   7.175 -0.1902  0.1811  0.2687
  137OSM   H10S14909   6.057   4.793   7.236  1.2501 -1.5975 -1.4317
  137OSM   H10T14910   5.999   4.943   7.147  0.6335  0.9369 -0.6802
  137OSM   C11S14911   6.198   4.953   7.251 -0.6635  0.0931 -0.3244
  137OSM   H11S14912   6.236   5.028   7.178 -1.1980 -0.3069 -1.0349
  137OSM   H11T14913   6.274   4.877   7.279 -1.3044 -0.1945  0.6899
  137OSM   C12S14914   6.148   4.995   7.393  0.0633 -0.0722 -0.2688
  137OSM   H12S14915   6.119   4.905   7.452 -1.2232  0.0448 -0.6943
  137OSM   H12T14916   6.061   5.065   7.391 -0.0914 -0.2751 -0.6597
  137OSM   C13S14917   6.264   5.067   7.471  0.5295  0.1479 -0.4242
  137OSM   H13S14918   6.281   5.167   7.425  0.1364  1.2015  1.5939
  137OSM   H13T14919   6.352   5.002   7.455  0.7300  0.2495  0.2088
  137OSM   C14S14920   6.226   5.103   7.614  0.9059  1.3110  0.0549
  137OSM   H14S14921   6.153   5.024   7.639  2.8921 -0.9075 -0.8228
  137OSM   H14T14922   6.172   5.200   7.606  0.8411  1.4196  1.5575
  137OSM   C15S14923   6.343   5.096   7.714  0.4233 -0.0992  0.1015
  137OSM   H15S14924   6.414   5.177   7.687 -1.4533  1.7483  0.4130
  137OSM   H15T14925   6.376   4.992   7.730 -1.2491 -0.5331  0.9980
  137OSM   C16S14926   6.291   5.138   7.848  0.7474 -0.4777 -0.4738
  137OSM   H16S14927   6.221   5.062   7.888  0.9082 -0.9760 -1.1326
  137OSM   H16T14928   6.241   5.237   7.859  0.3533 -0.7985  0.9190
  137OSM   C17S14929   6.402   5.132   7.954 -0.0604  0.2913  0.4331
  137OSM   H17S14930   6.486   5.201   7.931  2.7842 -2.2384  2.4280
  137OSM   H17T14931   6.457   5.036   7.944 -0.5142  0.1935 -1.5372
  137OSM   C18S14932   6.362   5.146   8.101  0.0778  0.0713 -0.1684
  137OSM   H18S14933   6.289   5.067   8.129  0.9522 -2.2217 -3.6634
  137OSM   H18T14934   6.316   5.247   8.111  1.0281  0.9781 -3.6512
  137OSM   H18U14935   6.452   5.132   8.165  0.6015 -0.7832 -1.0662
  137OSM    C1F14936   5.630   5.092   6.933  0.8683  0.6491  0.5293
  137OSM     OF14937   5.521   5.054   6.893 -0.5440  0.2310  0.0155
  137OSM    C2F14938   5.662   5.098   7.078  0.7477 -0.2451  0.8924
  137OSM    H2F14939   5.723   5.188   7.099 -0.3232  0.9527 -0.8763
  137OSM    H2G14940   5.725   5.008   7.100  1.3887  0.5858  2.6785
  137OSM    C3F14941   5.543   5.104   7.172  0.0356  0.6265  0.0038
  137OSM    H3F14942   5.493   5.006   7.164  0.3064  0.1154  3.0488
  137OSM    H3G14943   5.477   5.189   7.145  0.7184  1.3595  0.5643
  137OSM    C4F14944   5.600   5.115   7.320 -0.8620  0.9262  0.5996
  137OSM    H4F14945   5.687   5.183   7.315 -1.1312  1.2732  0.5759
  137OSM    H4G14946   5.640   5.015   7.344 -3.0084 -0.4615 -1.1890
  137OSM    C5F14947   5.502   5.187   7.410 -0.0157  0.4608 -0.2630
  137OSM    H5F14948   5.396   5.163   7.387  0.1614  1.4851 -2.4159
  137OSM    H5G14949   5.512   5.293   7.378 -2.4612  1.2388  1.2390
  137OSM    C6F14950   5.535   5.164   7.559 -0.0014 -0.2647  0.1889
  137OSM    H6F14951   5.643   5.190   7.568 -0.1786  0.6661 -0.2252
  137OSM    H6G14952   5.517   5.059   7.590 -1.5696  0.1076  0.6126
  137OSM    C7F14953   5.455   5.253   7.651  0.3189 -0.0087  0.5278
  137OSM    H7F14954   5.504   5.352   7.644 -0.4960  0.4913  1.6845
  137OSM    H7G14955   5.455   5.204   7.750  0.0356 -0.8434  0.1245
  137OSM    C8F14956   5.308   5.275   7.619 -0.4001 -0.0675 -0.2297
  137OSM    H8F14957   5.243   5.187   7.642 -1.9967  1.1231  0.0268
  137OSM    H8G14958   5.281   5.304   7.515 -0.3970 -2.0158 -0.8067
  137OSM    C9F14959   5.269   5.392   7.701 -0.3947  0.1874  0.1220
  137OSM    H9F14960   5.298   5.488   7.657  3.2964 -0.6326  0.4365
  137OSM   C10F14961   5.177   5.392   7.799  0.8133  0.0716  0.3023
  137OSM   H10F14962   5.148   5.485   7.849  0.2496  0.1325 -0.1369
  137OSM   C11F14963   5.105   5.262   7.837 -0.4769  0.0934 -0.2855
  137OSM   H11F14964   5.174   5.185   7.877  0.5085  0.5964 -0.9743
  137OSM   H11G14965   5.054   5.222   7.747 -0.3945  2.0029 -1.2379
  137OSM   C12F14966   4.998   5.286   7.952  0.0395 -0.9811 -0.2126
  137OSM   H12F14967   4.953   5.188   7.979  0.4132 -0.7494  1.3478
  137OSM   H12G14968   4.916   5.359   7.932 -0.6015 -1.2196  1.3998
  137OSM   C13F14969   5.071   5.340   8.085  0.6136 -0.0114  0.3267
  137OSM   H13F14970   5.134   5.432   8.073  1.0283 -0.0300  2.1192
  137OSM   H13G14971   5.144   5.266   8.122  0.9687 -0.2007 -0.6988
  137OSM   C14F14972   4.983   5.376   8.201 -0.6168  0.0947  1.2463
  137OSM   H14F14973   4.922   5.285   8.222 -1.7508  0.0313 -1.7876
  137OSM   H14G14974   4.907   5.456   8.188 -1.7363 -1.0608  0.4057
  137OSM   C15F14975   5.060   5.408   8.324  0.8930 -0.4552 -0.2686
  137OSM   H15F14976   4.989   5.453   8.397 -0.2888 -0.7415 -1.2072
  137OSM   H15G14977   5.147   5.472   8.297  0.3005  0.9766  1.0572
  137OSM   C16F14978   5.108   5.287   8.396 -0.6957  0.1578  0.0403
  137OSM   H16F14979   5.187   5.242   8.331 -1.2835 -0.7294 -0.0684
  137OSM   H16G14980   5.022   5.217   8.399  1.5229 -2.7618 -0.1119
  137OSM   C17F14981   5.159   5.301   8.539  0.1226  0.3807 -0.3532
  137OSM   H17F14982   5.248   5.366   8.531  1.2989 -1.3766 -2.4453
  137OSM   H17G14983   5.202   5.206   8.580  2.1143  0.3904 -2.2727
  137OSM   C18F14984   5.050   5.362   8.640  0.0325 -0.2801 -0.9579
  137OSM   H18F14985   4.962   5.299   8.667  0.9856 -1.4339 -0.4576
  137OSM   H18G14986   5.003   5.455   8.601  1.7893  0.5758 -1.1505
  137OSM   H18H14987   5.112   5.387   8.729 -0.3793 -2.0635 -0.1301
  138OSM      N14988   0.531   0.840   5.989 -0.2427  0.1728 -0.0121
  138OSM    C1514989   0.627   0.932   5.926 -0.3068 -1.1893  0.7416
  138OSM   H15A14990   0.621   1.038   5.948  0.0907 -0.9160 -0.3870
  138OSM   H15B14991   0.620   0.923   5.819 -0.3299  1.4370  0.4500
  138OSM   H15C14992   0.727   0.905   5.955 -0.7016 -3.3501  0.2270
  138OSM    C1414993   0.396   0.904   5.987 -0.6177  0.6743  0.0559
  138OSM   H14A14994   0.371   0.967   5.903  2.1514  0.8684 -0.7282
  138OSM   H14B14995   0.396   0.975   6.068  0.6539  0.8979 -0.1255
  138OSM   H14C14996   0.310   0.843   6.012 -1.0018  0.2195 -2.1684
  138OSM    C1314997   0.518   0.720   5.901  0.2422 -0.3030 -0.1594
  138OSM   H13A14998   0.604   0.658   5.881 -1.1140 -1.6251 -2.4800
  138OSM   H13B14999   0.488   0.754   5.803  2.0182 -0.5510 -0.8302
  138OSM   H13C15000   0.432   0.659   5.925 -2.2350  2.9320 -0.0559
  138OSM    C1215001   0.570   0.802   6.129 -0.2489 -0.1423  0.0945
  138OSM   H12A15002   0.677   0.784   6.134 -0.1693 -0.1275 -1.0637
  138OSM   H12B15003   0.518   0.712   6.156 -1.1597  0.0378 -0.9687
  138OSM    C1115004   0.544   0.910   6.245 -0.3021  0.4530  0.2150
  138OSM   H11A15005   0.574   0.857   6.338 -1.0142 -0.6408 -0.1564
  138OSM   H11B15006   0.435   0.927   6.240 -0.3218  0.4954  0.7752
  138OSM      P15007   0.762   1.053   6.245 -0.0208  0.2706  0.5746
  138OSM    O1315008   0.836   0.934   6.186 -0.3802 -0.0574  0.0529
  138OSM    O1415009   0.801   1.184   6.190  0.2414  0.2306 -0.0136
  138OSM    O1115010   0.786   1.051   6.393  0.7733  0.0299 -0.2479
  138OSM    O1215011   0.607   1.033   6.218  0.1245 -0.2192  0.4620
  138OSM    C1S15012   0.728   1.160   6.469  0.5461  0.1065  0.1994
  138OSM    H1S15013   0.620   1.159   6.447  0.9678 -0.3587 -2.1243
  138OSM    H1T15014   0.753   1.262   6.434 -0.6128  0.2360 -0.2834
  138OSM     NF15015   0.663   1.239   6.691 -0.0459 -0.9578  0.2110
  138OSM    HNF15016   0.703   1.314   6.743 -1.4481  0.9356 -1.2882
  138OSM    C2S15017   0.749   1.148   6.621 -0.1656  0.3983  0.4391
  138OSM    H2S15018   0.715   1.046   6.648  0.1880  0.4972  1.2960
  138OSM    C3S15019   0.901   1.174   6.654  0.7131  0.0164  0.0078
  138OSM    H3S15020   0.923   1.281   6.631  1.8989  0.4494  2.7064
  138OSM     O315021   0.996   1.113   6.564  0.2657  0.4754  0.1983
  138OSM    HO315022   0.933   1.091   6.494 -2.4155  0.2449  2.5167
  138OSM    C4S15023   0.920   1.142   6.801 -0.2890  0.0169  0.7258
  138OSM    H4S15024   0.900   1.237   6.854 -0.3962 -0.4248  1.4962
  138OSM    C5S15025   0.943   1.021   6.856 -1.0048 -0.7286 -0.1609
  138OSM    H5S15026   0.950   0.947   6.775 -1.1222  0.4731 -1.3101
  138OSM    C6S15027   0.961   0.988   7.002 -0.4111  0.3276  0.5859
  138OSM    H6S15028   1.065   0.963   7.032 -1.1882 -1.2207  2.1452
  138OSM    H6T15029   0.899   0.897   7.014  0.3322 -0.2956 -0.1839
  138OSM    C7S15030   0.896   1.083   7.110 -0.0078  0.2215 -0.1383
  138OSM    H7S15031   0.812   1.127   7.053 -0.6407 -0.6593  0.0929
  138OSM    H7T15032   0.962   1.169   7.133  0.2408  0.1632 -0.6196
  138OSM    C8S15033   0.846   1.006   7.228 -0.4175 -0.2452 -0.3936
  138OSM    H8S15034   0.922   0.952   7.289 -0.7729 -0.0190  0.2703
  138OSM    H8T15035   0.776   0.924   7.204  1.3701 -1.5066 -1.5360
  138OSM    C9S15036   0.761   1.089   7.323  0.3266  0.2850 -0.7291
  138OSM    H9S15037   0.694   1.151   7.259 -0.9047 -0.1039  0.1327
  138OSM    H9T15038   0.823   1.157   7.385 -0.8853  0.2180  0.6035
  138OSM   C10S15039   0.680   1.005   7.427 -0.3736 -0.0033  0.5555
  138OSM   H10S15040   0.744   0.961   7.506  0.3332  0.6714  0.3767
  138OSM   H10T15041   0.631   0.925   7.367  1.1037  0.6549 -1.6652
  138OSM   C11S15042   0.555   1.065   7.484 -0.5659 -0.2687  0.1113
  138OSM   H11S15043   0.477   1.080   7.406 -0.9076 -2.2470  0.0233
  138OSM   H11T15044   0.590   1.162   7.526 -0.1807 -0.2519 -0.2413
  138OSM   C12S15045   0.488   0.989   7.604  0.7633  0.6503  0.4825
  138OSM   H12S15046   0.463   0.890   7.561  2.0441  1.1017 -1.4418
  138OSM   H12T15047   0.396   1.045   7.631  0.6636  1.0526 -0.6589
  138OSM   C13S15048   0.573   0.980   7.730 -1.2768  0.0967 -0.6556
  138OSM   H13S15049   0.630   1.075   7.738  0.2269 -0.6911 -1.5528
  138OSM   H13T15050   0.650   0.900   7.719 -0.3880  1.0359 -1.5132
  138OSM   C14S15051   0.486   0.964   7.857 -0.0745  0.0833  1.3025
  138OSM   H14S15052   0.390   0.915   7.830 -1.0000  2.7692 -0.7259
  138OSM   H14T15053   0.465   1.069   7.887  0.4703 -0.1335  2.5197
  138OSM   C15S15054   0.560   0.915   7.986  0.3044 -0.2091  0.3018
  138OSM   H15S15055   0.654   0.972   8.000  0.3714 -0.3716  0.5019
  138OSM   H15T15056   0.579   0.807   7.974  0.4494 -0.1608  0.0925
  138OSM   C16S15057   0.481   0.943   8.118 -0.1731  0.3174  0.8857
  138OSM   H16S15058   0.476   1.053   8.134 -3.6701  0.3929  0.0810
  138OSM   H16T15059   0.531   0.886   8.199  2.2229 -1.0676 -1.4089
  138OSM   C17S15060   0.335   0.902   8.109  0.5203  0.9249  0.4337
  138OSM   H17S15061   0.320   0.807   8.053  0.6810  0.5708  0.9777
  138OSM   H17T15062   0.278   0.976   8.048 -1.3938 -0.5301  0.3628
  138OSM   C18S15063   0.262   0.895   8.244 -0.4013 -0.5999 -0.1751
  138OSM   H18S15064   0.290   0.981   8.310  0.0459 -0.4198 -0.5900
  138OSM   H18T15065   0.290   0.802   8.298 -1.7115 -0.5505  0.6296
  138OSM   H18U15066   0.152   0.902   8.231 -0.5712 -0.0137  1.3029
  138OSM    C1F15067   0.534   1.213   6.705 -0.4688 -0.0958 -0.0024
  138OSM     OF15068   0.491   1.104   6.663 -0.4085  0.7441 -0.1499
  138OSM    C2F15069   0.449   1.307   6.768 -0.4023 -0.5969 -0.9065
  138OSM    H2F15070   0.345   1.305   6.730 -0.9268  1.4830  0.2980
  138OSM    H2G15071   0.486   1.411   6.758  0.5902 -0.4722  2.6508
  138OSM    C3F15072   0.457   1.298   6.919 -0.2647  0.3825 -0.1018
  138OSM    H3F15073   0.561   1.329   6.947 -1.0779  2.4540  0.8713
  138OSM    H3G15074   0.450   1.194   6.956 -2.4212  1.2960  2.3581
  138OSM    C4F15075   0.354   1.385   6.989 -0.7336 -0.7611 -0.3165
  138OSM    H4F15076   0.249   1.356   6.966 -2.0920  2.3767  1.2728
  138OSM    H4G15077   0.368   1.488   6.950 -1.5986 -0.3990  0.3025
  138OSM    C5F15078   0.366   1.409   7.147 -0.5243  0.3538 -0.3485
  138OSM    H5F15079   0.345   1.311   7.194 -3.7602  0.6683 -0.9470
  138OSM    H5G15080   0.278   1.468   7.178  0.2172  0.3559  2.0013
  138OSM    C6F15081   0.500   1.458   7.209  1.1066 -0.5721  0.1846
  138OSM    H6F15082   0.555   1.525   7.140  3.2548 -1.7623  0.6689
  138OSM    H6G15083   0.567   1.370   7.221 -0.5260 -1.7698  0.8964
  138OSM    C7F15084   0.486   1.532   7.344  0.0626 -0.3300 -0.1162
  138OSM    H7F15085   0.426   1.625   7.333 -0.5774 -0.7786 -0.4962
  138OSM    H7G15086   0.584   1.574   7.375 -0.3475 -1.0998  2.4515
  138OSM    C8F15087   0.437   1.441   7.460 -0.3255 -0.3010  0.2177
  138OSM    H8F15088   0.502   1.353   7.479  0.6972  0.5155  0.5658
  138OSM    H8G15089   0.338   1.396   7.435  0.2887  0.0675 -3.3576
  138OSM    C9F15090   0.433   1.534   7.576  0.6662  0.6729  0.3330
  138OSM    H9F15091   0.398   1.636   7.554 -1.2667  0.2494  1.3206
  138OSM   C10F15092   0.479   1.499   7.697 -0.1254  0.5294 -0.1964
  138OSM   H10F15093   0.498   1.580   7.769  1.5475 -0.0442  0.0362
  138OSM   C11F15094   0.547   1.372   7.736  0.0158 -0.0251  0.7053
  138OSM   H11F15095   0.647   1.367   7.689  1.1549 -0.1169  2.9785
  138OSM   H11G15096   0.481   1.287   7.706 -1.4868  1.7880 -1.4943
  138OSM   C12F15097   0.581   1.351   7.887 -0.2018 -0.8886  0.8215
  138OSM   H12F15098   0.676   1.398   7.922  0.3485 -1.4841  0.1716
  138OSM   H12G15099   0.598   1.242   7.897 -0.2336 -1.1261 -1.3244
  138OSM   C13F15100   0.469   1.391   7.981  0.3279  1.0479 -0.0344
  138OSM   H13F15101   0.386   1.318   7.967  2.0501 -1.5832  2.3146
  138OSM   H13G15102   0.430   1.494   7.964 -1.9046  0.2141 -0.3339
  138OSM   C14F15103   0.514   1.380   8.127  0.7466  0.2894  0.4693
  138OSM   H14F15104   0.611   1.429   8.146  1.2567 -1.7679  4.1771
  138OSM   H14G15105   0.530   1.273   8.154 -1.0775 -0.2984 -0.6013
  138OSM   C15F15106   0.406   1.434   8.229  0.2432 -0.2365  0.4976
  138OSM   H15F15107   0.333   1.350   8.237  1.2941 -1.0041  3.0831
  138OSM   H15G15108   0.349   1.519   8.187  1.3309  0.7009  0.8778
  138OSM   C16F15109   0.468   1.459   8.360 -0.4883  0.1620 -0.6896
  138OSM   H16F15110   0.552   1.531   8.364  1.4118 -1.8981  4.2922
  138OSM   H16G15111   0.521   1.368   8.394 -0.1781  1.3148  2.2236
  138OSM   C17F15112   0.377   1.504   8.471  0.0835  0.0075  0.1491
  138OSM   H17F15113   0.430   1.525   8.566  2.6327 -0.0947 -1.1497
  138OSM   H17G15114   0.307   1.419   8.479  1.0225 -0.6748  1.5213
  138OSM   C18F15115   0.296   1.635   8.434 -0.1102  0.0586  0.3195
  138OSM   H18F15116   0.367   1.697   8.375  0.3643 -2.0394 -1.4461
  138OSM   H18G15117   0.268   1.685   8.529  1.7030  0.5367  0.6305
  138OSM   H18H15118   0.204   1.626   8.372 -1.8608  1.5682  2.5417
  139OSM      N15119   5.481   0.106   5.801 -0.0821  0.2849  0.2394
  139OSM    C1515120   5.462  -0.034   5.756  0.0595 -0.4381 -0.1400
  139OSM   H15A15121   5.395  -0.097   5.813  2.4617 -2.4522  0.6710
  139OSM   H15B15122   5.551  -0.095   5.745  0.5980  0.7172 -3.2571
  139OSM   H15C15123   5.434  -0.032   5.652 -0.5884  1.6062  0.0367
  139OSM    C1415124   5.595   0.179   5.734 -0.9789 -0.6260  0.0381
  139OSM   H14A15125   5.597   0.283   5.760 -1.4049 -0.4297 -0.7027
  139OSM   H14B15126   5.592   0.177   5.626  2.4891  1.5149 -0.2511
  139OSM   H14C15127   5.692   0.141   5.766 -0.1674 -0.7477 -2.3730
  139OSM    C1315128   5.365   0.197   5.767 -0.0119  0.5928 -0.5760
  139OSM   H13A15129   5.273   0.147   5.792  1.3631 -1.8839 -0.1425
  139OSM   H13B15130   5.366   0.229   5.663  0.4256  0.8035 -0.5094
  139OSM   H13C15131   5.382   0.288   5.822  3.3815 -0.1071 -0.2075
  139OSM    C1215132   5.511   0.108   5.950  0.2189  0.7712 -0.1264
  139OSM   H12A15133   5.431   0.051   5.996 -0.8108 -0.3314 -3.0167
  139OSM   H12B15134   5.494   0.209   5.983  2.6292  1.9255 -2.0551
  139OSM    C1115135   5.638   0.054   6.000 -0.3713  0.0873 -0.1247
  139OSM   H11A15136   5.655  -0.048   5.958 -0.3968  0.0631 -0.0761
  139OSM   H11B15137   5.642   0.046   6.111 -1.2326 -2.2960 -0.2038
  139OSM      P15138   5.768   0.277   6.020  0.0923  0.5244  0.1726
  139OSM    O1315139   5.900   0.339   5.982  0.3700  0.3260 -0.3987
  139OSM    O1415140   5.653   0.365   6.001  0.0514 -0.1938 -0.0496
  139OSM    O1115141   5.770   0.245   6.176 -0.4361 -0.3511  0.0315
  139OSM    O1215142   5.754   0.130   5.957 -0.0061  0.3484  0.1904
  139OSM    C1S15143   5.893   0.220   6.242  0.8341  0.3634 -0.7097
  139OSM    H1S15144   5.951   0.313   6.229 -0.4935  1.2367 -0.6306
  139OSM    H1T15145   5.943   0.129   6.202 -0.5897 -0.6841 -0.2033
  139OSM     NF15146   5.989   0.173   6.471 -0.1293 -0.0859 -0.2170
  139OSM    HNF15147   6.004   0.077   6.493 -1.1968  0.1065  1.5322
  139OSM    C2S15148   5.865   0.202   6.395 -0.5190 -0.7897 -0.1424
  139OSM    H2S15149   5.828   0.298   6.437 -1.5234 -0.4876 -1.6374
  139OSM    C3S15150   5.746   0.104   6.430  0.6187 -0.4416 -0.1029
  139OSM    H3S15151   5.756   0.004   6.382  2.4985 -1.1119  1.5430
  139OSM     O315152   5.622   0.141   6.374  0.3101  0.1004  0.2037
  139OSM    HO315153   5.640   0.207   6.307 -0.3343 -0.5181 -0.6054
  139OSM    C4S15154   5.726   0.091   6.575  0.0401  0.0074 -0.2605
  139OSM    H4S15155   5.669   0.176   6.617 -0.4406  0.7086 -2.2148
  139OSM    C5S15156   5.754  -0.017   6.641 -0.6569  0.8695 -0.4664
  139OSM    H5S15157   5.771  -0.112   6.587  0.8062  0.9586 -0.2035
  139OSM    C6S15158   5.743  -0.036   6.791  0.5127 -0.2847  0.0810
  139OSM    H6S15159   5.830  -0.094   6.827 -0.5128 -0.9363  1.6031
  139OSM    H6T15160   5.649  -0.094   6.806 -0.0479  0.7453  0.6879
  139OSM    C7S15161   5.722   0.096   6.869 -0.1085 -0.1196 -0.5195
  139OSM    H7S15162   5.624   0.144   6.845 -0.0555  0.5644  0.5582
  139OSM    H7T15163   5.800   0.158   6.820  0.9064 -2.5146 -2.1412
  139OSM    C8S15164   5.737   0.079   7.018  0.6094 -0.1694 -0.0000
  139OSM    H8S15165   5.755   0.181   7.058 -0.5504  0.6440 -1.4502
  139OSM    H8T15166   5.825   0.014   7.035  2.0195  1.7754  0.3912
  139OSM    C9S15167   5.601   0.022   7.085 -0.4013  0.8570 -0.5547
  139OSM    H9S15168   5.556  -0.065   7.034 -0.8522 -0.0679  1.3082
  139OSM    H9T15169   5.519   0.097   7.094 -1.7888 -0.7447  1.0451
  139OSM   C10S15170   5.632  -0.032   7.224 -0.3198  0.2984 -0.8788
  139OSM   H10S15171   5.729  -0.086   7.227 -1.7140 -2.6585 -3.2599
  139OSM   H10T15172   5.554  -0.108   7.246 -0.9621  1.1601 -0.1273
  139OSM   C11S15173   5.632   0.076   7.331  0.6774 -0.2907  0.2561
  139OSM   H11S15174   5.533   0.127   7.333  1.5413  1.4238  1.4330
  139OSM   H11T15175   5.716   0.147   7.316 -0.3890  1.9494  3.7342
  139OSM   C12S15176   5.665   0.022   7.472 -0.1324 -0.4881 -0.4380
  139OSM   H12S15177   5.760  -0.035   7.476  0.9879  1.1460 -2.1658
  139OSM   H12T15178   5.580  -0.049   7.476  0.4219 -1.3270 -2.4896
  139OSM   C13S15179   5.667   0.118   7.590  0.0316 -0.5429 -0.3915
  139OSM   H13S15180   5.572   0.176   7.583  0.6556  0.5673 -0.0397
  139OSM   H13T15181   5.753   0.188   7.578 -2.6714  2.9232 -1.5477
  139OSM   C14S15182   5.694   0.037   7.719 -0.0629  0.4734  0.4128
  139OSM   H14S15183   5.751  -0.055   7.692 -2.3666 -0.9529  0.1261
  139OSM   H14T15184   5.600  -0.007   7.758 -0.9742  0.4201 -1.7330
  139OSM   C15S15185   5.755   0.111   7.836 -0.1979  0.0939  0.3757
  139OSM   H15S15186   5.773   0.032   7.912  1.1056  0.3189  0.3330
  139OSM   H15T15187   5.677   0.176   7.881 -2.9977 -1.9775 -1.1560
  139OSM   C16S15188   5.895   0.173   7.802  0.3662 -0.0128  0.0105
  139OSM   H16S15189   5.906   0.240   7.890 -0.1749 -0.3322  0.3271
  139OSM   H16T15190   5.897   0.228   7.706 -0.0553 -2.1394 -1.2706
  139OSM   C17S15191   6.006   0.060   7.786 -0.4475 -0.2364 -0.1266
  139OSM   H17S15192   5.989  -0.003   7.696  1.5870  2.5517 -2.6639
  139OSM   H17T15193   6.008  -0.000   7.880  0.7433  1.2366  0.8419
  139OSM   C18S15194   6.147   0.115   7.768 -0.7841  0.0763  0.6361
  139OSM   H18S15195   6.160   0.177   7.677 -1.9091 -1.9474 -0.9789
  139OSM   H18T15196   6.218   0.029   7.764 -2.0099 -0.9242 -1.0951
  139OSM   H18U15197   6.175   0.169   7.861  2.0681  0.4424 -0.3327
  139OSM    C1F15198   6.091   0.257   6.485  0.2229 -0.1653 -0.0154
  139OSM     OF15199   6.086   0.376   6.463  0.7758 -0.2540  0.2452
  139OSM    C2F15200   6.219   0.197   6.529  0.0710 -0.0547  0.0816
  139OSM    H2F15201   6.300   0.238   6.465 -0.8380  0.9623 -0.4321
  139OSM    H2G15202   6.224   0.088   6.505  0.4306  0.3267 -1.7378
  139OSM    C3F15203   6.249   0.214   6.677  0.3520 -0.8053 -0.2583
  139OSM    H3F15204   6.251   0.323   6.700 -1.7843 -0.2510 -2.3482
  139OSM    H3G15205   6.352   0.179   6.701  0.9726  0.9037 -0.2851
  139OSM    C4F15206   6.155   0.139   6.777 -0.7183 -0.3749  0.6128
  139OSM    H4F15207   6.152   0.031   6.751 -1.7768  0.2697 -2.2422
  139OSM    H4G15208   6.055   0.179   6.752 -2.1749 -3.4398  0.9869
  139OSM    C5F15209   6.194   0.177   6.918  0.0904 -0.8762  0.3683
  139OSM    H5F15210   6.194   0.288   6.919 -1.4882 -0.7535 -2.6676
  139OSM    H5G15211   6.297   0.136   6.921  0.1028 -1.2814 -2.8896
  139OSM    C6F15212   6.093   0.134   7.026 -0.1614 -0.5534 -0.2334
  139OSM    H6F15213   6.066   0.026   7.020 -0.7718 -0.3600 -1.1422
  139OSM    H6G15214   5.995   0.182   7.005  0.4742  1.6189  1.4517
  139OSM    C7F15215   6.118   0.182   7.168  0.1426 -0.2087 -0.6545
  139OSM    H7F15216   6.152   0.287   7.157  0.5286 -0.0882  1.2534
  139OSM    H7G15217   6.192   0.121   7.224  0.8820  0.0348 -1.3422
  139OSM    C8F15218   5.992   0.199   7.250 -0.0826 -0.6105 -0.1562
  139OSM    H8F15219   5.954   0.095   7.249  1.0071 -1.0953 -3.4772
  139OSM    H8G15220   5.917   0.270   7.209 -1.2666 -1.5084  0.4140
  139OSM    C9F15221   6.026   0.244   7.388  0.1059 -0.4892  0.6696
  139OSM    H9F15222   6.095   0.179   7.443  0.4314 -0.9402 -0.2500
  139OSM   C10F15223   5.970   0.341   7.459  0.0650 -0.9685 -0.5442
  139OSM   H10F15224   5.994   0.348   7.566 -1.1701  0.4185 -0.3424
  139OSM   C11F15225   5.869   0.449   7.407 -0.1281  0.0470  0.5543
  139OSM   H11F15226   5.832   0.414   7.309 -2.6088  1.0652  1.0516
  139OSM   H11G15227   5.930   0.541   7.400  1.8571 -1.0903  1.8939
  139OSM   C12F15228   5.733   0.473   7.475  0.2484  0.5703 -1.0567
  139OSM   H12F15229   5.652   0.398   7.462  1.2204 -0.8970  0.7651
  139OSM   H12G15230   5.681   0.566   7.445 -0.3356  0.8186  0.6332
  139OSM   C13F15231   5.746   0.484   7.627  0.3187  0.0759  0.1699
  139OSM   H13F15232   5.836   0.546   7.648 -1.2548  1.4645  3.6774
  139OSM   H13G15233   5.769   0.393   7.686  0.2872  0.1726  0.3333
  139OSM   C14F15234   5.633   0.562   7.700 -0.3568 -0.5529 -0.4090
  139OSM   H14F15235   5.540   0.501   7.699 -0.3828 -0.5921  1.3412
  139OSM   H14G15236   5.623   0.652   7.635  1.3770 -1.1771 -1.5950
  139OSM   C15F15237   5.665   0.602   7.841 -0.3686 -0.2846  0.6501
  139OSM   H15F15238   5.587   0.673   7.877  0.8014  0.6233  1.4443
  139OSM   H15G15239   5.762   0.655   7.845  0.1055 -1.0705 -0.1585
  139OSM   C16F15240   5.652   0.493   7.947 -0.2635  0.2196 -0.5478
  139OSM   H16F15241   5.734   0.422   7.923 -0.0310 -0.2939  1.5847
  139OSM   H16G15242   5.554   0.442   7.931 -0.0564 -0.9277  1.5630
  139OSM   C17F15243   5.673   0.546   8.092 -0.1296 -0.0653 -0.0483
  139OSM   H17F15244   5.574   0.580   8.128 -1.1186 -1.9955 -0.7778
  139OSM   H17G15245   5.744   0.631   8.084  1.1247 -1.1107 -0.3760
  139OSM   C18F15246   5.723   0.446   8.201 -0.5940 -0.5170  0.6709
  139OSM   H18F15247   5.728   0.493   8.302 -1.1046  0.1984  0.3709
  139OSM   H18G15248   5.830   0.414   8.192 -0.4729  0.0309  0.1042
  139OSM   H18H15249   5.661   0.354   8.193 -0.1648 -0.8537  1.1124
  140OSM      N15250   0.114   3.230   6.198 -0.2723  0.3914 -0.0335
  140OSM    C1515251   0.049   3.352   6.258 -0.0279  0.0202  0.1895
  140OSM   H15A15252   0.085   3.377   6.357  2.7645 -1.8491 -0.2575
  140OSM   H15B15253  -0.059   3.354   6.261 -0.0339 -0.6381  0.5925
  140OSM   H15C15254   0.077   3.440   6.201 -1.9602  0.9068  0.4950
  140OSM    C1415255   0.096   3.120   6.293  0.1835 -0.6157  0.2406
  140OSM   H14A15256  -0.011   3.101   6.290  0.1319 -0.4873 -3.5286
  140OSM   H14B15257   0.132   3.145   6.392 -0.9176  0.4528  0.3955
  140OSM   H14C15258   0.146   3.029   6.261  1.0504 -0.2307  0.4952
  140OSM    C1315259   0.037   3.189   6.073  0.0486  0.4299 -0.2037
  140OSM   H13A15260  -0.070   3.187   6.082  0.1375  0.4945  1.1689
  140OSM   H13B15261   0.071   3.096   6.030 -0.0059  0.0533  0.5366
  140OSM   H13C15262   0.070   3.263   6.002  1.3758  0.1132  0.0504
  140OSM    C1215263   0.255   3.246   6.146  0.0726  0.2614 -0.2783
  140OSM   H12A15264   0.321   3.278   6.225  1.6306 -0.7730 -1.1069
  140OSM   H12B15265   0.267   3.332   6.082  0.8852  1.9354  1.9958
  140OSM    C1115266   0.317   3.121   6.084 -1.2755  0.1189 -0.5688
  140OSM   H11A15267   0.417   3.165   6.065 -1.7787  1.7771  0.3770
  140OSM   H11B15268   0.288   3.095   5.980  4.1144  1.2440 -2.6842
  140OSM      P15269   0.447   2.911   6.181  0.2922 -0.3688 -0.0541
  140OSM    O1315270   0.391   2.795   6.253 -0.0731  0.0928 -0.3677
  140OSM    O1415271   0.511   2.889   6.050 -0.4603  0.0515 -0.1121
  140OSM    O1115272   0.546   2.995   6.266  0.7381 -0.0397  0.5519
  140OSM    O1215273   0.333   3.010   6.176  0.5321  0.0973 -0.3957
  140OSM    C1S15274   0.522   3.049   6.396  0.7712  0.2170  0.4988
  140OSM    H1S15275   0.417   3.083   6.408  1.0609  1.7820 -1.0549
  140OSM    H1T15276   0.580   3.142   6.415 -0.9617  1.9755 -2.0815
  140OSM     NF15277   0.525   3.001   6.641 -0.5544 -0.0265  0.5369
  140OSM    HNF15278   0.605   3.005   6.700  1.1540  3.8454 -1.6912
  140OSM    C2S15279   0.562   2.947   6.506  0.3325  0.5419 -0.7456
  140OSM    H2S15280   0.500   2.857   6.491 -1.0125  1.4535 -0.8700
  140OSM    C3S15281   0.713   2.910   6.490  0.6031 -0.3064 -0.5743
  140OSM    H3S15282   0.766   3.008   6.490  1.7303 -0.8585  1.0603
  140OSM     O315283   0.746   2.851   6.370 -0.2579  0.0594  0.5145
  140OSM    HO315284   0.687   2.889   6.306  1.5381  1.0775 -0.6246
  140OSM    C4S15285   0.759   2.822   6.607 -0.4263 -0.0426  0.4506
  140OSM    H4S15286   0.702   2.730   6.626 -0.3204 -0.0632  0.6813
  140OSM    C5S15287   0.874   2.830   6.672 -0.4086 -0.1588  0.2949
  140OSM    H5S15288   0.948   2.909   6.651  0.4059 -1.0742 -0.3579
  140OSM    C6S15289   0.908   2.724   6.770  0.1118 -0.2126  0.1361
  140OSM    H6S15290   1.013   2.697   6.746  1.1128  4.0231 -1.1544
  140OSM    H6T15291   0.840   2.637   6.760 -1.1124  0.7441 -0.1256
  140OSM    C7S15292   0.912   2.765   6.916 -0.1733  0.0621  0.0177
  140OSM    H7S15293   0.810   2.794   6.950 -1.1846 -2.4345 -0.7239
  140OSM    H7T15294   0.988   2.846   6.929 -0.2600 -0.1491  2.3826
  140OSM    C8S15295   0.965   2.655   7.010  0.1628 -0.1805 -0.4035
  140OSM    H8S15296   1.062   2.613   6.976 -0.9027 -2.9255 -0.2569
  140OSM    H8T15297   0.897   2.568   7.002 -0.5067 -0.1369  3.1281
  140OSM    C9S15298   0.970   2.682   7.163  0.7174 -0.1071 -0.0708
  140OSM    H9S15299   0.870   2.701   7.208  1.1159  1.8049  0.0981
  140OSM    H9T15300   1.020   2.779   7.185  0.4901  0.1715 -0.7463
  140OSM   C10S15301   1.037   2.574   7.249 -0.1054  0.6354  0.6627
  140OSM   H10S15302   1.137   2.569   7.201  0.3683 -0.1032  1.6935
  140OSM   H10T15303   0.983   2.478   7.239 -0.2460  0.9130 -1.9761
  140OSM   C11S15304   1.055   2.616   7.389  0.1756  0.5790 -0.6587
  140OSM   H11S15305   1.065   2.726   7.380  1.5687  0.3080 -3.8214
  140OSM   H11T15306   1.143   2.572   7.441 -1.2660 -0.4079  1.0581
  140OSM   C12S15307   0.929   2.578   7.476  0.1380  0.2727 -0.7241
  140OSM   H12S15308   0.907   2.469   7.474 -4.2398  0.9613 -1.8917
  140OSM   H12T15309   0.832   2.620   7.439 -1.6106 -0.6420  2.4435
  140OSM   C13S15310   0.953   2.613   7.623  0.5192 -0.5556  0.2640
  140OSM   H13S15311   0.851   2.653   7.647  0.4343  0.9297 -2.1745
  140OSM   H13T15312   1.025   2.696   7.639  0.1474  0.4011 -2.4058
  140OSM   C14S15313   0.980   2.494   7.719  0.6732 -0.0647  0.0741
  140OSM   H14S15314   1.069   2.434   7.691 -1.2433 -2.6660 -0.8786
  140OSM   H14T15315   0.895   2.422   7.707  1.6949 -1.0943 -1.2969
  140OSM   C15S15316   0.986   2.528   7.882  0.0034  1.0975  0.2412
  140OSM   H15S15317   0.895   2.584   7.913  0.4814  0.4832  3.0690
  140OSM   H15T15318   1.076   2.593   7.887 -0.4684  1.6734  4.4736
  140OSM   C16S15319   1.007   2.392   7.955 -0.5132 -0.4406 -0.4356
  140OSM   H16S15320   0.993   2.418   8.062 -1.0109 -0.7901 -0.4130
  140OSM   H16T15321   1.109   2.351   7.942 -0.0677 -0.0168  1.4394
  140OSM   C17S15322   0.890   2.290   7.935  0.5216  0.4351  0.2714
  140OSM   H17S15323   0.878   2.256   7.829 -2.7784 -2.2837  1.3423
  140OSM   H17T15324   0.790   2.331   7.960 -0.7921 -2.3144 -0.0513
  140OSM   C18S15325   0.917   2.165   8.012 -0.1117 -0.4897  0.0703
  140OSM   H18S15326   1.014   2.119   7.985 -1.6464 -3.8189 -0.3629
  140OSM   H18T15327   0.841   2.084   8.005 -1.1070  0.2983  1.3095
  140OSM   H18U15328   0.929   2.196   8.118  1.4714 -0.1359 -0.1951
  140OSM    C1F15329   0.397   3.006   6.685 -0.3584  0.5838 -0.3318
  140OSM     OF15330   0.302   3.000   6.609 -0.2089  0.5923 -0.1296
  140OSM    C2F15331   0.392   2.994   6.830 -0.3785  0.6259  0.5954
  140OSM    H2F15332   0.423   3.093   6.869  2.7661 -0.0175 -0.0257
  140OSM    H2G15333   0.475   2.931   6.868  0.0004  2.1650  2.4821
  140OSM    C3F15334   0.253   2.950   6.874 -0.4053  0.3859 -0.0343
  140OSM    H3F15335   0.218   2.860   6.819  0.1136 -0.1353  0.4720
  140OSM    H3G15336   0.188   3.039   6.858  0.1053  1.5275  3.3532
  140OSM    C4F15337   0.231   2.914   7.030  0.7158  0.2623  0.3949
  140OSM    H4F15338   0.310   2.838   7.050 -0.6051 -0.4476  3.5801
  140OSM    H4G15339   0.129   2.870   7.038 -0.9441  3.2687 -2.1190
  140OSM    C5F15340   0.244   3.031   7.129  0.3385 -0.2028 -0.1696
  140OSM    H5F15341   0.163   3.104   7.108  0.7885  0.7212  1.2092
  140OSM    H5G15342   0.335   3.093   7.110 -0.1338  0.6445  0.2645
  140OSM    C6F15343   0.251   2.974   7.264 -0.1837  0.6072  0.1402
  140OSM    H6F15344   0.342   2.914   7.285 -0.2867 -0.2596 -1.6853
  140OSM    H6G15345   0.192   2.882   7.281  0.5558  0.5025  2.5324
  140OSM    C7F15346   0.240   3.085   7.362  0.5611  0.2587  0.3904
  140OSM    H7F15347   0.149   3.145   7.342  0.4135 -0.3616 -0.9047
  140OSM    H7G15348   0.331   3.148   7.366  1.5425 -1.1031  0.3951
  140OSM    C8F15349   0.241   3.043   7.515  0.1832  0.0116  0.7894
  140OSM    H8F15350   0.339   2.992   7.523  0.4189  0.5699  1.5184
  140OSM    H8G15351   0.161   2.973   7.549  0.3732  0.4010  2.0670
  140OSM    C9F15352   0.218   3.174   7.584 -0.5759  0.2553  0.3362
  140OSM    H9F15353   0.125   3.227   7.559 -1.8304 -0.5513  2.9334
  140OSM   C10F15354   0.300   3.219   7.684  0.1406 -0.0780 -0.6355
  140OSM   H10F15355   0.267   3.309   7.739  0.5491  0.0529 -0.5984
  140OSM   C11F15356   0.422   3.145   7.739  0.0217  0.0221  0.1756
  140OSM   H11F15357   0.516   3.179   7.691  0.3176 -1.5255 -0.4046
  140OSM   H11G15358   0.417   3.036   7.719  1.1548  0.0177 -0.1549
  140OSM   C12F15359   0.437   3.150   7.895  0.1522 -0.0314  0.4263
  140OSM   H12F15360   0.500   3.061   7.918  0.0176 -0.4116 -0.5990
  140OSM   H12G15361   0.340   3.126   7.943 -0.2744  0.8128  0.0060
  140OSM   C13F15362   0.491   3.283   7.947 -0.2429 -0.0967 -0.5125
  140OSM   H13F15363   0.447   3.374   7.901  2.0896  1.7704  0.7413
  140OSM   H13G15364   0.598   3.286   7.916  0.0406 -1.5966  0.2591
  140OSM   C14F15365   0.490   3.286   8.100 -0.0091 -1.2372  0.2992
  140OSM   H14F15366   0.560   3.209   8.139 -1.6307 -2.5424  0.7678
  140OSM   H14G15367   0.390   3.259   8.139 -0.0386  0.6635  1.6708
  140OSM   C15F15368   0.539   3.412   8.160  0.4660 -0.5090  0.4646
  140OSM   H15F15369   0.635   3.434   8.109 -0.3828  0.0902 -0.9553
  140OSM   H15G15370   0.567   3.399   8.266  1.3652 -2.9992  0.0037
  140OSM   C16F15371   0.423   3.519   8.135 -1.1297  0.0380 -0.1500
  140OSM   H16F15372   0.339   3.502   8.205 -1.4487  0.4398 -0.4328
  140OSM   H16G15373   0.388   3.519   8.029 -1.3406 -1.0341 -0.0957
  140OSM   C17F15374   0.482   3.657   8.150 -0.3043 -0.1748 -0.4273
  140OSM   H17F15375   0.555   3.657   8.066  1.0959 -2.4288  0.7265
  140OSM   H17G15376   0.525   3.666   8.252 -2.5705 -1.9444  0.7803
  140OSM   C18F15377   0.364   3.760   8.131  0.3975  0.0284 -0.2115
  140OSM   H18F15378   0.303   3.740   8.041 -1.4769 -0.2882  1.0501
  140OSM   H18G15379   0.401   3.865   8.132  0.4406  0.0127 -0.0370
  140OSM   H18H15380   0.293   3.747   8.216 -0.1421  2.1800 -0.2777
  141OSM      N15381   5.041   4.501   6.128  0.1535  0.0203 -0.5939
  141OSM    C1515382   4.954   4.609   6.061 -0.2111 -1.0246  0.0689
  141OSM   H15A15383   5.016   4.678   6.006  0.0496 -1.7832 -0.6171
  141OSM   H15B15384   4.905   4.678   6.127  1.0788  0.9938 -0.9727
  141OSM   H15C15385   4.884   4.570   5.988 -0.6592  0.4199 -0.2912
  141OSM    C1415386   4.955   4.390   6.179 -1.0998  0.5805 -0.1217
  141OSM   H14A15387   4.881   4.418   6.252 -0.6055 -1.3757  1.2157
  141OSM   H14B15388   5.020   4.315   6.223 -0.0800  2.5354  1.9454
  141OSM   H14C15389   4.908   4.329   6.103  0.4967 -2.8714  1.4367
  141OSM    C1315390   5.122   4.443   6.014 -0.1635  0.4718 -0.2706
  141OSM   H13A15391   5.190   4.519   5.980 -0.4402  1.8796  2.1486
  141OSM   H13B15392   5.057   4.403   5.937  1.9838  0.6553 -2.3009
  141OSM   H13C15393   5.182   4.363   6.054 -0.4794  1.9215  3.5078
  141OSM    C1215394   5.133   4.562   6.237 -0.0593 -0.0572  0.1165
  141OSM   H12A15395   5.198   4.485   6.275 -1.4191 -0.8249  0.9689
  141OSM   H12B15396   5.066   4.575   6.322  1.0798  0.4310  0.9625
  141OSM    C1115397   5.210   4.691   6.195  0.8911  0.8917  0.0176
  141OSM   H11A15398   5.253   4.694   6.093  0.7633  0.0741 -0.0642
  141OSM   H11B15399   5.299   4.702   6.261 -0.5376 -1.4514  2.5373
  141OSM      P15400   5.097   4.892   6.326 -0.1140 -0.1784 -0.2814
  141OSM    O1315401   5.046   5.016   6.269 -0.2858  1.2138  0.0141
  141OSM    O1415402   5.025   4.813   6.426 -0.5985  0.0007 -0.3676
  141OSM    O1115403   5.243   4.917   6.371 -0.1124  0.4497  0.8473
  141OSM    O1215404   5.119   4.806   6.202 -0.3504 -0.4563  0.4023
  141OSM    C1S15405   5.266   4.992   6.501 -0.5953 -0.7338  0.3089
  141OSM    H1S15406   5.184   5.065   6.514 -1.1861 -0.8755 -2.1295
  141OSM    H1T15407   5.362   5.049   6.496  0.7914 -3.0177 -0.7718
  141OSM     NF15408   5.279   4.986   6.753 -0.0758 -0.2068 -0.0026
  141OSM    HNF15409   5.366   4.996   6.801 -1.0695  1.7673  1.5625
  141OSM    C2S15410   5.283   4.902   6.635  0.5537 -0.7078  0.2241
  141OSM    H2S15411   5.190   4.840   6.639 -0.8196  1.0252 -1.9624
  141OSM    C3S15412   5.409   4.819   6.610  0.7252  0.5833  0.0896
  141OSM    H3S15413   5.496   4.887   6.595  1.6418 -0.4841  0.4522
  141OSM     O315414   5.403   4.733   6.495 -0.1617 -0.3600 -0.0558
  141OSM    HO315415   5.327   4.774   6.452  0.5483 -0.3088 -1.3005
  141OSM    C4S15416   5.431   4.731   6.724  0.0779  0.4953 -0.3240
  141OSM    H4S15417   5.343   4.683   6.770  0.9652 -0.8447  0.0485
  141OSM    C5S15418   5.553   4.727   6.789 -0.3353  0.4393 -0.4237
  141OSM    H5S15419   5.640   4.787   6.757 -0.7255  2.3745  1.8931
  141OSM    C6S15420   5.561   4.648   6.918 -0.3891  0.3603 -0.8745
  141OSM    H6S15421   5.622   4.555   6.920  1.7915  1.7241  0.0467
  141OSM    H6T15422   5.462   4.609   6.949  0.2154  0.6358  1.6998
  141OSM    C7S15423   5.603   4.735   7.033 -0.1933 -0.0681 -0.4484
  141OSM    H7S15424   5.507   4.788   7.049 -1.4557 -2.2731 -0.2389
  141OSM    H7T15425   5.690   4.801   7.018  0.3877 -1.0877 -1.7959
  141OSM    C8S15426   5.640   4.657   7.161  0.6323  0.5041 -0.0830
  141OSM    H8S15427   5.730   4.607   7.118 -0.6333 -0.2000 -2.0764
  141OSM    H8T15428   5.565   4.579   7.187 -0.6816  0.4617 -3.4682
  141OSM    C9S15429   5.667   4.754   7.270 -0.3483 -0.8893 -0.2591
  141OSM    H9S15430   5.573   4.785   7.321 -0.0102 -2.4003  1.4109
  141OSM    H9T15431   5.726   4.843   7.241  1.9991 -1.7544  1.4398
  141OSM   C10S15432   5.749   4.695   7.386 -0.3039 -0.3582 -0.3952
  141OSM   H10S15433   5.845   4.660   7.343  0.2577  0.9596 -0.2590
  141OSM   H10T15434   5.686   4.615   7.432 -0.7441  0.5040  0.5305
  141OSM   C11S15435   5.770   4.798   7.499 -0.4301  0.0143  0.0022
  141OSM   H11S15436   5.667   4.813   7.538 -0.6943 -1.7128  0.0653
  141OSM   H11T15437   5.813   4.896   7.470  1.3331 -0.3808  1.1390
  141OSM   C12S15438   5.852   4.743   7.619  0.0291  0.3436 -0.0783
  141OSM   H12S15439   5.956   4.724   7.583 -0.3984 -2.1460 -0.1736
  141OSM   H12T15440   5.811   4.647   7.658  1.4627 -0.6428 -0.9203
  141OSM   C13S15441   5.870   4.834   7.741  0.1472  0.5945 -0.4811
  141OSM   H13S15442   5.767   4.858   7.772 -1.1240 -2.7199 -1.7190
  141OSM   H13T15443   5.934   4.919   7.707  0.1237 -0.3495 -3.1042
  141OSM   C14S15444   5.951   4.785   7.868  0.1937 -0.2086 -0.3063
  141OSM   H14S15445   6.049   4.737   7.850  1.2313  1.5399  0.4964
  141OSM   H14T15446   5.881   4.706   7.901  0.9559  0.6194  3.7517
  141OSM   C15S15447   5.949   4.888   7.979  0.5783 -0.2538  0.5651
  141OSM   H15S15448   5.845   4.903   8.017  0.7802 -0.0234  1.0417
  141OSM   H15T15449   5.985   4.986   7.942 -2.0777  2.0750  3.6323
  141OSM   C16S15450   6.036   4.834   8.091  0.6638 -0.1656  0.8049
  141OSM   H16S15451   6.143   4.842   8.064  1.1114  2.9272  3.0205
  141OSM   H16T15452   6.013   4.726   8.106 -0.7142 -0.0253 -0.1532
  141OSM   C17S15453   6.014   4.906   8.216 -0.1853  0.4869  0.1246
  141OSM   H17S15454   5.907   4.909   8.244 -0.0048  0.9515  0.7985
  141OSM   H17T15455   6.042   5.013   8.218 -2.2844  1.1521 -1.7115
  141OSM   C18S15456   6.105   4.836   8.318  0.1112 -0.3143  0.2871
  141OSM   H18S15457   6.210   4.866   8.298 -0.4508  1.4524 -0.1860
  141OSM   H18T15458   6.094   4.725   8.325  1.9252 -0.4479  2.1888
  141OSM   H18U15459   6.087   4.869   8.422 -0.6027 -1.1800  0.4510
  141OSM    C1F15460   5.174   5.055   6.797 -0.0186  0.6259 -0.5076
  141OSM     OF15461   5.063   5.051   6.743  0.2282 -0.1235 -0.3354
  141OSM    C2F15462   5.195   5.124   6.931  0.4966 -0.3981 -0.0941
  141OSM    H2F15463   5.303   5.138   6.952 -0.1580 -0.8959  4.5533
  141OSM    H2G15464   5.149   5.063   7.011  0.2392  1.7900  1.5133
  141OSM    C3F15465   5.150   5.273   6.928 -0.1940  0.1104 -0.1823
  141OSM    H3F15466   5.040   5.276   6.914 -0.3619 -0.2900  0.9720
  141OSM    H3G15467   5.191   5.328   6.840 -1.6761  0.7620 -0.5049
  141OSM    C4F15468   5.173   5.352   7.056 -0.4589  0.4821  0.4032
  141OSM    H4F15469   5.137   5.457   7.052 -0.9409  0.3343  0.8475
  141OSM    H4G15470   5.283   5.367   7.068 -0.2599 -0.5092 -0.1174
  141OSM    C5F15471   5.112   5.279   7.175 -0.1575  0.4411  0.3526
  141OSM    H5F15472   5.172   5.188   7.195 -0.5989  0.0231 -0.1974
  141OSM    H5G15473   5.013   5.230   7.161  0.9256 -2.4580  1.8493
  141OSM    C6F15474   5.094   5.370   7.298  0.3558  0.2698  0.1889
  141OSM    H6F15475   5.036   5.459   7.266  0.3006 -0.3234 -1.4102
  141OSM    H6G15476   5.194   5.407   7.328  0.7705 -0.2739 -0.4919
  141OSM    C7F15477   5.026   5.298   7.420 -0.4576  0.2690  0.0022
  141OSM    H7F15478   5.052   5.358   7.510  2.6970  0.1413 -0.7112
  141OSM    H7G15479   5.088   5.205   7.426  0.7814  0.9874 -1.2241
  141OSM    C8F15480   4.879   5.273   7.413  0.1465  0.1653  0.6431
  141OSM    H8F15481   4.850   5.215   7.323  3.2381 -0.7380  0.1437
  141OSM    H8G15482   4.836   5.375   7.401 -1.6850 -0.4722  1.3746
  141OSM    C9F15483   4.829   5.204   7.537 -0.0629 -0.3083  0.4409
  141OSM    H9F15484   4.869   5.102   7.546  0.4441 -0.4567 -2.4359
  141OSM   C10F15485   4.727   5.250   7.618  0.1590 -0.9694  0.8023
  141OSM   H10F15486   4.708   5.204   7.716 -2.1421 -2.1673 -0.1188
  141OSM   C11F15487   4.646   5.377   7.593 -0.4424 -0.3432 -0.5806
  141OSM   H11F15488   4.587   5.375   7.499  3.2015 -0.5420 -3.0762
  141OSM   H11G15489   4.708   5.469   7.589 -0.9761  0.1002  0.8885
  141OSM   C12F15490   4.554   5.411   7.711  0.1039 -0.2100 -0.1028
  141OSM   H12F15491   4.495   5.320   7.734  0.7707 -0.6111  0.0343
  141OSM   H12G15492   4.486   5.491   7.674  0.8921  0.2617 -0.5757
  141OSM   C13F15493   4.633   5.476   7.828  0.3582  0.6605 -0.2601
  141OSM   H13F15494   4.715   5.534   7.781  0.6850 -1.1819 -2.1207
  141OSM   H13G15495   4.685   5.393   7.880 -0.3797  0.5591  0.3346
  141OSM   C14F15496   4.548   5.539   7.934 -0.2576  0.0136 -0.0659
  141OSM   H14F15497   4.446   5.497   7.923 -0.8397  1.5161 -0.6107
  141OSM   H14G15498   4.546   5.650   7.927  0.9852  0.1038  0.6040
  141OSM   C15F15499   4.604   5.499   8.069 -0.3353  0.4528 -1.1431
  141OSM   H15F15500   4.709   5.537   8.071 -0.2222  0.2742  2.7181
  141OSM   H15G15501   4.613   5.389   8.077 -0.2124  0.5639  0.4215
  141OSM   C16F15502   4.524   5.532   8.193  0.1620  0.3279 -0.1941
  141OSM   H16F15503   4.426   5.481   8.182 -0.1688  0.8121  0.4586
  141OSM   H16G15504   4.509   5.642   8.203  0.0415  0.1548  1.8606
  141OSM   C17F15505   4.595   5.490   8.325 -0.3856 -0.0444 -0.7082
  141OSM   H17F15506   4.678   5.559   8.354  0.8495 -1.6733 -0.2548
  141OSM   H17G15507   4.647   5.394   8.304  0.1461  0.6166 -2.7190
  141OSM   C18F15508   4.518   5.464   8.452 -0.2453  0.0628  0.2377
  141OSM   H18F15509   4.474   5.560   8.489 -4.4163 -1.4133 -0.2864
  141OSM   H18G15510   4.583   5.428   8.535  0.6749  0.4130 -0.3177
  141OSM   H18H15511   4.421   5.411   8.443 -1.4535  2.4392 -2.4056
  142OSM      N15512   6.133   5.643   6.155  0.2454 -0.2032  0.4672
  142OSM    C1515513   6.074   5.724   6.050  0.2041 -0.5666  0.4622
  142OSM   H15A15514   6.152   5.774   5.997 -0.1732  0.8261  1.1816
  142OSM   H15B15515   6.005   5.793   6.097 -0.2537 -1.9224  1.8818
  142OSM   H15C15516   6.012   5.663   5.986  1.6204 -0.0143 -1.5020
  142OSM    C1415517   6.213   5.529   6.101 -0.2865 -0.0762  0.1918
  142OSM   H14A15518   6.244   5.453   6.171 -0.0222  1.1912  1.4976
  142OSM   H14B15519   6.299   5.562   6.045 -0.1376  0.4733  0.7333
  142OSM   H14C15520   6.159   5.470   6.028  0.2531  0.0763 -0.3358
  142OSM    C1315521   6.212   5.740   6.234  0.7724  0.4362  0.5803
  142OSM   H13A15522   6.289   5.783   6.172  0.0814 -0.2425 -0.8092
  142OSM   H13B15523   6.263   5.700   6.320  4.9836  0.3980 -1.6833
  142OSM   H13C15524   6.144   5.817   6.266 -0.8657 -0.1103 -1.3746
  142OSM    C1215525   6.024   5.583   6.234  0.3300 -0.5542 -0.0719
  142OSM   H12A15526   6.069   5.503   6.292  0.3271 -1.4386 -1.2444
  142OSM   H12B15527   5.955   5.536   6.164  0.1664  0.8137 -0.8594
  142OSM    C1115528   5.936   5.679   6.322 -0.3982 -0.3620  0.3908
  142OSM   H11A15529   5.994   5.700   6.414 -0.0356  0.0609  0.0753
  142OSM   H11B15530   5.847   5.619   6.353 -1.8688  1.8315  0.6565
  142OSM      P15531   5.748   5.861   6.303  0.4065 -0.0767 -0.1045
  142OSM    O1315532   5.745   5.994   6.235  0.3091  0.3388 -0.4991
  142OSM    O1415533   5.638   5.767   6.273 -0.0391 -0.1998 -0.0101
  142OSM    O1115534   5.770   5.884   6.461  0.2145 -0.1822 -0.6699
  142OSM    O1215535   5.890   5.805   6.260  0.1760  0.7027 -0.5431
  142OSM    C1S15536   5.760   5.785   6.566  1.4787  0.2564 -0.0754
  142OSM    H1S15537   5.860   5.765   6.611  1.4868 -2.1179 -1.0333
  142OSM    H1T15538   5.724   5.688   6.527  2.4682 -0.6142  1.1090
  142OSM     NF15539   5.625   5.722   6.776 -0.2099 -0.1206  0.2927
  142OSM    HNF15540   5.532   5.689   6.762 -0.6943  1.0700  0.5950
  142OSM    C2S15541   5.662   5.830   6.684  0.0402 -0.4234  0.7030
  142OSM    H2S15542   5.723   5.908   6.736 -1.1846  3.0982 -2.6319
  142OSM    C3S15543   5.536   5.912   6.634  0.1390 -0.0255  0.3822
  142OSM    H3S15544   5.474   5.832   6.588  0.9226 -2.8095  3.7186
  142OSM     O315545   5.552   6.005   6.526  0.0554 -0.6262 -0.2439
  142OSM    HO315546   5.647   6.005   6.510  0.2715  1.9148  0.6142
  142OSM    C4S15547   5.461   5.978   6.752 -0.6839  0.3920 -0.0924
  142OSM    H4S15548   5.519   6.059   6.799  0.3553 -0.1320 -0.4393
  142OSM    C5S15549   5.340   5.941   6.806 -0.1726 -0.0613 -0.1768
  142OSM    H5S15550   5.284   5.859   6.757  1.4052 -0.5986 -1.1725
  142OSM    C6S15551   5.274   6.007   6.927  0.1675  0.4208  1.3467
  142OSM    H6S15552   5.185   5.943   6.945 -1.3134  2.2453  0.8697
  142OSM    H6T15553   5.239   6.110   6.903 -0.5555 -0.3135 -1.0698
  142OSM    C7S15554   5.349   6.005   7.057  0.4553  0.1305  0.5280
  142OSM    H7S15555   5.439   6.069   7.044 -1.1912  2.1714 -1.8037
  142OSM    H7T15556   5.392   5.904   7.074 -1.3524 -0.7557  0.0088
  142OSM    C8S15557   5.266   6.051   7.174  0.2047 -0.1618 -0.0363
  142OSM    H8S15558   5.199   5.965   7.193  0.8143 -0.4294  0.9742
  142OSM    H8T15559   5.207   6.145   7.168 -0.0730 -0.4209 -2.0239
  142OSM    C9S15560   5.351   6.068   7.308  0.3815 -1.3515  0.4461
  142OSM    H9S15561   5.440   6.133   7.296  1.0794 -1.9544  2.1256
  142OSM    H9T15562   5.397   5.973   7.343  0.1126 -1.1869  1.2647
  142OSM   C10S15563   5.274   6.119   7.436  0.4810 -0.0182  0.1084
  142OSM   H10S15564   5.199   6.039   7.451  0.7490 -0.1690  0.6663
  142OSM   H10T15565   5.236   6.224   7.433  1.7024  0.4240 -1.4278
  142OSM   C11S15566   5.371   6.126   7.554  0.5330  0.8396 -0.1001
  142OSM   H11S15567   5.430   6.220   7.546  0.2679  1.0589  0.5039
  142OSM   H11T15568   5.438   6.038   7.557 -0.3939  0.1118 -0.3207
  142OSM   C12S15569   5.292   6.133   7.685 -0.2235 -0.4680  0.4055
  142OSM   H12S15570   5.220   6.049   7.697 -1.3685  0.6644  1.8285
  142OSM   H12T15571   5.230   6.225   7.680  0.6705  0.0675 -1.9913
  142OSM   C13S15572   5.384   6.145   7.803 -0.0548  0.6384 -1.0611
  142OSM   H13S15573   5.463   6.220   7.783 -0.1810  0.6301 -1.6144
  142OSM   H13T15574   5.445   6.056   7.830 -0.3577 -0.0624 -2.5725
  142OSM   C14S15575   5.296   6.190   7.923 -0.1408  0.5939  0.1335
  142OSM   H14S15576   5.221   6.112   7.948  2.9359 -2.2028  1.2342
  142OSM   H14T15577   5.252   6.290   7.901 -0.4163  0.7155  1.1767
  142OSM   C15S15578   5.376   6.205   8.056 -0.4910 -0.0558  0.7095
  142OSM   H15S15579   5.466   6.269   8.048 -0.0528 -0.4332  2.2671
  142OSM   H15T15580   5.415   6.106   8.087  1.3089  0.3640 -0.1026
  142OSM   C16S15581   5.291   6.284   8.158  0.3426 -0.6435  0.0896
  142OSM   H16S15582   5.186   6.250   8.150 -0.3539  1.2113  0.6843
  142OSM   H16T15583   5.288   6.391   8.127 -0.1515 -0.5122  0.5741
  142OSM   C17S15584   5.331   6.285   8.307  0.4508 -0.0389  0.0013
  142OSM   H17S15585   5.317   6.180   8.338  2.3477 -1.1896 -2.7150
  142OSM   H17T15586   5.264   6.348   8.370 -0.5729  1.8843 -2.8166
  142OSM   C18S15587   5.473   6.330   8.329 -0.2627  0.2482  0.2302
  142OSM   H18S15588   5.540   6.250   8.294  1.0448  1.6641 -0.6226
  142OSM   H18T15589   5.494   6.355   8.435  0.0024 -0.2033  0.2839
  142OSM   H18U15590   5.502   6.414   8.262 -0.7350 -1.2497 -1.9663
  142OSM    C1F15591   5.716   5.663   6.849  0.5540  0.4089 -0.5165
  142OSM     OF15592   5.823   5.719   6.871 -0.1096 -0.0213 -0.1493
  142OSM    C2F15593   5.673   5.521   6.893 -0.2920 -0.0867 -0.3423
  142OSM    H2F15594   5.759   5.452   6.890  0.7011  0.9929  1.5681
  142OSM    H2G15595   5.588   5.490   6.828  0.6800 -0.0194 -1.6884
  142OSM    C3F15596   5.628   5.512   7.046  0.2165 -0.2865  0.3343
  142OSM    H3F15597   5.705   5.559   7.109 -0.7760  0.7874  0.7856
  142OSM    H3G15598   5.612   5.405   7.071  0.7470 -0.1683  1.2020
  142OSM    C4F15599   5.499   5.593   7.071 -0.0852  0.3208 -0.3918
  142OSM    H4F15600   5.408   5.555   7.019  0.2652  1.0554 -1.5924
  142OSM    H4G15601   5.516   5.701   7.051  3.9251 -0.2880 -1.2432
  142OSM    C5F15602   5.462   5.584   7.221  0.5035  0.4896  0.2072
  142OSM    H5F15603   5.549   5.568   7.289 -1.6546 -0.3459  2.9481
  142OSM    H5G15604   5.387   5.502   7.222  2.6977 -1.6530  1.3328
  142OSM    C6F15605   5.371   5.698   7.258 -0.4197  0.2546 -0.4903
  142OSM    H6F15606   5.276   5.689   7.201 -0.5759 -2.7318  0.0804
  142OSM    H6G15607   5.419   5.795   7.233 -0.3726  0.3140 -0.1713
  142OSM    C7F15608   5.327   5.701   7.407 -1.0858  0.1737 -0.0885
  142OSM    H7F15609   5.285   5.602   7.434  3.5807 -1.6702  1.5510
  142OSM    H7G15610   5.253   5.783   7.405 -1.0534  0.3302  2.1278
  142OSM    C8F15611   5.438   5.741   7.508 -0.5579  0.2246  0.0298
  142OSM    H8F15612   5.496   5.824   7.462  0.2652 -0.3544  0.0149
  142OSM    H8G15613   5.516   5.662   7.513 -0.8778 -0.0220  2.4728
  142OSM    C9F15614   5.368   5.797   7.634 -0.3538  0.1591  0.6527
  142OSM    H9F15615   5.284   5.865   7.614  0.0904  0.6637  0.4763
  142OSM   C10F15616   5.382   5.754   7.763  0.3224 -0.2467  0.1795
  142OSM   H10F15617   5.328   5.816   7.836  1.2924  1.2425 -0.3100
  142OSM   C11F15618   5.478   5.650   7.817  0.5537  0.3554  0.2791
  142OSM   H11F15619   5.584   5.678   7.804  0.9549 -0.6882  1.1346
  142OSM   H11G15620   5.483   5.558   7.755 -1.1972 -0.8875  1.8620
  142OSM   C12F15621   5.445   5.635   7.965 -0.5551  0.0040 -0.2271
  142OSM   H12F15622   5.338   5.610   7.978 -0.1461 -0.6572  2.4211
  142OSM   H12G15623   5.472   5.735   8.005  1.2194  0.1991 -1.7770
  142OSM   C13F15624   5.539   5.524   8.029 -0.4075 -0.0098 -0.1718
  142OSM   H13F15625   5.643   5.558   8.012 -0.3970  0.7901  1.3947
  142OSM   H13G15626   5.516   5.426   7.981  1.2683 -0.9532  0.8905
  142OSM   C14F15627   5.512   5.502   8.180 -0.3120 -0.0527  0.4844
  142OSM   H14F15628   5.402   5.498   8.194 -0.1621  0.2076  1.8918
  142OSM   H14G15629   5.542   5.602   8.219  1.5369 -0.4857  0.2358
  142OSM   C15F15630   5.566   5.372   8.238 -0.6676 -0.8999  0.1011
  142OSM   H15F15631   5.549   5.394   8.345 -1.9830 -0.9869 -0.0708
  142OSM   H15G15632   5.676   5.368   8.222 -0.5348 -1.1971  1.0316
  142OSM   C16F15633   5.491   5.244   8.191 -0.4895 -0.2188 -0.0082
  142OSM   H16F15634   5.507   5.208   8.087  1.5115  1.1374 -0.2325
  142OSM   H16G15635   5.385   5.270   8.209  0.0550  1.9650  0.3809
  142OSM   C17F15636   5.519   5.125   8.279 -0.0128  0.4875  0.6102
  142OSM   H17F15637   5.448   5.042   8.261  0.4139 -0.0795  1.4931
  142OSM   H17G15638   5.515   5.156   8.386 -1.2863  1.7652  0.2157
  142OSM   C18F15639   5.656   5.062   8.243 -0.4836 -0.1174 -0.4329
  142OSM   H18F15640   5.668   4.963   8.291 -1.8470 -0.8770 -1.6009
  142OSM   H18G15641   5.739   5.129   8.274 -2.1243  1.4862  0.7490
  142OSM   H18H15642   5.678   5.045   8.136 -1.7509 -1.5127 -0.5029
  143OSM      N15643   1.514   1.954   6.185  0.9254 -0.2930  0.3267
  143OSM    C1515644   1.441   1.857   6.279  0.3475  0.2089  0.3643
  143OSM   H15A15645   1.439   1.763   6.227 -1.6781 -0.6647  1.8780
  143OSM   H15B15646   1.345   1.903   6.298  0.9435  1.0333  1.5275
  143OSM   H15C15647   1.486   1.846   6.377 -0.8652 -0.2573  0.8833
  143OSM    C1415648   1.456   1.948   6.045  0.1155  0.3921  0.1910
  143OSM   H14A15649   1.457   1.846   6.007  0.3734  0.4800 -0.0381
  143OSM   H14B15650   1.510   2.009   5.975 -0.9027 -1.1086 -2.0264
  143OSM   H14C15651   1.351   1.975   6.042 -0.4833 -1.7330  0.1330
  143OSM    C1315652   1.492   2.091   6.237 -0.6860  0.2384  0.0912
  143OSM   H13A15653   1.524   2.166   6.166  1.9467 -2.2717 -1.6318
  143OSM   H13B15654   1.558   2.104   6.321  1.4367 -0.8576 -1.3249
  143OSM   H13C15655   1.388   2.099   6.266 -0.9777  0.0066 -0.8310
  143OSM    C1215656   1.659   1.920   6.184  0.2147 -0.4448  0.3172
  143OSM   H12A15657   1.699   1.975   6.101 -0.6246 -1.4648 -0.7940
  143OSM   H12B15658   1.680   1.818   6.156  2.0637 -0.6700  2.2607
  143OSM    C1115659   1.738   1.944   6.317  0.4089  0.1280 -0.3395
  143OSM   H11A15660   1.722   1.853   6.380  0.6548  1.6858  2.0963
  143OSM   H11B15661   1.688   2.019   6.381 -0.1932 -1.6324  1.3711
  143OSM      P15662   1.979   1.869   6.255 -0.1631  0.0504 -0.0020
  143OSM    O1315663   1.951   1.818   6.114 -0.1361 -0.1613 -0.0384
  143OSM    O1415664   2.114   1.914   6.280  0.4119  0.5267 -0.1896
  143OSM    O1115665   1.932   1.755   6.349  0.1486 -0.3176  0.1402
  143OSM    O1215666   1.874   1.975   6.288 -0.1974 -0.3164  0.0933
  143OSM    C1S15667   1.988   1.756   6.484  0.5182 -0.4016  0.9413
  143OSM    H1S15668   1.981   1.857   6.529  0.4527  0.5439 -1.0638
  143OSM    H1T15669   2.098   1.736   6.478  0.6790  0.8482 -1.4323
  143OSM     NF15670   1.984   1.664   6.718 -0.0475 -0.1935  0.0016
  143OSM    HNF15671   2.062   1.607   6.743  0.6523 -0.1855 -1.9555
  143OSM    C2S15672   1.935   1.649   6.581 -0.7475  0.3564  0.4872
  143OSM    H2S15673   1.825   1.662   6.589 -1.0165 -2.1918  2.4408
  143OSM    C3S15674   1.964   1.511   6.518 -0.1171 -0.0150 -0.3905
  143OSM    H3S15675   2.075   1.506   6.518 -0.1230 -0.2038 -1.1167
  143OSM     O315676   1.939   1.482   6.380 -0.3992  0.2527  0.0643
  143OSM    HO315677   1.917   1.567   6.341 -1.0931  0.0741  0.0572
  143OSM    C4S15678   1.898   1.410   6.606  0.8405  0.0596 -0.7783
  143OSM    H4S15679   1.955   1.333   6.662 -1.1724 -1.0593 -0.1517
  143OSM    C5S15680   1.764   1.405   6.612  0.6753  0.9177  0.1114
  143OSM    H5S15681   1.709   1.486   6.562  1.6487  0.5523 -1.6027
  143OSM    C6S15682   1.685   1.307   6.695  0.6425 -0.5889  0.3516
  143OSM    H6S15683   1.658   1.228   6.622  0.8423 -2.6210  2.3666
  143OSM    H6T15684   1.588   1.360   6.706  0.9522  0.8335 -2.6518
  143OSM    C7S15685   1.734   1.248   6.826  0.5972  0.4487 -0.2549
  143OSM    H7S15686   1.820   1.180   6.807  1.4396  1.1763  0.8555
  143OSM    H7T15687   1.659   1.177   6.865  1.7769 -0.1225  1.0840
  143OSM    C8S15688   1.787   1.338   6.935 -0.4141 -0.5935  0.0748
  143OSM    H8S15689   1.699   1.372   6.994 -1.3178  0.9928 -2.0744
  143OSM    H8T15690   1.826   1.426   6.880  0.3134  0.0665  1.5810
  143OSM    C9S15691   1.902   1.277   7.018 -0.3500  0.2916  0.4489
  143OSM    H9S15692   1.989   1.259   6.950 -0.8941 -1.3093  0.1489
  143OSM    H9T15693   1.876   1.180   7.065 -1.3699  0.6419  0.6153
  143OSM   C10S15694   1.953   1.358   7.131 -0.4530 -1.1865  0.1897
  143OSM   H10S15695   1.985   1.460   7.101  0.1890 -0.1960  3.7655
  143OSM   H10T15696   2.037   1.308   7.185 -0.3556 -0.1228  1.0598
  143OSM   C11S15697   1.853   1.400   7.241 -0.1799  0.5912 -0.7387
  143OSM   H11S15698   1.789   1.314   7.269 -2.2570  2.0782 -0.6209
  143OSM   H11T15699   1.793   1.491   7.217 -1.2172 -0.1502 -1.0169
  143OSM   C12S15700   1.934   1.441   7.368  0.2444  0.1030 -0.0714
  143OSM   H12S15701   1.970   1.546   7.360 -1.1452  0.7107  1.2039
  143OSM   H12T15702   2.020   1.370   7.372  0.5052  0.4787  1.1217
  143OSM   C13S15703   1.846   1.426   7.501 -0.0072  0.0525  0.0377
  143OSM   H13S15704   1.752   1.478   7.472  0.3717 -0.2392 -1.8615
  143OSM   H13T15705   1.880   1.474   7.596 -1.2246 -1.4174  1.2642
  143OSM   C14S15706   1.819   1.280   7.540  0.3481  0.3805  0.1246
  143OSM   H14S15707   1.909   1.217   7.530  0.6029  0.8251 -0.4805
  143OSM   H14T15708   1.740   1.253   7.467 -0.4988 -0.6528  1.3696
  143OSM   C15S15709   1.771   1.272   7.691 -0.1052 -0.0288 -0.4286
  143OSM   H15S15710   1.728   1.171   7.703  1.5711 -0.6290  0.8633
  143OSM   H15T15711   1.686   1.342   7.709  0.5223  0.3056  1.5117
  143OSM   C16S15712   1.889   1.286   7.793  0.1443 -0.7004 -0.3217
  143OSM   H16S15713   1.923   1.392   7.788 -1.6614  0.2937  3.6442
  143OSM   H16T15714   1.978   1.226   7.765  1.4481 -0.4168  2.7987
  143OSM   C17S15715   1.863   1.250   7.939 -0.4342 -0.3503  0.1251
  143OSM   H17S15716   1.841   1.141   7.937  0.8267 -0.6468  0.9718
  143OSM   H17T15717   1.770   1.295   7.980  0.1426  0.1461  0.9332
  143OSM   C18S15718   1.977   1.278   8.036 -0.6660 -0.0008 -0.0021
  143OSM   H18S15719   2.007   1.385   8.047 -0.2857 -0.2285  1.4616
  143OSM   H18T15720   2.074   1.247   7.992  0.4948  1.2347  1.5674
  143OSM   H18U15721   1.975   1.238   8.140  0.2053 -0.8369 -0.2991
  143OSM    C1F15722   1.934   1.759   6.794  0.3419 -0.1589  0.3826
  143OSM     OF15723   1.854   1.840   6.747  0.2348  0.5388 -0.5213
  143OSM    C2F15724   1.994   1.767   6.931  0.6011 -0.7186  0.9971
  143OSM    H2F15725   2.089   1.824   6.927  0.7342 -1.0276 -1.2602
  143OSM    H2G15726   2.014   1.665   6.971 -0.5573 -1.7839 -0.9667
  143OSM    C3F15727   1.880   1.833   7.023  0.1178  0.1103  0.2708
  143OSM    H3F15728   1.791   1.768   7.010 -0.2444  0.5593  0.5277
  143OSM    H3G15729   1.840   1.931   6.990  1.7133  0.8841  0.5395
  143OSM    C4F15730   1.929   1.842   7.167  0.5930  1.0803  0.3186
  143OSM    H4F15731   2.017   1.909   7.162  1.9287 -0.6503 -0.8737
  143OSM    H4G15732   1.970   1.746   7.206 -0.7776  1.0393  1.7351
  143OSM    C5F15733   1.815   1.886   7.257  0.2579 -0.0642 -0.7851
  143OSM    H5F15734   1.736   1.809   7.268  0.6940 -0.3152  0.7649
  143OSM    H5G15735   1.776   1.981   7.215  0.1764  0.1121 -0.3100
  143OSM    C6F15736   1.867   1.929   7.396 -0.0803  0.5144  0.3296
  143OSM    H6F15737   1.814   2.017   7.437 -1.1652  0.2988 -0.5561
  143OSM    H6G15738   1.971   1.968   7.386  0.0532 -0.3040 -2.3609
  143OSM    C7F15739   1.866   1.815   7.499 -0.6963 -0.1301 -0.0402
  143OSM    H7F15740   1.918   1.738   7.438 -0.0584  0.0311  0.2895
  143OSM    H7G15741   1.766   1.776   7.528 -0.9286  1.1443  0.9662
  143OSM    C8F15742   1.943   1.849   7.625 -0.6137  0.2047  0.7893
  143OSM    H8F15743   1.873   1.900   7.694 -0.8297  1.7268 -0.4785
  143OSM    H8G15744   2.041   1.900   7.614 -0.1129 -0.6250  1.3030
  143OSM    C9F15745   1.972   1.717   7.692  0.2219 -0.3325  0.3910
  143OSM    H9F15746   2.025   1.641   7.632  0.5876 -0.1649  0.4932
  143OSM   C10F15747   1.924   1.689   7.820  0.4702  0.1379  0.6936
  143OSM   H10F15748   1.961   1.597   7.867  0.1980  0.7199  2.0993
  143OSM   C11F15749   1.831   1.756   7.925 -0.0185 -0.1064  0.2569
  143OSM   H11F15750   1.736   1.700   7.927 -1.2452  1.7328 -1.7860
  143OSM   H11G15751   1.815   1.864   7.903  1.3226  0.1274  0.3454
  143OSM   C12F15752   1.907   1.757   8.056 -0.0407 -0.1680  0.2189
  143OSM   H12F15753   1.901   1.656   8.101  0.4376 -0.2770  0.0530
  143OSM   H12G15754   1.854   1.832   8.119 -0.5657  1.3676 -1.9274
  143OSM   C13F15755   2.058   1.805   8.038 -0.1622 -0.2519  0.4765
  143OSM   H13F15756   2.058   1.890   7.967 -0.3632 -0.3494  0.3583
  143OSM   H13G15757   2.111   1.728   7.978  0.3267  1.0385 -0.7831
  143OSM   C14F15758   2.147   1.843   8.153 -0.1748 -0.4343 -0.6678
  143OSM   H14F15759   2.127   1.939   8.204  2.0038  0.4614 -1.3648
  143OSM   H14G15760   2.250   1.865   8.117 -1.2228  4.7678 -1.2806
  143OSM   C15F15761   2.142   1.729   8.262 -0.0938  0.6664  0.2285
  143OSM   H15F15762   2.036   1.730   8.297  0.0850  0.9174  0.7789
  143OSM   H15G15763   2.213   1.761   8.341 -0.0009 -0.8016  0.7709
  143OSM   C16F15764   2.201   1.591   8.217 -0.1959 -0.6111  0.5734
  143OSM   H16F15765   2.296   1.617   8.165 -1.0081 -0.4533 -0.9057
  143OSM   H16G15766   2.142   1.544   8.135  1.3428 -4.3146  1.3930
  143OSM   C17F15767   2.227   1.487   8.330 -0.2365  0.1792  0.6503
  143OSM   H17F15768   2.310   1.528   8.391  0.9621  0.1095 -0.8739
  143OSM   H17G15769   2.272   1.391   8.297  1.4553  0.8877  0.8187
  143OSM   C18F15770   2.110   1.460   8.420  0.0521  0.2321  0.1335
  143OSM   H18F15771   2.071   1.356   8.425  3.2114 -0.9841  2.5508
  143OSM   H18G15772   2.023   1.510   8.373  1.6067  3.6609  0.5744
  143OSM   H18H15773   2.126   1.510   8.518 -1.4024  3.2078 -1.0186
  144OSM      N15774   1.867   1.048   5.962 -0.0367  0.1648 -0.8230
  144OSM    C1515775   1.761   1.149   5.988  0.2203 -0.6751 -0.5176
  144OSM   H15A15776   1.692   1.109   6.060  0.9805  1.0494  1.2498
  144OSM   H15B15777   1.713   1.190   5.900  3.3647  0.0098 -2.0498
  144OSM   H15C15778   1.806   1.234   6.037  1.6875 -2.5959  1.6758
  144OSM    C1415779   1.815   0.948   5.873 -0.1894 -0.2386  0.1657
  144OSM   H14A15780   1.888   0.871   5.856  0.7876  0.8561 -0.7589
  144OSM   H14B15781   1.772   0.990   5.783  1.7413 -0.2059 -0.7841
  144OSM   H14C15782   1.739   0.894   5.928  0.4549  0.3040  1.6442
  144OSM    C1315783   1.982   1.118   5.901  0.2280  0.2235 -0.1858
  144OSM   H13A15784   2.018   1.199   5.963  1.4654  0.0326 -0.6301
  144OSM   H13B15785   1.941   1.164   5.813 -1.1849  1.2718  0.9633
  144OSM   H13C15786   2.066   1.054   5.878  1.2826  1.5342 -0.0865
  144OSM    C1215787   1.906   0.962   6.087 -0.3193  0.1755  0.0998
  144OSM   H12A15788   1.946   1.033   6.157 -0.3913 -1.0035  1.3775
  144OSM   H12B15789   1.991   0.902   6.060 -2.0395 -1.6057 -1.7348
  144OSM    C1115790   1.800   0.876   6.165  1.2643  0.5768  0.1561
  144OSM   H11A15791   1.725   0.945   6.210 -0.2624 -1.2586  0.5722
  144OSM   H11B15792   1.836   0.821   6.255 -0.4479  0.4185  0.7785
  144OSM      P15793   1.590   0.739   6.110 -0.2580 -0.0792 -0.0855
  144OSM    O1315794   1.492   0.851   6.072 -0.6407  0.1366 -0.1038
  144OSM    O1415795   1.571   0.608   6.052 -0.0938 -0.1820 -0.0672
  144OSM    O1115796   1.585   0.719   6.268 -0.0299 -0.4398 -0.2818
  144OSM    O1215797   1.739   0.784   6.077  0.5465 -0.2211  0.2720
  144OSM    C1S15798   1.480   0.754   6.362 -0.0951 -0.1507  0.4080
  144OSM    H1S15799   1.385   0.715   6.320 -0.6111  2.5193 -1.1586
  144OSM    H1T15800   1.472   0.865   6.356 -1.4733 -0.1954  1.0470
  144OSM     NF15801   1.381   0.694   6.570  0.3318 -0.5297 -0.2290
  144OSM    HNF15802   1.349   0.776   6.617  1.1936  1.7024 -3.2790
  144OSM    C2S15803   1.508   0.708   6.503 -0.2461 -0.1236 -0.2455
  144OSM    H2S15804   1.562   0.611   6.501  0.1376  0.0824 -0.0814
  144OSM    C3S15805   1.599   0.809   6.575 -0.3839 -0.3960 -0.0425
  144OSM    H3S15806   1.546   0.907   6.573 -0.3367 -0.3705 -0.0345
  144OSM     O315807   1.730   0.822   6.514  0.8826  0.0724  0.4865
  144OSM    HO315808   1.717   0.782   6.428 -3.5168  0.7238  0.5867
  144OSM    C4S15809   1.623   0.768   6.712  0.9883  0.7821 -0.4041
  144OSM    H4S15810   1.633   0.662   6.739 -1.4351  0.4029 -0.7053
  144OSM    C5S15811   1.602   0.853   6.821 -0.0039  0.0088 -0.4951
  144OSM    H5S15812   1.583   0.959   6.802 -1.0556 -0.1538 -0.4689
  144OSM    C6S15813   1.609   0.811   6.972 -0.0662 -0.3832  0.1020
  144OSM    H6S15814   1.666   0.716   6.966  1.2976  0.3408  1.1117
  144OSM    H6T15815   1.500   0.799   6.990 -0.3804 -2.3304 -2.3708
  144OSM    C7S15816   1.672   0.913   7.058 -0.0321  0.7417 -0.6742
  144OSM    H7S15817   1.619   1.009   7.037 -0.0504  1.6760  2.9856
  144OSM    H7T15818   1.780   0.921   7.034  0.5083  0.2823  1.4406
  144OSM    C8S15819   1.657   0.886   7.206 -0.8087  0.0324  0.2582
  144OSM    H8S15820   1.670   0.777   7.224  0.8501 -0.1788 -1.7921
  144OSM    H8T15821   1.563   0.926   7.249  0.0023  1.0126  1.1907
  144OSM    C9S15822   1.769   0.959   7.285 -0.1665 -0.1857  0.5886
  144OSM    H9S15823   1.757   1.069   7.287 -0.5754 -0.2289  0.6281
  144OSM    H9T15824   1.864   0.942   7.231 -0.5119  1.2644 -0.5491
  144OSM   C10S15825   1.782   0.908   7.423  0.3023  0.8264  0.3646
  144OSM   H10S15826   1.872   0.950   7.472 -0.3159  2.1069  0.4367
  144OSM   H10T15827   1.791   0.797   7.422 -0.7141  0.7366  0.4441
  144OSM   C11S15828   1.665   0.936   7.519 -0.0121 -0.3594  0.2462
  144OSM   H11S15829   1.566   0.907   7.477  0.1660  1.4850 -1.6421
  144OSM   H11T15830   1.666   1.042   7.551 -0.2165  0.0362 -1.0140
  144OSM   C12S15831   1.674   0.840   7.638  0.9055 -0.6803 -0.2720
  144OSM   H12S15832   1.705   0.740   7.600  0.7225 -0.9812  0.3679
  144OSM   H12T15833   1.568   0.834   7.673  0.1581 -0.7955 -2.4086
  144OSM   C13S15834   1.768   0.885   7.751  0.5266  0.7294 -0.0073
  144OSM   H13S15835   1.732   0.979   7.798 -0.2126  1.9315 -2.7138
  144OSM   H13T15836   1.869   0.906   7.710  0.3290 -1.0652 -1.5879
  144OSM   C14S15837   1.784   0.764   7.850  0.1109  0.0676 -0.4512
  144OSM   H14S15838   1.826   0.672   7.804 -2.9282 -2.3785  1.2377
  144OSM   H14T15839   1.683   0.730   7.884  0.3084  0.9178  1.0581
  144OSM   C15S15840   1.863   0.798   7.982 -0.5848 -1.3456 -0.5201
  144OSM   H15S15841   1.829   0.897   8.019 -1.4896 -1.9863  0.4259
  144OSM   H15T15842   1.967   0.817   7.948 -0.7812  0.0938 -0.3865
  144OSM   C16S15843   1.849   0.706   8.101 -0.8575 -0.5050 -0.8986
  144OSM   H16S15844   1.907   0.613   8.085 -0.7033 -0.8000  1.1620
  144OSM   H16T15845   1.743   0.681   8.126 -0.8460  0.1597 -0.1208
  144OSM   C17S15846   1.891   0.773   8.235 -0.2707  0.4045  0.3044
  144OSM   H17S15847   1.834   0.867   8.251  1.8173  1.8519 -0.2931
  144OSM   H17T15848   1.998   0.802   8.231 -0.1981  0.3105  1.3619
  144OSM   C18S15849   1.883   0.678   8.354 -0.0140  0.4822 -0.2188
  144OSM   H18S15850   1.791   0.615   8.359  1.7041 -2.1413  1.3455
  144OSM   H18T15851   1.893   0.733   8.450  1.5059  0.3063 -0.2517
  144OSM   H18U15852   1.965   0.603   8.347 -1.4018 -1.1277  0.0513
  144OSM    C1F15853   1.306   0.585   6.550 -0.0842 -0.3025  0.0155
  144OSM     OF15854   1.340   0.499   6.471  0.5886 -0.5842  0.3404
  144OSM    C2F15855   1.170   0.580   6.614  0.2989  0.0598 -0.1784
  144OSM    H2F15856   1.151   0.471   6.629  0.1458  0.0191 -0.6511
  144OSM    H2G15857   1.097   0.626   6.544 -0.7881 -0.3516  0.6618
  144OSM    C3F15858   1.173   0.640   6.746 -0.2273  0.3431 -0.0351
  144OSM    H3F15859   1.066   0.648   6.775 -0.0173 -0.0271  0.8859
  144OSM    H3G15860   1.203   0.746   6.741  0.4283  0.1364 -0.6379
  144OSM    C4F15861   1.255   0.581   6.864  0.5421  0.3372 -0.0892
  144OSM    H4F15862   1.365   0.583   6.850  0.7879 -0.4760  1.4702
  144OSM    H4G15863   1.222   0.476   6.873  0.1500  0.5626  1.3136
  144OSM    C5F15864   1.229   0.668   6.990 -1.2107 -0.6409  0.0965
  144OSM    H5F15865   1.118   0.661   7.003 -0.9893 -0.0190  2.9795
  144OSM    H5G15866   1.266   0.770   6.968 -0.6326 -0.6659  0.9132
  144OSM    C6F15867   1.279   0.600   7.119  0.0407  1.1386  0.4264
  144OSM    H6F15868   1.390   0.592   7.117 -0.0851 -1.1638 -1.4808
  144OSM    H6G15869   1.242   0.496   7.116 -0.7252  1.3519 -3.7279
  144OSM    C7F15870   1.208   0.646   7.250  0.0575  0.6583  0.5881
  144OSM    H7F15871   1.101   0.658   7.223  0.5292 -2.0321 -3.3571
  144OSM    H7G15872   1.250   0.744   7.279  1.3708  0.3935 -0.3328
  144OSM    C8F15873   1.212   0.536   7.364 -0.0120 -0.8659  0.3778
  144OSM    H8F15874   1.161   0.450   7.316 -0.4471 -1.3887  1.7325
  144OSM    H8G15875   1.159   0.574   7.453 -0.7450  0.6546 -0.6660
  144OSM    C9F15876   1.358   0.505   7.401  0.0415  0.1396 -0.6850
  144OSM    H9F15877   1.415   0.464   7.316  0.3952  1.0020 -0.8775
  144OSM   C10F15878   1.415   0.531   7.518 -0.2704 -0.6466  0.5699
  144OSM   H10F15879   1.521   0.502   7.528  0.1718  0.3469 -0.7807
  144OSM   C11F15880   1.353   0.595   7.642 -0.5254 -0.2304  0.2599
  144OSM   H11F15881   1.249   0.556   7.645 -0.0369 -1.5445  1.3490
  144OSM   H11G15882   1.365   0.704   7.631 -1.7620 -0.2194 -1.2247
  144OSM   C12F15883   1.451   0.556   7.758  0.0455  0.2158  0.8828
  144OSM   H12F15884   1.554   0.583   7.725  0.6919 -1.4558  1.4170
  144OSM   H12G15885   1.448   0.448   7.782 -1.8314  0.1884  0.6897
  144OSM   C13F15886   1.418   0.632   7.895 -0.6353  1.1367 -0.5584
  144OSM   H13F15887   1.309   0.639   7.916 -0.5081  1.6887 -0.0793
  144OSM   H13G15888   1.450   0.736   7.876 -0.2084  1.2171  0.5606
  144OSM   C14F15889   1.488   0.564   8.012  0.0212 -0.9086 -0.2457
  144OSM   H14F15890   1.599   0.578   8.012  0.0471 -1.0002  0.9911
  144OSM   H14G15891   1.479   0.453   8.009 -0.1792 -0.8891 -0.3426
  144OSM   C15F15892   1.426   0.609   8.138 -0.2445 -0.2313 -0.6875
  144OSM   H15F15893   1.323   0.570   8.148  0.0855 -0.5999  2.0282
  144OSM   H15G15894   1.426   0.719   8.125 -1.1928 -0.2699 -1.0669
  144OSM   C16F15895   1.484   0.563   8.273  0.6528  0.1115 -0.4716
  144OSM   H16F15896   1.443   0.631   8.352  1.6884  0.8690 -0.5573
  144OSM   H16G15897   1.593   0.586   8.265  0.2504  1.9880 -1.0750
  144OSM   C17F15898   1.454   0.419   8.306  1.2623  0.4343 -0.4761
  144OSM   H17F15899   1.433   0.364   8.212  1.7902  0.4100 -0.5807
  144OSM   H17G15900   1.359   0.409   8.362  1.6591 -0.8946 -0.0052
  144OSM   C18F15901   1.555   0.352   8.400  0.5148 -0.2576 -0.1885
  144OSM   H18F15902   1.654   0.395   8.376  0.2567  1.3384  1.3758
  144OSM   H18G15903   1.562   0.242   8.395  1.8477 -0.1130 -3.0592
  144OSM   H18H15904   1.528   0.386   8.503  0.5190 -0.7792 -0.0122
  145SAPE     N15905   0.549   2.093  11.047 -0.4817 -0.1389 -0.1920
  145SAPE   HN115906   0.597   2.142  11.126  0.3853 -1.3132  0.0430
  145SAPE   HN215907   0.457   2.066  11.085 -0.4354  0.5373  0.4407
  145SAPE   HN315908   0.606   2.008  11.028  1.3445  0.5520  1.7764
  145SAPE   C1215909   0.530   2.191  10.929 -0.5614  0.3836 -0.5477
  145SAPE  H12A15910   0.462   2.147  10.853  1.6486  0.6320 -2.7822
  145SAPE  H12B15911   0.633   2.210  10.892 -0.3846 -1.0662 -0.8205
  145SAPE   C1115912   0.461   2.323  10.977 -0.2203  0.3007  0.1872
  145SAPE  H11A15913   0.437   2.395  10.895 -2.6868 -1.1498 -0.4670
  145SAPE  H11B15914   0.541   2.376  11.032 -0.5557 -0.0682  1.0405
  145SAPE     P15915   0.225   2.226  11.051  0.0658  0.2579  0.3636
  145SAPE   O1315916   0.253   2.093  11.104  0.7603  0.0615  0.6298
  145SAPE   O1415917   0.105   2.300  11.103 -0.7185  0.2648 -0.0968
  145SAPE   O1215918   0.354   2.313  11.065  0.3710  0.0076 -0.1764
  145SAPE   O1115919   0.214   2.215  10.895 -0.0629  0.3774  0.0762
  145SAPE    C115920   0.166   2.341  10.838 -0.1006  0.4175 -0.3039
  145SAPE    HA15921   0.055   2.351  10.841 -0.1147  0.0491  0.8633
  145SAPE    HB15922   0.197   2.429  10.898 -1.6689  0.6470  0.2131
  145SAPE    C215923   0.199   2.341  10.688 -0.1387 -0.0795 -0.1025
  145SAPE    HS15924   0.130   2.270  10.638 -2.3141 -0.5836  3.2845
  145SAPE   O2115925   0.340   2.297  10.678  0.7585 -0.1761 -0.3907
  145SAPE   C2115926   0.365   2.234  10.561 -0.2381  0.3103  0.0042
  145SAPE   O2215927   0.283   2.211  10.473  1.5159 -0.3627 -0.0404
  145SAPE   C2215928   0.524   2.217  10.541  0.2962 -0.0065  0.1791
  145SAPE   H2R15929   0.572   2.308  10.582 -0.2886  0.4545 -0.1452
  145SAPE   H2S15930   0.551   2.121  10.590  2.1091 -0.7081 -2.0055
  145SAPE    C315931   0.172   2.483  10.622 -0.6695 -0.1212  0.5274
  145SAPE    HX15932   0.250   2.548  10.666 -0.3344 -1.4965  2.0618
  145SAPE    HY15933   0.072   2.520  10.652  0.2686  2.8512  0.2791
  145SAPE   O3115934   0.192   2.480  10.477  0.2669 -0.2925 -0.3178
  145SAPE   C3115935   0.097   2.428  10.408  0.0159 -0.4041 -0.3159
  145SAPE   O3215936  -0.012   2.391  10.449  0.5873  0.0023  0.4625
  145SAPE   C3215937   0.148   2.412  10.266  0.6917 -0.2115 -0.2448
  145SAPE   H2X15938   0.072   2.459  10.200  0.5176 -0.1460  0.0015
  145SAPE   H2Y15939   0.145   2.301  10.257  0.7539 -0.3009  0.7526
  145SAPE   C2315940   0.566   2.207  10.395  0.8001 -0.1400 -0.3019
  145SAPE   H3R15941   0.535   2.295  10.335 -0.3383 -0.4423 -0.1716
  145SAPE   H3S15942   0.505   2.124  10.355 -2.4297  2.1338 -0.4747
  145SAPE   C2415943   0.712   2.186  10.363 -0.4974 -0.0732  0.1903
  145SAPE   H4R15944   0.724   2.149  10.259  0.0414 -0.6443  0.4532
  145SAPE   H4S15945   0.742   2.096  10.421 -1.6768 -1.1850 -0.8719
  145SAPE   C2515946   0.804   2.305  10.380 -0.2964 -0.4625 -0.2751
  145SAPE   H5R15947   0.856   2.301  10.477 -0.0506  1.2063 -0.3102
  145SAPE   C2615948   0.819   2.410  10.301  0.1499  0.0462 -0.1658
  145SAPE   H6R15949   0.892   2.490  10.319 -2.8245  2.9013  0.3452
  145SAPE   C2715950   0.740   2.439  10.180  0.7288 -0.3775  0.4420
  145SAPE   H7R15951   0.649   2.495  10.210  0.9346  0.5324 -0.5614
  145SAPE   H7S15952   0.699   2.348  10.132  0.8401 -0.8599  1.2532
  145SAPE   C2815953   0.826   2.519  10.082 -0.4121 -0.7280 -0.8692
  145SAPE   H8R15954   0.846   2.624  10.106  2.8743 -1.3191 -0.5377
  145SAPE   C2915955   0.885   2.473   9.971  0.1906  0.5904  0.4383
  145SAPE   H9R15956   0.945   2.542   9.910 -1.1380  0.5364 -0.9991
  145SAPE  C21015957   0.849   2.337   9.913  0.5978 -0.8763  0.1371
  145SAPE  H10R15958   0.748   2.335   9.866  0.8950  0.3342 -0.5945
  145SAPE  H10S15959   0.827   2.255   9.984  0.8522 -2.3807 -1.4466
  145SAPE  C21115960   0.952   2.281   9.818  0.9812 -0.0404 -0.1064
  145SAPE  H11R15961   1.045   2.251   9.868  0.7292 -0.0357  0.3667
  145SAPE  C21215962   0.954   2.271   9.685  0.9576 -0.4466  0.4048
  145SAPE  H12R15963   1.036   2.216   9.636  0.7479 -0.8214  0.4769
  145SAPE  C21315964   0.841   2.313   9.591  0.1186 -0.1375 -0.4678
  145SAPE  H13R15965   0.872   2.400   9.528  1.0556 -0.4818 -0.4978
  145SAPE  H13S15966   0.750   2.359   9.634 -0.3584  0.4117 -1.9841
  145SAPE  C21415967   0.801   2.192   9.510 -0.1187 -0.2534 -0.4629
  145SAPE  H14R15968   0.767   2.120   9.586 -0.7571  0.6821  0.1572
  145SAPE  C21515969   0.811   2.149   9.383  0.3107  0.0231  0.1119
  145SAPE  H15R15970   0.774   2.049   9.357 -2.7374  1.2835 -0.9231
  145SAPE  C21615971   0.860   2.238   9.266 -0.0514  0.2444 -0.5165
  145SAPE  H16R15972   0.938   2.311   9.297 -0.5039  1.3140 -1.8213
  145SAPE  H16S15973   0.781   2.304   9.223  1.3541  1.3300 -1.4866
  145SAPE  C21715974   0.935   2.170   9.157  0.9791  0.3690 -0.0410
  145SAPE  H17R15975   1.027   2.125   9.199  0.6267 -0.5315 -0.2028
  145SAPE  H17S15976   0.968   2.257   9.096 -0.4443  2.5818  2.1469
  145SAPE  C21815977   0.852   2.072   9.074  0.2211  0.3345  0.6955
  145SAPE  H18R15978   0.745   2.097   9.065  0.6619  2.0118 -0.4405
  145SAPE  H18S15979   0.857   1.975   9.127  0.5780  0.7977  1.5408
  145SAPE  C21915980   0.913   2.054   8.928 -0.5238  0.2070 -0.0945
  145SAPE  H19R15981   0.898   2.144   8.864  0.6296  0.9763  0.6813
  145SAPE  H19S15982   0.859   1.972   8.876 -0.3798 -0.4311  0.7514
  145SAPE  C22015983   1.069   2.024   8.929  1.0365  0.0894  0.1778
  145SAPE  H20R15984   1.101   2.012   8.823  1.5253 -1.2253  0.4567
  145SAPE  H20S15985   1.094   1.928   8.979 -1.1862 -0.3473  0.5207
  145SAPE  H20T15986   1.122   2.110   8.975 -1.5787  2.0105 -0.1554
  145SAPE   C3315987   0.284   2.460  10.235  0.4123  0.1581 -0.4286
  145SAPE   H3X15988   0.351   2.425  10.317 -0.2513 -1.3446 -0.5013
  145SAPE   H3Y15989   0.285   2.571  10.237  1.7736  0.1679 -0.8375
  145SAPE   C3415990   0.335   2.409  10.104 -0.4871  0.5374 -0.6395
  145SAPE   H4X15991   0.291   2.307  10.094  2.8324 -1.1314  0.2924
  145SAPE   H4Y15992   0.446   2.405  10.097 -0.4895  2.1164 -2.1119
  145SAPE   C3515993   0.293   2.516   9.997  0.2477  0.3426  0.1944
  145SAPE   H5X15994   0.319   2.615  10.040  1.8166 -0.7874  2.0718
  145SAPE   H5Y15995   0.184   2.507   9.980 -0.1229  2.0047  1.4316
  145SAPE   C3615996   0.376   2.509   9.874 -0.1538 -0.0460 -0.1977
  145SAPE   H6X15997   0.478   2.548   9.896 -0.2727  0.7385 -0.9539
  145SAPE   H6Y15998   0.323   2.579   9.806 -1.6790  1.0589  1.9768
  145SAPE   C3715999   0.398   2.375   9.811  0.3948 -0.8228 -0.0234
  145SAPE   H7X16000   0.293   2.339   9.799  0.0049  0.4161 -0.5343
  145SAPE   H7Y16001   0.452   2.307   9.880 -0.2636 -1.0951  0.2332
  145SAPE   C3816002   0.473   2.390   9.671 -0.1195 -0.1418 -0.1516
  145SAPE   H8X16003   0.525   2.292   9.658  0.4448  0.1198  0.0988
  145SAPE   H8Y16004   0.546   2.473   9.681 -1.4921  1.1125 -0.1876
  145SAPE   C3916005   0.375   2.410   9.560  0.2385 -0.0132  0.2958
  145SAPE   H9X16006   0.307   2.495   9.581 -0.3848  0.0121 -1.5981
  145SAPE   H9Y16007   0.319   2.314   9.558  1.7784 -0.9446 -1.2077
  145SAPE  C31016008   0.440   2.441   9.427  0.3889  0.0790  0.1863
  145SAPE  H10X16009   0.486   2.348   9.387 -0.3817  0.5216 -1.8628
  145SAPE  H10Y16010   0.514   2.521   9.448 -1.3263  1.6625  0.4507
  145SAPE  C31116011   0.337   2.485   9.326  0.3131 -0.6614  0.0063
  145SAPE  H11X16012   0.296   2.583   9.360  0.2092 -1.2319  1.6297
  145SAPE  H11Y16013   0.253   2.413   9.320 -2.1929  2.1882 -2.3122
  145SAPE  C31216014   0.372   2.496   9.179  0.1368 -0.7725  0.2521
  145SAPE  H12X16015   0.423   2.408   9.135 -0.9805 -1.0988 -0.4339
  145SAPE  H12Y16016   0.437   2.585   9.165 -0.3015 -0.6460 -1.2220
  145SAPE  C31316017   0.243   2.527   9.094 -0.1703 -0.3222  0.2771
  145SAPE  H13X16018   0.166   2.453   9.124 -1.1890  0.8359  0.6048
  145SAPE  H13Y16019   0.279   2.520   8.989  1.3818 -1.7291  0.8652
  145SAPE  C31416020   0.191   2.664   9.116 -0.2978  0.0495 -0.0483
  145SAPE  H14X16021   0.275   2.732   9.092  2.3092 -2.0756  2.3220
  145SAPE  H14Y16022   0.171   2.679   9.225 -1.2747 -1.1271 -0.0493
  145SAPE  C31516023   0.063   2.705   9.038  0.3922 -0.2705 -0.2542
  145SAPE  H15X16024  -0.010   2.621   9.041  0.3506 -0.2125  0.5367
  145SAPE  H15Y16025   0.097   2.730   8.936 -0.9719 -0.9430 -0.9023
  145SAPE  C31616026   0.009   2.843   9.085  0.5796 -0.3012  0.7839
  145SAPE  H16X16027   0.085   2.922   9.071  0.5515 -0.4852 -0.4913
  145SAPE  H16Y16028  -0.002   2.825   9.194 -3.0703 -1.2785  0.3964
  145SAPE  C31716029  -0.132   2.883   9.025 -0.3107 -0.2309  0.3949
  145SAPE  H17X16030  -0.163   2.782   8.991 -0.6953  0.4081 -1.3020
  145SAPE  H17Y16031  -0.123   2.947   8.934  0.9231  0.2857  0.8604
  145SAPE  C31816032  -0.229   2.937   9.129  0.0024 -0.2361  0.0113
  145SAPE  H18X16033  -0.191   3.015   9.198  0.9900  0.0559 -0.8308
  145SAPE  H18Y16034  -0.270   2.856   9.193 -2.2595 -0.8356 -2.0730
  145SAPE  H18Z16035  -0.319   2.979   9.080  0.2066  1.1493  0.7678
  146SAPE     N16036   1.833   4.963  10.823 -0.5212 -0.1079 -0.1651
  146SAPE   HN116037   1.903   5.021  10.773 -0.9802 -0.5362 -1.3420
  146SAPE   HN216038   1.733   4.989  10.810 -1.3028 -2.8195 -0.2580
  146SAPE   HN316039   1.855   4.961  10.924 -0.6073  0.0089 -0.1441
  146SAPE   C1216040   1.848   4.823  10.783  0.4167 -0.0254 -0.4712
  146SAPE  H12A16041   1.775   4.777  10.854 -0.1027  0.9926 -0.3348
  146SAPE  H12B16042   1.952   4.787  10.799  0.2740 -0.5400 -0.6887
  146SAPE   C1116043   1.808   4.796  10.636  0.4453  0.2108 -0.8055
  146SAPE  H11A16044   1.831   4.689  10.615  1.0148  0.0214  0.6703
  146SAPE  H11B16045   1.875   4.849  10.565  0.4838 -1.0610 -1.7678
  146SAPE     P16046   1.571   4.708  10.581 -0.1198 -0.0520  0.3822
  146SAPE   O1316047   1.531   4.649  10.708 -0.2941  0.3196  0.4072
  146SAPE   O1416048   1.465   4.767  10.489 -0.4093 -0.4829  0.1514
  146SAPE   O1216049   1.670   4.827  10.604 -0.0318 -0.2391 -0.0022
  146SAPE   O1116050   1.637   4.586  10.514  0.1963  0.1955  0.1574
  146SAPE    C116051   1.627   4.558  10.375 -0.9751 -0.1257 -0.6841
  146SAPE    HA16052   1.618   4.448  10.375  2.1119 -0.4882  1.3589
  146SAPE    HB16053   1.534   4.598  10.329 -0.0104  0.6604 -2.0405
  146SAPE    C216054   1.743   4.600  10.290  0.3296 -0.0577 -0.2286
  146SAPE    HS16055   1.775   4.702  10.320  0.7584 -0.0931 -0.5503
  146SAPE   O2116056   1.705   4.579  10.154  0.0009 -0.0117 -0.0318
  146SAPE   C2116057   1.775   4.661  10.074  0.1763  0.1324 -0.1440
  146SAPE   O2216058   1.859   4.744  10.112  0.0418 -0.3438  0.3421
  146SAPE   C2216059   1.728   4.634   9.923 -0.0443 -0.6158 -0.0065
  146SAPE   H2R16060   1.717   4.525   9.912  1.7336 -1.0715  2.0318
  146SAPE   H2S16061   1.628   4.680   9.907  0.6646  0.6655 -1.0313
  146SAPE    C316062   1.857   4.503  10.326 -0.0701  0.2113  1.0687
  146SAPE    HX16063   1.814   4.402  10.306 -1.0279  0.6678  0.7626
  146SAPE    HY16064   1.865   4.502  10.437 -0.5468  0.5638  1.1111
  146SAPE   O3116065   1.978   4.521  10.251 -0.1066 -0.2979  0.2683
  146SAPE   C3116066   2.066   4.606  10.288  0.4590 -0.3691  0.0248
  146SAPE   O3216067   2.063   4.677  10.390 -0.2126  0.3140 -0.0413
  146SAPE   C3216068   2.183   4.621  10.186  0.1581  0.3436 -0.0060
  146SAPE   H2X16069   2.231   4.707  10.238 -2.0678  1.0520  1.0012
  146SAPE   H2Y16070   2.147   4.655  10.086  1.4856  0.4115 -0.4842
  146SAPE   C2316071   1.834   4.680   9.817  0.0121  0.0191  0.2518
  146SAPE   H3R16072   1.896   4.591   9.796 -0.9277 -0.8453  1.0452
  146SAPE   H3S16073   1.886   4.765   9.868 -1.8354  2.4819 -1.6856
  146SAPE   C2416074   1.769   4.744   9.688 -0.1621  0.1820 -0.1135
  146SAPE   H4R16075   1.859   4.772   9.630  0.4287 -2.1320 -0.4325
  146SAPE   H4S16076   1.712   4.833   9.720 -2.7500 -1.9504  1.6711
  146SAPE   C2516077   1.686   4.646   9.601  0.5661 -0.2201 -0.5674
  146SAPE   H5R16078   1.714   4.540   9.602  0.2571 -0.2988 -0.1016
  146SAPE   C2616079   1.591   4.686   9.511 -0.0810  0.0941  0.5078
  146SAPE   H6R16080   1.548   4.603   9.453 -1.2231  0.5882  0.6372
  146SAPE   C2716081   1.564   4.831   9.479  0.6865  0.0002 -0.1806
  146SAPE   H7R16082   1.544   4.887   9.573  2.2388  0.5244 -0.1334
  146SAPE   H7S16083   1.472   4.836   9.417 -1.1192 -1.4558  2.1932
  146SAPE   C2816084   1.676   4.910   9.412  0.7113  0.1803  0.1742
  146SAPE   H8R16085   1.724   4.986   9.476  2.4626 -0.7888  0.0760
  146SAPE   C2916086   1.720   4.888   9.283 -0.1117  1.1585 -0.0251
  146SAPE   H9R16087   1.800   4.957   9.252  0.6505  1.3674  2.2238
  146SAPE  C21016088   1.654   4.784   9.187  0.2369 -0.3809 -0.4723
  146SAPE  H10R16089   1.654   4.836   9.088  1.6915 -0.2875 -0.4514
  146SAPE  H10S16090   1.549   4.754   9.206  0.0800  0.6897  0.4815
  146SAPE  C21116091   1.753   4.664   9.165  0.2039 -0.0747 -0.2988
  146SAPE  H11R16092   1.773   4.616   9.262  2.0581  0.7412 -0.2292
  146SAPE  C21216093   1.778   4.599   9.050  0.2657  0.4410 -0.2861
  146SAPE  H12R16094   1.841   4.509   9.058  0.9709  0.9509  0.0008
  146SAPE  C21316095   1.727   4.633   8.910 -0.0562 -0.3744  0.2711
  146SAPE  H13R16096   1.631   4.686   8.928  0.0290 -0.9126  2.6106
  146SAPE  H13S16097   1.713   4.534   8.860  3.2917 -0.7845 -0.0355
  146SAPE  C21416098   1.822   4.710   8.821 -0.3560 -0.4500  0.1520
  146SAPE  H14R16099   1.896   4.762   8.883 -1.6698 -1.4569  2.7292
  146SAPE  C21516100   1.837   4.724   8.687 -0.0104 -0.1393  0.5983
  146SAPE  H15R16101   1.922   4.781   8.647 -0.3193  0.8614  1.3152
  146SAPE  C21616102   1.750   4.671   8.576 -0.0749 -0.3727  0.1858
  146SAPE  H16R16103   1.735   4.755   8.505 -1.5192 -0.8118 -0.0747
  146SAPE  H16S16104   1.643   4.658   8.606 -0.0045  0.1551  0.6719
  146SAPE  C21716105   1.802   4.542   8.503 -0.4016 -0.0346  0.7063
  146SAPE  H17R16106   1.845   4.462   8.566  1.5874  0.2889 -0.1837
  146SAPE  H17S16107   1.888   4.575   8.440  0.4079 -4.1127 -0.6395
  146SAPE  C21816108   1.708   4.470   8.405 -0.5354 -0.4476 -0.7618
  146SAPE  H18R16109   1.669   4.547   8.334 -0.9883  0.2844  0.2678
  146SAPE  H18S16110   1.621   4.435   8.463 -0.2848  0.6729  0.3229
  146SAPE  C21916111   1.776   4.361   8.335 -0.3656 -0.5058 -0.3070
  146SAPE  H19R16112   1.882   4.383   8.311 -0.8756 -0.3785 -2.6420
  146SAPE  H19S16113   1.737   4.337   8.234 -1.8446  1.6484 -0.3004
  146SAPE  C22016114   1.770   4.226   8.414 -0.1605  0.6337 -0.2495
  146SAPE  H20R16115   1.664   4.196   8.398 -0.1610  1.4393 -2.0012
  146SAPE  H20S16116   1.795   4.236   8.522  3.6504  2.2606 -1.1300
  146SAPE  H20T16117   1.850   4.153   8.389 -1.0357 -1.2008  1.8840
  146SAPE   C3316118   2.273   4.496  10.179  0.0682  0.3528 -0.1868
  146SAPE   H3X16119   2.209   4.406  10.178 -2.7267  2.2177 -1.4993
  146SAPE   H3Y16120   2.325   4.491  10.277 -1.0902  1.0321  0.4901
  146SAPE   C3416121   2.358   4.505  10.052 -0.1008 -0.2144 -0.4450
  146SAPE   H4X16122   2.434   4.425  10.062  0.8267  0.5814 -0.9579
  146SAPE   H4Y16123   2.414   4.601  10.059  2.1041 -1.4909  0.4004
  146SAPE   C3516124   2.288   4.489   9.924 -0.1043 -0.2207  0.4032
  146SAPE   H5X16125   2.357   4.503   9.839 -0.1811  2.3311  0.6614
  146SAPE   H5Y16126   2.207   4.564   9.907  0.7041  0.7822  0.8676
  146SAPE   C3616127   2.228   4.344   9.906 -0.0650 -0.2759 -0.3978
  146SAPE   H6X16128   2.133   4.330   9.962 -0.7712  1.9105 -0.9311
  146SAPE   H6Y16129   2.300   4.269   9.945 -1.2412 -1.5786 -0.6396
  146SAPE   C3716130   2.196   4.303   9.760  0.6556  0.1994  1.2365
  146SAPE   H7X16131   2.291   4.301   9.703 -1.0319 -0.5444 -1.7380
  146SAPE   H7Y16132   2.135   4.376   9.703 -0.3192 -1.5073  0.0075
  146SAPE   C3816133   2.135   4.156   9.758 -0.1378  0.6615  0.3191
  146SAPE   H8X16134   2.031   4.159   9.796  0.4837 -1.9748  2.5622
  146SAPE   H8Y16135   2.188   4.084   9.824  1.0470  1.4176  0.2156
  146SAPE   C3916136   2.137   4.097   9.612  0.0656  0.4413 -0.2130
  146SAPE   H9X16137   2.240   4.062   9.590 -0.1595  0.1690 -0.8538
  146SAPE   H9Y16138   2.106   4.172   9.536 -1.5138  0.9999  0.9215
  146SAPE  C31016139   2.039   3.978   9.615 -0.2462 -0.3060 -0.1821
  146SAPE  H10X16140   1.939   4.019   9.642 -0.8439 -0.0831 -2.5007
  146SAPE  H10Y16141   2.067   3.916   9.702  0.6558  0.9835  0.4900
  146SAPE  C31116142   2.031   3.902   9.488  0.4586  0.3509  0.5055
  146SAPE  H11X16143   2.034   3.966   9.397  1.3227  0.4384  0.5870
  146SAPE  H11Y16144   1.936   3.845   9.487 -0.0464  1.0663 -2.6159
  146SAPE  C31216145   2.146   3.806   9.462  0.6406  0.2717  0.3340
  146SAPE  H12X16146   2.246   3.853   9.454  2.1779 -2.9437 -0.8637
  146SAPE  H12Y16147   2.126   3.761   9.363  2.0603 -0.4157  0.3378
  146SAPE  C31316148   2.173   3.693   9.566 -0.1721 -0.3473 -0.8387
  146SAPE  H13X16149   2.089   3.621   9.558  0.4066 -1.1632  0.2032
  146SAPE  H13Y16150   2.187   3.720   9.673 -1.4621  0.5486 -0.8638
  146SAPE  C31416151   2.301   3.613   9.535  0.0013  0.2651 -0.7560
  146SAPE  H14X16152   2.394   3.672   9.524 -1.7404  3.2286 -0.7091
  146SAPE  H14Y16153   2.286   3.581   9.430 -1.3488 -1.1227 -0.1770
  146SAPE  C31516154   2.340   3.502   9.635  0.4321  0.4116 -0.0428
  146SAPE  H15X16155   2.369   3.414   9.574 -0.2855 -0.4512  0.8351
  146SAPE  H15Y16156   2.252   3.474   9.697  0.8852 -1.1020 -0.0618
  146SAPE  C31616157   2.460   3.542   9.719 -0.3892 -0.6334  0.2715
  146SAPE  H16X16158   2.431   3.622   9.790 -2.0165 -1.3018  0.4055
  146SAPE  H16Y16159   2.539   3.590   9.657  0.7421 -0.1838  1.9970
  146SAPE  C31716160   2.511   3.424   9.800 -0.6418 -0.2064  0.8234
  146SAPE  H17X16161   2.612   3.424   9.846  1.0552 -3.3187 -2.3558
  146SAPE  H17Y16162   2.530   3.341   9.728  0.1196 -0.1375  0.9378
  146SAPE  C31816163   2.408   3.368   9.893  0.1220  0.2888  0.2836
  146SAPE  H18X16164   2.443   3.284   9.958 -2.3191 -0.5301  0.6641
  146SAPE  H18Y16165   2.325   3.320   9.836 -0.6599  0.7335  1.0163
  146SAPE  H18Z16166   2.367   3.441   9.966 -0.1218  0.5897 -0.1537
  147SAPE     N16167   5.835   6.328  10.655 -0.2916 -0.2803  0.1497
  147SAPE   HN116168   5.923   6.383  10.652 -0.0027 -0.7274  0.3198
  147SAPE   HN216169   5.751   6.389  10.662  0.3563  0.8039 -1.0105
  147SAPE   HN316170   5.829   6.255  10.728 -1.8759  0.3488  0.6867
  147SAPE   C1216171   5.809   6.248  10.526  0.0343  0.1623 -0.9884
  147SAPE  H12A16172   5.895   6.182  10.499  2.7697  3.0885 -0.1285
  147SAPE  H12B16173   5.790   6.322  10.445 -0.1795 -1.1661 -2.1964
  147SAPE   C1116174   5.693   6.155  10.557  0.4989  0.8185  0.7029
  147SAPE  H11A16175   5.692   6.086  10.470  0.1825  1.9284 -0.2073
  147SAPE  H11B16176   5.597   6.210  10.547 -1.0121 -1.6723  0.7858
  147SAPE     P16177   5.748   5.937  10.703 -0.3489 -0.2515 -0.0141
  147SAPE   O1316178   5.809   5.886  10.577  0.2770  0.3574 -0.5461
  147SAPE   O1416179   5.842   5.932  10.817  0.1755  0.1394 -0.1966
  147SAPE   O1216180   5.708   6.090  10.685 -0.0031  0.6574  0.8866
  147SAPE   O1116181   5.613   5.868  10.729 -0.2684 -0.2562 -0.0604
  147SAPE    C116182   5.494   5.886  10.665  2.0936 -0.4989  0.2698
  147SAPE    HA16183   5.416   5.836  10.726  1.7627 -2.9484 -1.9768
  147SAPE    HB16184   5.462   5.992  10.656 -0.4439 -1.3299 -1.8241
  147SAPE    C216185   5.472   5.820  10.525  0.0976  0.0494  0.1863
  147SAPE    HS16186   5.511   5.717  10.537  1.7245  0.1902 -2.7321
  147SAPE   O2116187   5.553   5.900  10.434  0.1503 -0.1367  0.6534
  147SAPE   C2116188   5.600   5.839  10.330 -0.7550  0.2938 -0.2496
  147SAPE   O2216189   5.587   5.720  10.308 -0.1100  0.0585 -0.5740
  147SAPE   C2216190   5.674   5.938  10.237 -0.6134 -0.3940  0.3623
  147SAPE   H2R16191   5.611   6.030  10.230 -2.7430 -1.8801 -1.7890
  147SAPE   H2S16192   5.763   5.957  10.300  0.7734  1.4463 -1.9459
  147SAPE    C316193   5.328   5.816  10.472 -0.0796  0.0115  0.1710
  147SAPE    HX16194   5.293   5.920  10.485 -1.4863 -0.4773  0.4947
  147SAPE    HY16195   5.256   5.756  10.532  0.4865  0.2078  1.0585
  147SAPE   O3116196   5.316   5.769  10.332 -0.1595 -0.2896 -0.0805
  147SAPE   C3116197   5.301   5.640  10.304 -0.4322  0.3530 -0.2336
  147SAPE   O3216198   5.284   5.549  10.378 -0.1193  0.2293 -0.1020
  147SAPE   C3216199   5.292   5.622  10.151 -0.9060  0.1410  0.8282
  147SAPE   H2X16200   5.385   5.670  10.111  1.7446 -3.0053  2.7280
  147SAPE   H2Y16201   5.198   5.674  10.123 -2.5332 -2.4783  1.1072
  147SAPE   C2316202   5.724   5.880  10.099  0.3283 -0.4730 -0.1933
  147SAPE   H3R16203   5.649   5.828  10.035 -0.4490  2.3855 -1.8080
  147SAPE   H3S16204   5.803   5.807  10.125  0.1373 -0.3021  0.9292
  147SAPE   C2416205   5.769   5.999  10.004 -0.4174  0.2352  0.6629
  147SAPE   H4R16206   5.822   6.077  10.062  1.5206  0.8132 -1.7389
  147SAPE   H4S16207   5.666   6.032   9.978 -0.6610 -0.9615  0.0518
  147SAPE   C2516208   5.865   5.948   9.895  0.6282 -0.2445 -0.6087
  147SAPE   H5R16209   5.947   5.885   9.931  1.5646  2.1454  1.7543
  147SAPE   C2616210   5.851   5.966   9.766 -0.1894 -0.0637  0.7096
  147SAPE   H6R16211   5.923   5.921   9.696  0.4986 -0.9606  1.9553
  147SAPE   C2716212   5.736   6.045   9.710 -0.2122  0.5043  0.3885
  147SAPE   H7R16213   5.684   6.116   9.778  0.3233  2.2079 -0.9077
  147SAPE   H7S16214   5.662   5.971   9.673  0.6227 -0.3939  0.4860
  147SAPE   C2816215   5.778   6.117   9.586  0.3918 -0.9746  0.7926
  147SAPE   H8R16216   5.816   6.218   9.609 -2.2328 -0.1342  1.8268
  147SAPE   C2916217   5.806   6.073   9.461  0.3945  0.3752 -0.4390
  147SAPE   H9R16218   5.831   6.150   9.387  0.6371  0.3475 -0.3872
  147SAPE  C21016219   5.788   5.933   9.422 -0.2896  0.2381  0.0507
  147SAPE  H10R16220   5.699   5.921   9.358 -0.5751  1.7357  0.1238
  147SAPE  H10S16221   5.781   5.869   9.512 -0.1075  0.7407  0.4279
  147SAPE  C21116222   5.894   5.872   9.338 -0.4442  1.0518 -0.1177
  147SAPE  H11R16223   5.991   5.861   9.388 -0.8040 -0.0425  0.3646
  147SAPE  C21216224   5.877   5.814   9.216  0.4114 -0.4854  0.6494
  147SAPE  H12R16225   5.959   5.755   9.174  0.2061 -0.8453  0.7534
  147SAPE  C21316226   5.752   5.804   9.136 -0.2596  0.8446  0.3443
  147SAPE  H13R16227   5.793   5.797   9.033  2.1437  1.0534  1.2273
  147SAPE  H13S16228   5.692   5.897   9.146  1.7362  2.5550 -2.2424
  147SAPE  C21416229   5.664   5.676   9.151 -0.2464  0.3459  0.1744
  147SAPE  H14R16230   5.694   5.609   9.232  1.4628  0.3368 -0.4315
  147SAPE  C21516231   5.546   5.651   9.093  0.7765  0.0781 -0.4140
  147SAPE  H15R16232   5.500   5.552   9.108 -0.4246  0.7574  0.5850
  147SAPE  C21616233   5.474   5.738   8.994  0.4147 -0.5491 -0.1699
  147SAPE  H16R16234   5.462   5.674   8.905  0.6812 -0.9561  0.0813
  147SAPE  H16S16235   5.543   5.819   8.961 -1.4671  1.4447  0.5390
  147SAPE  C21716236   5.344   5.809   9.048 -0.0035 -0.0332  0.2415
  147SAPE  H17R16237   5.273   5.742   9.101  0.4932  0.0844  1.0788
  147SAPE  H17S16238   5.283   5.846   8.963 -1.7770  0.4644  1.6646
  147SAPE  C21816239   5.381   5.934   9.128  0.2017 -0.0366 -0.0449
  147SAPE  H18R16240   5.298   6.008   9.119  1.2512  1.3098  0.8470
  147SAPE  H18S16241   5.467   5.993   9.090  1.4587 -0.8156  1.4687
  147SAPE  C21916242   5.400   5.910   9.278 -0.1023  0.0755 -0.1194
  147SAPE  H19R16243   5.469   5.823   9.283  0.0436  0.0145 -2.2249
  147SAPE  H19S16244   5.308   5.875   9.330 -0.8953  1.8727 -0.2228
  147SAPE  C22016245   5.464   6.030   9.349  0.3548  0.6349 -0.7449
  147SAPE  H20R16246   5.384   6.105   9.370 -0.6488  0.4049 -3.3636
  147SAPE  H20S16247   5.530   6.088   9.280 -1.2270 -0.7772 -3.6504
  147SAPE  H20T16248   5.520   6.007   9.442  1.5975  1.3086 -1.3041
  147SAPE   C3316249   5.301   5.476  10.097 -0.2480 -0.2165  0.1071
  147SAPE   H3X16250   5.218   5.414  10.138  1.0457 -2.5622 -0.5783
  147SAPE   H3Y16251   5.388   5.415  10.131  1.5207  1.3183 -1.4431
  147SAPE   C3416252   5.311   5.480   9.945 -0.0527 -0.1098  0.2249
  147SAPE   H4X16253   5.417   5.512   9.935  0.1832 -1.2365 -1.2475
  147SAPE   H4Y16254   5.237   5.554   9.907 -3.1314 -1.6956  2.6775
  147SAPE   C3516255   5.300   5.341   9.882  0.1594  0.8303 -0.7503
  147SAPE   H5X16256   5.289   5.353   9.772  0.2718  2.6497 -0.5939
  147SAPE   H5Y16257   5.216   5.281   9.924 -0.1131  0.3654 -1.9042
  147SAPE   C3616258   5.424   5.259   9.887  0.5899  0.0072 -0.4774
  147SAPE   H6X16259   5.460   5.266   9.992  1.1357  3.9602 -0.7515
  147SAPE   H6Y16260   5.508   5.289   9.821  0.2688 -0.5997 -1.1760
  147SAPE   C3716261   5.396   5.113   9.848 -0.4769 -0.1537 -0.4332
  147SAPE   H7X16262   5.306   5.092   9.910 -0.5575 -1.1777 -0.8682
  147SAPE   H7Y16263   5.480   5.046   9.876 -0.6330  0.0764  0.6318
  147SAPE   C3816264   5.365   5.103   9.705 -0.2680  0.4708  0.4198
  147SAPE   H8X16265   5.445   5.132   9.634 -0.4348 -0.0520  0.0063
  147SAPE   H8Y16266   5.280   5.169   9.676 -0.8531 -0.5279 -0.1815
  147SAPE   C3916267   5.348   4.951   9.674  0.1581  1.0220 -0.0004
  147SAPE   H9X16268   5.280   4.903   9.747 -0.6928  2.3898  0.1406
  147SAPE   H9Y16269   5.449   4.905   9.666 -0.8014 -0.8922 -1.9969
  147SAPE  C31016270   5.299   4.926   9.534 -0.1143 -0.0419 -0.0745
  147SAPE  H10X16271   5.375   4.962   9.461  0.5121  1.0949  1.1009
  147SAPE  H10Y16272   5.206   4.985   9.518 -0.2992  0.6982  3.1071
  147SAPE  C31116273   5.277   4.776   9.505  0.5214  0.2264  0.4380
  147SAPE  H11X16274   5.204   4.739   9.580  1.6862 -1.0425  0.9949
  147SAPE  H11Y16275   5.368   4.714   9.522  0.8753  0.1351 -1.5804
  147SAPE  C31216276   5.232   4.757   9.360  0.7815  0.4490  0.1990
  147SAPE  H12X16277   5.310   4.798   9.291  0.1659 -2.3212 -2.3498
  147SAPE  H12Y16278   5.133   4.805   9.349  0.3981 -0.2884  0.3596
  147SAPE  C31316279   5.208   4.607   9.332  0.3042  0.3519  0.4548
  147SAPE  H13X16280   5.120   4.580   9.393 -1.0333  0.5653 -1.2901
  147SAPE  H13Y16281   5.301   4.556   9.365 -0.7566 -1.2009  1.1197
  147SAPE  C31416282   5.176   4.569   9.192 -0.7679  1.8216  0.0943
  147SAPE  H14X16283   5.252   4.593   9.116  0.6986 -1.1258  0.4783
  147SAPE  H14Y16284   5.087   4.629   9.162 -0.8801  2.1384  1.0097
  147SAPE  C31516285   5.151   4.416   9.192  0.0566 -0.3247 -0.0971
  147SAPE  H15X16286   5.050   4.386   9.228 -0.4360  0.0525 -1.1418
  147SAPE  H15Y16287   5.232   4.373   9.256  0.7202 -0.0112 -0.7166
  147SAPE  C31616288   5.164   4.352   9.052  0.0796  0.1092  0.3012
  147SAPE  H16X16289   5.203   4.248   9.052  1.8095  0.6841 -1.5957
  147SAPE  H16Y16290   5.243   4.410   9.000 -0.8272  1.5639  0.4708
  147SAPE  C31716291   5.037   4.367   8.971 -0.5169  0.0034  0.9100
  147SAPE  H17X16292   5.009   4.469   8.939 -2.7416 -1.4009 -2.1511
  147SAPE  H17Y16293   4.948   4.328   9.025 -0.3529 -1.0535  0.4426
  147SAPE  C31816294   5.045   4.287   8.837 -0.2560  0.8718  0.6927
  147SAPE  H18X16295   5.138   4.225   8.835  1.0093  2.6318  1.8649
  147SAPE  H18Y16296   5.054   4.347   8.743 -1.2538 -1.6056 -1.0907
  147SAPE  H18Z16297   4.963   4.213   8.827 -0.8451  1.6340 -0.3630
  148SAPE     N16298   2.800   2.380  10.875 -0.0691 -0.2673 -0.1161
  148SAPE   HN116299   2.860   2.357  10.793 -1.0515  1.5501 -1.4140
  148SAPE   HN216300   2.856   2.361  10.961 -0.9620 -3.1205 -0.0819
  148SAPE   HN316301   2.717   2.320  10.888 -0.6380  0.6401  0.5437
  148SAPE   C1216302   2.765   2.526  10.864  0.4259  0.2059 -0.6432
  148SAPE  H12A16303   2.850   2.581  10.909  0.8340  0.0661 -1.2450
  148SAPE  H12B16304   2.672   2.548  10.921  1.3649  0.4123  0.8639
  148SAPE   C1116305   2.737   2.566  10.713  0.3697  0.7058  0.0291
  148SAPE  H11A16306   2.715   2.675  10.720 -0.0899  0.7784 -1.9811
  148SAPE  H11B16307   2.643   2.518  10.680  1.4037 -1.2770 -0.1849
  148SAPE     P16308   2.973   2.631  10.623  0.0020 -0.2645 -0.1612
  148SAPE   O1316309   2.994   2.685  10.761  0.0599  0.3008  0.3526
  148SAPE   O1416310   3.095   2.563  10.568  0.5297  0.5840  0.1405
  148SAPE   O1216311   2.841   2.541  10.619  0.2214 -0.7907  0.1286
  148SAPE   O1116312   2.932   2.759  10.536 -0.5468 -0.2446  0.4590
  148SAPE    C116313   2.863   2.733  10.416 -0.3430  0.5013 -0.6652
  148SAPE    HA16314   2.861   2.625  10.388  0.2563  0.3134 -0.0192
  148SAPE    HB16315   2.760   2.773  10.427  0.0344  1.5111 -0.6844
  148SAPE    C216316   2.928   2.797  10.286  0.0840  1.1067 -0.3378
  148SAPE    HS16317   2.876   2.762  10.194  0.5948 -3.3678  0.8381
  148SAPE   O2116318   3.063   2.751  10.275 -0.0227  0.6091 -0.2128
  148SAPE   C2116319   3.080   2.629  10.225 -0.5796  0.0922 -0.1298
  148SAPE   O2216320   2.994   2.558  10.182  0.5294  0.5090 -0.4327
  148SAPE   C2216321   3.223   2.585  10.227  0.4198 -1.1218 -0.3445
  148SAPE   H2R16322   3.288   2.675  10.216 -0.3039 -0.2883  1.6181
  148SAPE   H2S16323   3.239   2.540  10.327  0.1748  2.2492  1.3416
  148SAPE    C316324   2.928   2.952  10.286 -0.1036 -0.9495  0.8470
  148SAPE    HX16325   3.006   2.990  10.355 -1.4449 -1.4582  2.7380
  148SAPE    HY16326   2.828   2.977  10.326 -1.0479 -1.6151 -0.9945
  148SAPE   O3116327   2.959   2.985  10.150 -0.2180 -0.6560 -0.0422
  148SAPE   C3116328   2.877   3.060  10.077 -0.7325 -0.0832  0.6275
  148SAPE   O3216329   2.771   3.101  10.120  0.1545 -0.1982  0.1052
  148SAPE   C3216330   2.932   3.072   9.929  0.1345 -0.2892 -0.1942
  148SAPE   H2X16331   2.946   2.971   9.885  0.2600 -1.6144  2.6409
  148SAPE   H2Y16332   3.033   3.116   9.919  0.5440 -1.1769 -0.0478
  148SAPE   C2316333   3.265   2.492  10.102 -0.3067 -0.3765  0.1009
  148SAPE   H3R16334   3.200   2.403  10.112 -2.1442  0.0169 -5.3302
  148SAPE   H3S16335   3.369   2.455  10.114  1.1163  2.7691 -1.2823
  148SAPE   C2416336   3.237   2.549   9.961  0.6119  0.2582 -0.5433
  148SAPE   H4R16337   3.130   2.578   9.948  0.0269 -1.2587  0.5763
  148SAPE   H4S16338   3.250   2.461   9.894  0.1653  0.5589 -1.0358
  148SAPE   C2516339   3.337   2.647   9.919  0.0041 -0.2987 -0.0167
  148SAPE   H5R16340   3.431   2.656   9.975  0.5604 -3.7968 -0.1593
  148SAPE   C2616341   3.315   2.733   9.813 -0.2936 -0.4253 -1.0142
  148SAPE   H6R16342   3.402   2.795   9.788  2.0490 -2.4506  1.5492
  148SAPE   C2716343   3.198   2.739   9.725  0.4391  0.5083 -0.0560
  148SAPE   H7R16344   3.110   2.692   9.775  0.9164 -1.2645 -0.8163
  148SAPE   H7S16345   3.208   2.666   9.642 -3.2345 -1.3927  0.9336
  148SAPE   C2816346   3.164   2.882   9.672 -0.0121  0.2828 -0.5300
  148SAPE   H8R16347   3.093   2.938   9.735  2.1299  0.6542  1.7605
  148SAPE   C2916348   3.207   2.933   9.553  0.1601  0.1768  0.7057
  148SAPE   H9R16349   3.173   3.037   9.539 -1.1310  0.0793  2.6442
  148SAPE  C21016350   3.280   2.861   9.443  0.2538  0.1956 -0.5580
  148SAPE  H10R16351   3.362   2.802   9.489  0.2048  0.0294 -0.6821
  148SAPE  H10S16352   3.326   2.945   9.386 -2.4753  1.4401 -1.1037
  148SAPE  C21116353   3.194   2.779   9.351 -0.0642  0.8920 -0.4852
  148SAPE  H11R16354   3.209   2.671   9.367  2.5166  1.2883  0.2259
  148SAPE  C21216355   3.119   2.832   9.258 -0.3327 -0.3450  0.0218
  148SAPE  H12R16356   3.068   2.764   9.188  0.7307 -0.6669 -0.4674
  148SAPE  C21316357   3.105   2.977   9.227 -0.4023  0.0526 -0.7896
  148SAPE  H13R16358   3.181   3.036   9.282  0.5966  0.2836 -2.3342
  148SAPE  H13S16359   3.000   3.005   9.251 -0.2095 -0.1862  0.4000
  148SAPE  C21416360   3.145   3.008   9.090  0.6094  0.2527  0.4279
  148SAPE  H14R16361   3.254   3.005   9.074  0.2160 -1.1080 -2.7403
  148SAPE  C21516362   3.068   3.012   8.980  0.0847 -0.9582  0.8493
  148SAPE  H15R16363   3.110   3.029   8.880  1.5159  0.3631  1.6313
  148SAPE  C21616364   2.915   2.996   8.989 -0.1324 -0.4845 -0.0864
  148SAPE  H16R16365   2.879   3.077   9.056  0.8505  1.3159 -1.6111
  148SAPE  H16S16366   2.890   2.899   9.035 -0.2134 -1.0235 -1.2402
  148SAPE  C21716367   2.835   2.994   8.856  0.3242  0.0028 -0.1306
  148SAPE  H17R16368   2.881   3.069   8.789  1.5859  2.9257  3.5890
  148SAPE  H17S16369   2.728   3.011   8.880  0.3875 -1.0443  0.9757
  148SAPE  C21816370   2.855   2.863   8.772 -0.0786 -0.0224  0.0880
  148SAPE  H18R16371   2.826   2.777   8.836  3.4138 -1.5262 -0.1452
  148SAPE  H18S16372   2.964   2.855   8.749 -0.0508  0.8966 -0.1268
  148SAPE  C21916373   2.762   2.858   8.648 -0.4494  0.4000 -0.0454
  148SAPE  H19R16374   2.800   2.916   8.562 -1.6741  0.3504 -0.6379
  148SAPE  H19S16375   2.665   2.896   8.685 -0.7767 -1.1215  0.7302
  148SAPE  C22016376   2.742   2.713   8.606  0.3580  0.6422  0.0051
  148SAPE  H20R16377   2.694   2.707   8.506 -0.2885  3.3733  0.0720
  148SAPE  H20S16378   2.680   2.659   8.682  0.6103 -1.7496 -1.3807
  148SAPE  H20T16379   2.832   2.649   8.614 -0.4606 -0.5562  0.0208
  148SAPE   C3316380   2.828   3.152   9.834 -0.5848  0.4018  0.1067
  148SAPE   H3X16381   2.887   3.171   9.741 -1.3587  0.7531 -0.3208
  148SAPE   H3Y16382   2.802   3.250   9.879 -2.1224  0.9294 -1.8168
  148SAPE   C3416383   2.702   3.076   9.790  0.6823  0.7025 -0.8534
  148SAPE   H4X16384   2.623   3.140   9.747  0.5241  0.1441 -1.4105
  148SAPE   H4Y16385   2.653   3.034   9.881 -1.5741 -1.9836 -3.1042
  148SAPE   C3516386   2.733   2.970   9.691 -0.1809  0.8347  0.0432
  148SAPE   H5X16387   2.647   2.900   9.690  2.1362 -2.2385 -0.7657
  148SAPE   H5Y16388   2.822   2.907   9.713 -0.8910  0.7538  3.1326
  148SAPE   C3616389   2.734   3.020   9.540  0.7286  0.4504 -0.9161
  148SAPE   H6X16390   2.822   3.086   9.529  0.2839  0.6857 -3.7979
  148SAPE   H6Y16391   2.638   3.074   9.527 -0.6202 -1.3680  0.8318
  148SAPE   C3716392   2.753   2.907   9.437 -0.7518  0.2351  0.3330
  148SAPE   H7X16393   2.671   2.834   9.456 -1.3345  1.1988  1.6996
  148SAPE   H7Y16394   2.851   2.859   9.458  0.6847  2.6595 -0.4166
  148SAPE   C3816395   2.733   2.950   9.287 -0.0353  0.0039 -0.1591
  148SAPE   H8X16396   2.753   2.873   9.209 -1.9687 -0.0549 -0.6440
  148SAPE   H8Y16397   2.805   3.030   9.262 -0.6134  0.3613 -0.7069
  148SAPE   C3916398   2.586   2.998   9.257  0.2058 -0.3622 -0.5803
  148SAPE   H9X16399   2.558   3.095   9.301  0.4649 -1.0307  1.1181
  148SAPE   H9Y16400   2.520   2.920   9.302  2.1276 -0.8218  1.6200
  148SAPE  C31016401   2.567   3.009   9.103  0.3551 -0.1754 -0.2583
  148SAPE  H10X16402   2.608   2.924   9.043 -1.8367 -2.4464  1.2483
  148SAPE  H10Y16403   2.639   3.089   9.077  0.0898  0.0808 -0.2090
  148SAPE  C31116404   2.425   3.015   9.058 -0.4238  0.3598  0.4105
  148SAPE  H11X16405   2.369   3.103   9.096 -3.0703 -0.7495 -0.6886
  148SAPE  H11Y16406   2.362   2.933   9.099 -0.7612 -0.5070 -1.7144
  148SAPE  C31216407   2.413   3.006   8.903 -0.0813 -0.8731 -0.2106
  148SAPE  H12X16408   2.471   2.921   8.863  0.9157  1.1910 -3.5579
  148SAPE  H12Y16409   2.454   3.103   8.866 -2.8566  0.8201  0.8268
  148SAPE  C31316410   2.263   3.004   8.856  0.0440  0.3145  0.7522
  148SAPE  H13X16411   2.218   3.099   8.892  0.1009  0.1763  1.1897
  148SAPE  H13Y16412   2.204   2.920   8.898 -1.3857  1.4508  1.0824
  148SAPE  C31416413   2.227   2.997   8.702  0.5996  0.2504 -0.1375
  148SAPE  H14X16414   2.117   2.985   8.694  0.6475 -0.0364 -0.3924
  148SAPE  H14Y16415   2.274   2.902   8.668  0.4942 -0.6868  2.1277
  148SAPE  C31516416   2.285   3.111   8.617  0.1023  0.5910 -0.3928
  148SAPE  H15X16417   2.395   3.115   8.603  0.0100  1.8912 -0.8796
  148SAPE  H15Y16418   2.258   3.207   8.666  1.9771  0.1230  1.7323
  148SAPE  C31616419   2.234   3.120   8.472 -0.5069  0.2951  0.1046
  148SAPE  H16X16420   2.263   3.032   8.411 -0.2316  0.8569 -0.5807
  148SAPE  H16Y16421   2.274   3.215   8.430 -2.6619 -0.1243 -3.2715
  148SAPE  C31716422   2.078   3.123   8.457  0.1479  0.3125 -0.2501
  148SAPE  H17X16423   2.030   3.024   8.471  1.1832 -0.3999 -1.4318
  148SAPE  H17Y16424   2.057   3.159   8.354  1.1637  2.3577  0.2060
  148SAPE  C31816425   2.008   3.225   8.544  0.1895 -0.1337  0.5527
  148SAPE  H18X16426   2.011   3.194   8.651 -0.3787 -0.4869  0.4729
  148SAPE  H18Y16427   1.909   3.240   8.497  1.5356  2.1137 -1.8482
  148SAPE  H18Z16428   2.058   3.324   8.538  1.3863 -0.7390  0.0450
  149SAPE     N16429   0.284   3.120  11.012 -0.4345 -0.6185  0.0107
  149SAPE   HN116430   0.274   3.186  11.092 -1.6971 -1.8609  0.9351
  149SAPE   HN216431   0.217   3.139  10.935 -0.3794 -1.3272 -0.2167
  149SAPE   HN316432   0.251   3.030  11.052  1.0336 -1.8266 -1.3753
  149SAPE   C1216433   0.426   3.110  10.963  0.2778 -0.2774  0.0124
  149SAPE  H12A16434   0.481   3.079  11.054 -0.4394 -0.3654  0.4252
  149SAPE  H12B16435   0.458   3.213  10.938 -0.4965  0.6519  2.5029
  149SAPE   C1116436   0.443   3.020  10.839  0.3880  0.9364 -0.8374
  149SAPE  H11A16437   0.550   3.004  10.817 -0.4414 -3.4983 -2.5497
  149SAPE  H11B16438   0.413   3.080  10.750 -0.4361  0.9687 -0.5547
  149SAPE     P16439   0.416   2.762  10.917 -0.5661 -0.1589 -0.0486
  149SAPE   O1316440   0.468   2.789  11.056 -0.3527  0.0121 -0.8289
  149SAPE   O1416441   0.314   2.658  10.907  0.1692 -0.4693 -0.5028
  149SAPE   O1216442   0.364   2.896  10.853  0.3767 -0.1811 -0.0608
  149SAPE   O1116443   0.542   2.718  10.832  0.3873  0.4503  0.5566
  149SAPE    C116444   0.551   2.623  10.722  0.1961  0.2108  0.0631
  149SAPE    HA16445   0.645   2.564  10.727 -1.1684 -2.1021 -0.2067
  149SAPE    HB16446   0.467   2.550  10.716  0.9507 -0.7620  1.0410
  149SAPE    C216447   0.527   2.715  10.602 -0.5248 -0.3128  0.3471
  149SAPE    HS16448   0.590   2.807  10.610  0.3420 -0.7770 -0.7788
  149SAPE   O2116449   0.384   2.741  10.583 -1.0690  0.7645  0.1400
  149SAPE   C2116450   0.337   2.853  10.535  0.1015  0.0078 -0.7773
  149SAPE   O2216451   0.405   2.954  10.513 -0.3594  0.1413 -0.1393
  149SAPE   C2216452   0.182   2.841  10.516 -0.3775  0.1202 -0.6797
  149SAPE   H2R16453   0.168   2.747  10.458  1.3486 -1.6129  1.5200
  149SAPE   H2S16454   0.138   2.835  10.618  0.8975 -1.5079 -0.1857
  149SAPE    C316455   0.585   2.639  10.475  0.5276  0.3430 -0.4518
  149SAPE    HX16456   0.525   2.546  10.485 -0.1981  0.3205 -3.8262
  149SAPE    HY16457   0.694   2.617  10.477  0.6052  0.5917 -1.4550
  149SAPE   O3116458   0.543   2.709  10.349 -0.2856  0.2593  0.2422
  149SAPE   C3116459   0.617   2.806  10.311  0.0760  0.4275  0.7223
  149SAPE   O3216460   0.729   2.833  10.354  0.0519 -0.1234 -0.5089
  149SAPE   C3216461   0.537   2.901  10.216 -0.0195 -0.5908  0.0142
  149SAPE   H2X16462   0.529   3.000  10.265  0.1055  0.0016 -1.1381
  149SAPE   H2Y16463   0.433   2.867  10.200 -0.6937  0.4852  1.7741
  149SAPE   C2316464   0.113   2.955  10.444  0.1362  0.1915  0.3508
  149SAPE   H3R16465   0.170   2.991  10.355  1.2914 -2.8092 -0.2770
  149SAPE   H3S16466   0.109   3.043  10.511 -1.3424  0.7512 -0.4220
  149SAPE   C2416467  -0.026   2.918  10.388  0.4309 -0.0134 -0.0804
  149SAPE   H4R16468  -0.075   3.017  10.372  0.2320  0.4369  2.7197
  149SAPE   H4S16469  -0.092   2.864  10.459 -1.0138  1.3197 -0.3343
  149SAPE   C2516470  -0.016   2.835  10.264 -0.4016  0.2669  0.0815
  149SAPE   H5R16471  -0.019   2.726  10.279  0.3273  0.3316  0.8171
  149SAPE   C2616472  -0.042   2.876  10.143 -0.4484  0.4095  0.0286
  149SAPE   H6R16473  -0.043   2.795  10.068 -0.1494 -0.2053  0.6667
  149SAPE   C2716474  -0.070   3.015  10.094  0.1064  0.0895  0.3038
  149SAPE   H7R16475   0.014   3.052  10.032 -0.8470  1.6242 -0.1385
  149SAPE   H7S16476  -0.059   3.094  10.172 -0.6048  1.5915 -1.0496
  149SAPE   C2816477  -0.213   3.026  10.028 -0.3968  0.2171  0.3295
  149SAPE   H8R16478  -0.288   3.078  10.089 -0.3211  0.1482  0.4824
  149SAPE   C2916479  -0.256   2.975   9.910 -0.5390  1.3651  0.2218
  149SAPE   H9R16480  -0.355   3.011   9.877 -2.8327 -0.8319  3.9150
  149SAPE  C21016481  -0.173   2.904   9.812 -0.2966 -0.5045  0.3115
  149SAPE  H10R16482  -0.066   2.907   9.843  0.2090  1.3060 -1.3920
  149SAPE  H10S16483  -0.152   2.951   9.714 -0.5677 -0.3742  0.3164
  149SAPE  C21116484  -0.222   2.764   9.788 -0.4031  0.5139  0.1229
  149SAPE  H11R16485  -0.326   2.741   9.818 -0.3447 -1.1706 -0.8251
  149SAPE  C21216486  -0.161   2.655   9.733  0.1283 -0.1382 -0.6553
  149SAPE  H12R16487  -0.214   2.560   9.719  0.9902 -0.3903 -2.6510
  149SAPE  C21316488  -0.020   2.660   9.674 -0.3689  0.3457  0.8050
  149SAPE  H13R16489   0.051   2.701   9.749 -1.3734  2.1203  0.8536
  149SAPE  H13S16490  -0.016   2.718   9.579 -0.7576 -1.5858 -0.4534
  149SAPE  C21416491   0.012   2.516   9.640  0.1614  0.1793 -0.0502
  149SAPE  H14R16492   0.040   2.454   9.727 -0.8040 -0.7581 -0.3901
  149SAPE  C21516493  -0.004   2.448   9.522 -0.1556 -0.0273 -0.0889
  149SAPE  H15R16494   0.045   2.349   9.523 -0.0111  0.0479  0.2041
  149SAPE  C21616495  -0.063   2.506   9.398  0.1350  0.6280 -0.5279
  149SAPE  H16R16496  -0.014   2.461   9.309 -0.0492  1.6213 -1.1499
  149SAPE  H16S16497  -0.057   2.616   9.388 -0.6534  0.9097  1.6920
  149SAPE  C21716498  -0.220   2.471   9.383  0.0942 -0.3287  0.0827
  149SAPE  H17R16499  -0.265   2.536   9.461 -0.6294 -0.1776 -0.4595
  149SAPE  H17S16500  -0.248   2.364   9.396 -0.7133 -0.5420 -2.7074
  149SAPE  C21816501  -0.277   2.509   9.247 -0.1533  0.0533 -0.6584
  149SAPE  H18R16502  -0.246   2.604   9.199 -0.7922 -0.8780 -3.1020
  149SAPE  H18S16503  -0.388   2.514   9.256 -0.0937  1.9087 -0.6621
  149SAPE  C21916504  -0.257   2.407   9.136  0.2217  0.7164  0.2652
  149SAPE  H19R16505  -0.299   2.310   9.171 -1.0897  0.8698 -0.7901
  149SAPE  H19S16506  -0.148   2.388   9.121  0.0818  0.6859 -0.7722
  149SAPE  C22016507  -0.315   2.457   9.004  0.2717  0.4703 -1.0639
  149SAPE  H20R16508  -0.427   2.457   9.002  0.1661  1.4111  1.1916
  149SAPE  H20S16509  -0.285   2.383   8.928 -2.6987  1.1791 -3.0978
  149SAPE  H20T16510  -0.284   2.558   8.971 -2.6995  1.2947 -1.6109
  149SAPE   C3316511   0.616   2.920  10.084  0.2493  0.1099  0.9842
  149SAPE   H3X16512   0.651   2.817  10.065  3.8658  1.0029  2.0839
  149SAPE   H3Y16513   0.719   2.959  10.094  0.1272  0.8228 -0.3569
  149SAPE   C3416514   0.537   2.997   9.978  0.1924  0.0696  0.0839
  149SAPE   H4X16515   0.590   2.986   9.881 -1.7019  0.2868 -1.0144
  149SAPE   H4Y16516   0.531   3.105  10.003 -0.6476 -0.1521  0.9002
  149SAPE   C3516517   0.393   2.954   9.953 -0.4472 -0.2743  0.1646
  149SAPE   H5X16518   0.337   2.982  10.044  1.7934 -1.4677  2.0276
  149SAPE   H5Y16519   0.385   2.844   9.940 -3.1668 -0.0149 -0.8652
  149SAPE   C3616520   0.335   3.025   9.824 -0.2841 -0.6441  0.5073
  149SAPE   H6X16521   0.375   3.128   9.815 -0.4825 -0.7480 -3.1104
  149SAPE   H6Y16522   0.226   3.019   9.846 -0.4177  1.0211  0.3899
  149SAPE   C3716523   0.369   2.963   9.684 -0.0972 -0.7620 -0.0736
  149SAPE   H7X16524   0.311   2.868   9.688 -2.5751  0.6960  0.7440
  149SAPE   H7Y16525   0.477   2.936   9.692  0.2151 -0.3136 -2.2016
  149SAPE   C3816526   0.335   3.046   9.558 -0.2144  0.1972 -0.7840
  149SAPE   H8X16527   0.380   3.147   9.571 -1.8819  0.7479  1.1554
  149SAPE   H8Y16528   0.226   3.067   9.557 -0.4892 -1.1273 -0.4059
  149SAPE   C3916529   0.381   2.981   9.426  0.2222  0.4520  0.1043
  149SAPE   H9X16530   0.322   2.888   9.412 -2.1694  2.0622 -1.3633
  149SAPE   H9Y16531   0.490   2.962   9.427  0.2379  0.5352 -0.0622
  149SAPE  C31016532   0.347   3.066   9.310  0.5066 -0.7234  0.2430
  149SAPE  H10X16533   0.367   3.176   9.316  0.6528 -0.8097  1.4778
  149SAPE  H10Y16534   0.237   3.073   9.300  0.5964  3.0536  0.2172
  149SAPE  C31116535   0.401   3.023   9.175 -0.5262  0.5417 -0.1065
  149SAPE  H11X16536   0.363   2.921   9.152  0.9456  0.2914 -1.6012
  149SAPE  H11Y16537   0.511   3.015   9.190 -0.2356  3.0530 -0.4420
  149SAPE  C31216538   0.376   3.127   9.065 -0.3793  0.1844 -0.0992
  149SAPE  H12X16539   0.386   3.231   9.103 -0.3321 -0.3334  1.3585
  149SAPE  H12Y16540   0.274   3.105   9.027  0.1904  1.1353 -2.3136
  149SAPE  C31316541   0.457   3.096   8.937  0.0612  0.2414  0.0395
  149SAPE  H13X16542   0.433   2.999   8.887 -0.9908  0.2801  0.4325
  149SAPE  H13Y16543   0.566   3.117   8.941  0.1450 -0.0842 -0.3915
  149SAPE  C31416544   0.416   3.202   8.833  0.5830 -0.2586  0.1492
  149SAPE  H14X16545   0.437   3.305   8.869 -1.0075  0.2393 -0.2756
  149SAPE  H14Y16546   0.307   3.190   8.817  0.6603 -1.6566  0.4984
  149SAPE  C31516547   0.493   3.196   8.703  0.4795 -0.7935  0.3368
  149SAPE  H15X16548   0.476   3.102   8.646 -2.9656 -0.0866  0.0273
  149SAPE  H15Y16549   0.601   3.211   8.727 -0.0729  1.9588  1.4374
  149SAPE  C31616550   0.453   3.310   8.610 -0.4138 -0.1246 -0.2808
  149SAPE  H16X16551   0.351   3.306   8.566  0.2086  0.6727 -1.9175
  149SAPE  H16Y16552   0.516   3.311   8.518  0.4730  1.1486  0.3076
  149SAPE  C31716553   0.486   3.452   8.678 -0.0462  0.5837  0.0971
  149SAPE  H17X16554   0.592   3.440   8.710  0.2761 -0.8460 -1.3331
  149SAPE  H17Y16555   0.420   3.465   8.766  1.5930  0.4826  1.3876
  149SAPE  C31816556   0.468   3.562   8.571 -0.2578  0.0738 -0.3395
  149SAPE  H18X16557   0.367   3.565   8.526  0.4700 -0.8665 -2.1593
  149SAPE  H18Y16558   0.527   3.544   8.478  0.8748  2.3770 -0.1347
  149SAPE  H18Z16559   0.479   3.666   8.607  0.3717 -0.5007  1.2098
  150SAPE     N16560   0.486   3.840  11.430 -0.0949 -0.2894 -0.1190
  150SAPE   HN116561   0.570   3.887  11.470 -0.0717 -1.2169  0.9791
  150SAPE   HN216562   0.417   3.910  11.397  0.3055 -0.0653 -0.4781
  150SAPE   HN316563   0.443   3.776  11.500 -2.1250 -1.1695 -2.0477
  150SAPE   C1216564   0.506   3.748  11.318 -0.4810 -0.5223 -0.3859
  150SAPE  H12A16565   0.603   3.696  11.335 -0.1027  0.3733  0.2583
  150SAPE  H12B16566   0.521   3.801  11.222  2.6561  0.8677  0.7482
  150SAPE   C1116567   0.390   3.642  11.308 -0.4852  0.3920 -0.2208
  150SAPE  H11A16568   0.298   3.697  11.335 -0.1065  0.6153  0.6302
  150SAPE  H11B16569   0.397   3.560  11.383 -0.9928  0.4751 -0.0799
  150SAPE     P16570   0.425   3.446  11.139  0.0086 -0.1791 -0.3241
  150SAPE   O1316571   0.538   3.416  11.223 -0.9175  0.3491  0.3382
  150SAPE   O1416572   0.324   3.339  11.156 -0.1315  0.3386 -0.2703
  150SAPE   O1216573   0.367   3.589  11.173 -0.1314 -0.1214 -0.6350
  150SAPE   O1116574   0.460   3.447  10.984  0.0223  1.0514 -0.2944
  150SAPE    C116575   0.510   3.570  10.925 -0.3503 -0.2780 -0.8525
  150SAPE    HA16576   0.431   3.648  10.917  2.9735  3.5670  0.2794
  150SAPE    HB16577   0.595   3.615  10.981  0.2171 -1.1026 -1.0287
  150SAPE    C216578   0.532   3.545  10.773 -0.2758  0.2069  0.2106
  150SAPE    HS16579   0.434   3.551  10.722 -0.7540  2.6501  1.2511
  150SAPE   O2116580   0.594   3.420  10.754 -0.1770  0.2059  0.0967
  150SAPE   C2116581   0.558   3.362  10.642 -0.4787  0.3489  0.1301
  150SAPE   O2216582   0.475   3.401  10.560  0.2500 -0.3194  0.0466
  150SAPE   C2216583   0.647   3.236  10.633  0.7876  0.3466  0.2199
  150SAPE   H2R16584   0.747   3.259  10.674  0.0828  1.0239  1.6247
  150SAPE   H2S16585   0.597   3.163  10.700 -1.0932  2.5621  1.3812
  150SAPE    C316586   0.626   3.652  10.722  0.7429  0.6154 -0.4912
  150SAPE    HX16587   0.702   3.641  10.803 -0.5584  1.8179  0.9772
  150SAPE    HY16588   0.591   3.756  10.744  2.2551  0.6018  2.5215
  150SAPE   O3116589   0.656   3.632  10.586  0.0185  0.4272  0.3512
  150SAPE   C3116590   0.563   3.693  10.504 -0.0048  0.7420 -0.1656
  150SAPE   O3216591   0.459   3.741  10.547  0.1455  0.3545  0.1045
  150SAPE   C3216592   0.612   3.675  10.358 -0.0312 -0.4111  0.2409
  150SAPE   H2X16593   0.646   3.570  10.342  0.2787 -0.4647  1.1685
  150SAPE   H2Y16594   0.700   3.743  10.351  0.7375 -1.5314 -1.8614
  150SAPE   C2316595   0.664   3.181  10.488  0.6126 -0.0582  0.3145
  150SAPE   H3R16596   0.577   3.185  10.420  0.8369 -0.7294 -0.0289
  150SAPE   H3S16597   0.678   3.071  10.496 -0.2536 -0.1641  0.3901
  150SAPE   C2416598   0.776   3.252  10.398  0.3700  0.2139 -0.4834
  150SAPE   H4R16599   0.862   3.285  10.460  1.4439  1.4062 -2.5018
  150SAPE   H4S16600   0.725   3.345  10.364 -0.3128  0.5102  1.2689
  150SAPE   C2516601   0.822   3.163  10.291  0.2290 -0.1583  0.4456
  150SAPE   H5R16602   0.850   3.064  10.331  1.9042  0.4617  0.9213
  150SAPE   C2616603   0.846   3.207  10.164 -0.8370 -0.3653  0.6322
  150SAPE   H6R16604   0.887   3.133  10.093  0.9200  1.2762 -0.1709
  150SAPE   C2716605   0.818   3.341  10.102  0.0751  0.4844  0.3904
  150SAPE   H7R16606   0.836   3.415  10.184  3.3181 -1.9708  2.1139
  150SAPE   H7S16607   0.709   3.360  10.094  0.4308  2.1013 -1.2509
  150SAPE   C2816608   0.895   3.379   9.975  0.0618  0.2424 -1.3616
  150SAPE   H8R16609   0.955   3.471   9.987  2.4880 -1.5283  1.2170
  150SAPE   C2916610   0.860   3.336   9.854  0.5396  0.0620  0.0422
  150SAPE   H9R16611   0.904   3.391   9.771 -1.8818  2.2772  0.0849
  150SAPE  C21016612   0.753   3.231   9.812  0.6361 -0.1589 -0.1532
  150SAPE  H10R16613   0.698   3.191   9.900  0.6697 -1.1978 -0.5845
  150SAPE  H10S16614   0.802   3.143   9.764  0.8499  0.3192 -0.8215
  150SAPE  C21116615   0.645   3.293   9.728  0.6774  1.1654 -0.2267
  150SAPE  H11R16616   0.571   3.347   9.790  2.6812  2.5400  1.0981
  150SAPE  C21216617   0.641   3.294   9.589 -0.7422 -0.0509 -0.3521
  150SAPE  H12R16618   0.562   3.334   9.525 -1.3735 -0.0460  0.4154
  150SAPE  C21316619   0.756   3.237   9.497 -0.7096  0.2895  0.0853
  150SAPE  H13R16620   0.811   3.153   9.544 -1.1487 -0.2218 -0.3178
  150SAPE  H13S16621   0.833   3.317   9.491 -0.6730  0.3554  1.2500
  150SAPE  C21416622   0.701   3.201   9.363  0.3895 -1.0371 -0.1912
  150SAPE  H14R16623   0.655   3.101   9.366  1.3787 -1.5300 -0.9837
  150SAPE  C21516624   0.714   3.260   9.242 -0.1463  0.5597 -0.0885
  150SAPE  H15R16625   0.642   3.240   9.161  0.1901 -0.3795 -0.1663
  150SAPE  C21616626   0.792   3.386   9.209 -0.3279 -0.2074 -0.1405
  150SAPE  H16R16627   0.826   3.440   9.300 -1.3137  1.2621 -0.6077
  150SAPE  H16S16628   0.721   3.453   9.155  0.5670 -0.0669 -1.1696
  150SAPE  C21716629   0.914   3.359   9.119  0.1590 -0.5049 -0.1964
  150SAPE  H17R16630   0.979   3.297   9.184  1.8826 -0.0663 -1.4214
  150SAPE  H17S16631   0.971   3.453   9.104 -0.0812  0.1607  2.6006
  150SAPE  C21816632   0.886   3.292   8.988 -0.1196 -0.1940 -0.9175
  150SAPE  H18R16633   0.843   3.190   9.003 -1.9695  0.7637  0.7167
  150SAPE  H18S16634   0.989   3.290   8.947 -0.2189 -1.0263 -1.1539
  150SAPE  C21916635   0.787   3.364   8.898  0.1666 -0.3051  0.0460
  150SAPE  H19R16636   0.685   3.360   8.943  0.6278  2.4751  1.5101
  150SAPE  H19S16637   0.776   3.308   8.802  0.5450 -1.6671  0.7727
  150SAPE  C22016638   0.811   3.514   8.874 -0.3795  0.6193  0.1779
  150SAPE  H20R16639   0.910   3.535   8.829  0.2771 -1.1331  0.7430
  150SAPE  H20S16640   0.806   3.574   8.967 -1.5381  2.3614 -0.9560
  150SAPE  H20T16641   0.740   3.562   8.803 -0.2842  1.0723  0.3857
  150SAPE   C3316642   0.511   3.728  10.255  0.2430 -0.0020  0.6059
  150SAPE   H3X16643   0.490   3.835  10.279 -0.3942  0.3607 -1.3358
  150SAPE   H3Y16644   0.414   3.674  10.261  0.1831  0.0125 -0.0901
  150SAPE   C3416645   0.571   3.716  10.115 -0.2461  0.3698  0.3825
  150SAPE   H4X16646   0.578   3.609  10.088  1.7686  0.5218  0.1555
  150SAPE   H4Y16647   0.670   3.766  10.108 -0.6332  1.4470  1.9234
  150SAPE   C3516648   0.480   3.778  10.015 -0.2326 -0.2900  0.5753
  150SAPE   H5X16649   0.482   3.889  10.006 -0.4010 -0.3596 -0.3942
  150SAPE   H5Y16650   0.378   3.760  10.057 -1.3131  0.9375 -1.3456
  150SAPE   C3616651   0.483   3.712   9.875  0.0842  0.3983 -0.1654
  150SAPE   H6X16652   0.391   3.730   9.815 -1.5827 -0.3725  2.0256
  150SAPE   H6Y16653   0.483   3.601   9.884  0.8068  0.5867  3.2780
  150SAPE   C3716654   0.602   3.756   9.782  0.9010  1.2983  0.2849
  150SAPE   H7X16655   0.705   3.731   9.816  1.7791  2.5278 -1.3764
  150SAPE   H7Y16656   0.602   3.867   9.779  1.0310  1.3228  0.9269
  150SAPE   C3816657   0.587   3.713   9.635  0.3768 -0.0301  0.1625
  150SAPE   H8X16658   0.501   3.771   9.597  0.0364  0.7351  2.0218
  150SAPE   H8Y16659   0.565   3.604   9.640  1.2232 -0.2350 -0.4429
  150SAPE   C3916660   0.702   3.745   9.540  0.2178 -0.8368 -0.4925
  150SAPE   H9X16661   0.705   3.657   9.473 -1.0209 -1.0318 -0.3070
  150SAPE   H9Y16662   0.794   3.741   9.603  0.1974 -0.9376 -0.4691
  150SAPE  C31016663   0.683   3.876   9.464 -0.5996  0.5623  0.3941
  150SAPE  H10X16664   0.713   3.960   9.529  1.1301  0.5127 -0.2899
  150SAPE  H10Y16665   0.576   3.882   9.435 -0.2548 -0.7233 -1.3455
  150SAPE  C31116666   0.760   3.886   9.330 -0.2711  0.0159  0.2534
  150SAPE  H11X16667   0.714   3.807   9.267 -2.4616  1.7580 -0.4606
  150SAPE  H11Y16668   0.863   3.846   9.341 -0.4258 -1.2169 -2.0941
  150SAPE  C31216669   0.759   4.025   9.257  0.0780  1.5530 -0.2483
  150SAPE  H12X16670   0.790   4.107   9.325  2.4034  0.5963 -0.0579
  150SAPE  H12Y16671   0.652   4.042   9.234 -0.3555 -2.8657 -2.5573
  150SAPE  C31316672   0.853   4.017   9.135  0.5744  0.6884  0.1047
  150SAPE  H13X16673   0.815   3.937   9.068  0.0626  0.9091  0.1312
  150SAPE  H13Y16674   0.955   3.991   9.170  0.7878 -0.6996 -1.4037
  150SAPE  C31416675   0.867   4.142   9.052 -0.2447  0.0218  0.0172
  150SAPE  H14X16676   0.904   4.229   9.111 -1.6032 -0.2661  1.3500
  150SAPE  H14Y16677   0.760   4.163   9.028 -0.4786  0.8165  1.6046
  150SAPE  C31516678   0.959   4.115   8.934  0.0819  0.5181  0.0283
  150SAPE  H15X16679   0.931   4.025   8.875  3.1680  0.4719 -1.5245
  150SAPE  H15Y16680   1.061   4.116   8.977 -0.0267  0.4025  0.3001
  150SAPE  C31616681   0.960   4.231   8.840  0.0567  0.5900 -0.8639
  150SAPE  H16X16682   0.958   4.326   8.896 -1.0043  1.2961 -2.0300
  150SAPE  H16Y16683   0.860   4.235   8.791 -1.8485  0.6181  2.6776
  150SAPE  C31716684   1.080   4.240   8.735  0.4906  0.5384  0.3848
  150SAPE  H17X16685   1.076   4.155   8.664 -0.8648  0.2885  0.7351
  150SAPE  H17Y16686   1.174   4.239   8.795  0.7299  1.1636  0.0257
  150SAPE  C31816687   1.072   4.369   8.647  0.3392  0.2625  0.4214
  150SAPE  H18X16688   1.081   4.462   8.707 -1.9159  1.5923 -1.1468
  150SAPE  H18Y16689   0.969   4.368   8.604  0.6665 -1.2807 -0.4169
  150SAPE  H18Z16690   1.146   4.369   8.564  0.0820 -0.8380  0.1702
  151SAPE     N16691   6.273   0.075  10.822 -0.0324 -0.6315  0.3268
  151SAPE   HN116692   6.320   0.065  10.915 -0.4565 -0.8498  0.5198
  151SAPE   HN216693   6.254   0.175  10.803 -1.4473 -0.9433 -0.0245
  151SAPE   HN316694   6.190   0.013  10.817 -0.0260 -0.5568 -0.9104
  151SAPE   C1216695   6.361   0.031  10.708  0.7920  0.0557  0.8938
  151SAPE  H12A16696   6.411  -0.063  10.740 -1.7763 -0.5055  3.7540
  151SAPE  H12B16697   6.451   0.095  10.696  1.7134 -1.4867 -0.7332
  151SAPE   C1116698   6.275  -0.000  10.585  0.0146 -0.0868  0.1646
  151SAPE  H11A16699   6.332   0.012  10.490  0.5027 -1.9074  0.1775
  151SAPE  H11B16700   6.199   0.079  10.568 -1.1792 -1.0222  0.9396
  151SAPE     P16701   6.071  -0.147  10.637 -0.2787 -0.2629 -0.2105
  151SAPE   O1316702   6.034  -0.288  10.623 -0.2272  0.1792  1.1613
  151SAPE   O1416703   6.053  -0.082  10.767 -0.0971  0.4289  0.3961
  151SAPE   O1216704   6.220  -0.133  10.591  0.4638  0.0295 -0.0868
  151SAPE   O1116705   5.991  -0.051  10.535 -0.8571  0.4466 -0.0279
  151SAPE    C116706   6.021  -0.080  10.394  0.3460 -0.3187  0.7820
  151SAPE    HA16707   5.992   0.009  10.335  2.9000  1.4328  1.9477
  151SAPE    HB16708   6.127  -0.081  10.360 -0.2981  1.1755 -1.5131
  151SAPE    C216709   5.938  -0.203  10.341  0.2765  0.1794  0.6706
  151SAPE    HS16710   5.974  -0.298  10.387 -1.3744 -0.0344  1.5987
  151SAPE   O2116711   5.964  -0.204  10.198  0.4624 -0.2742  0.0292
  151SAPE   C2116712   5.915  -0.321  10.147  0.1651  0.3661  0.3611
  151SAPE   O2216713   5.870  -0.412  10.220  0.2723 -0.0466 -0.3168
  151SAPE   C2216714   5.926  -0.327   9.995  0.5321  0.1638  0.4179
  151SAPE   H2R16715   5.829  -0.296   9.950  0.6202  0.7355  0.6137
  151SAPE   H2S16716   5.997  -0.246   9.969  0.8795 -0.3209 -0.1430
  151SAPE    C316717   5.786  -0.175  10.377 -0.5420 -0.2251 -0.1855
  151SAPE    HX16718   5.773  -0.187  10.487 -2.6936  0.9220 -0.2615
  151SAPE    HY16719   5.723  -0.255  10.334 -0.1055 -1.1183  0.7792
  151SAPE   O3116720   5.738  -0.048  10.330 -0.1071 -0.0688 -0.7865
  151SAPE   C3116721   5.685  -0.041  10.211  0.0646 -0.1084 -0.4987
  151SAPE   O3216722   5.666  -0.133  10.137  0.4508  0.3926 -0.0574
  151SAPE   C3216723   5.633   0.095  10.184 -0.5853 -0.6059 -0.7609
  151SAPE   H2X16724   5.649   0.163  10.271 -1.2098 -0.7501 -0.5290
  151SAPE   H2Y16725   5.526   0.089  10.158 -0.7552 -1.6927  0.0842
  151SAPE   C2316726   5.978  -0.468   9.946  0.0602  0.4182  0.5929
  151SAPE   H3R16727   5.937  -0.495   9.847 -0.2736 -0.3539  0.9384
  151SAPE   H3S16728   5.947  -0.553  10.011  2.7019  0.8959  2.6913
  151SAPE   C2416729   6.131  -0.461   9.933 -0.0906 -0.4750  0.1059
  151SAPE   H4R16730   6.175  -0.415  10.024  3.3589 -0.7415 -1.2975
  151SAPE   H4S16731   6.153  -0.389   9.851  1.2015 -0.8177  0.1390
  151SAPE   C2516732   6.189  -0.598   9.919 -0.7038  0.2502 -0.5143
  151SAPE   H5R16733   6.161  -0.662  10.005  0.2021  0.8765  0.2659
  151SAPE   C2616734   6.245  -0.653   9.812 -0.2289 -0.2386  0.3776
  151SAPE   H6R16735   6.286  -0.755   9.817 -1.6666 -0.8072  1.8510
  151SAPE   C2716736   6.272  -0.587   9.679 -0.0702 -0.6255  1.2710
  151SAPE   H7R16737   6.380  -0.598   9.657  0.2716  2.7144  0.6649
  151SAPE   H7S16738   6.267  -0.476   9.681  1.7129 -0.4261 -0.9977
  151SAPE   C2816739   6.177  -0.633   9.573  0.3349 -0.1996  0.3837
  151SAPE   H8R16740   6.071  -0.619   9.598  0.4023  1.9647 -0.3335
  151SAPE   C2916741   6.216  -0.687   9.451 -0.3153 -0.2121  0.7340
  151SAPE   H9R16742   6.135  -0.717   9.383 -3.8849  1.5248  3.8859
  151SAPE  C21016743   6.359  -0.699   9.410  0.1121  0.4045 -0.8786
  151SAPE  H10R16744   6.426  -0.713   9.497 -1.1869  0.1451  0.0979
  151SAPE  H10S16745   6.401  -0.610   9.358  0.4244  0.6371 -0.2306
  151SAPE  C21116746   6.386  -0.820   9.324 -0.2777 -0.1180 -0.0586
  151SAPE  H11R16747   6.389  -0.918   9.376 -0.3067 -0.0406  0.0891
  151SAPE  C21216748   6.387  -0.824   9.187  0.4108  0.1610 -0.0028
  151SAPE  H12R16749   6.417  -0.912   9.128  0.8704  0.2714  0.0666
  151SAPE  C21316750   6.375  -0.704   9.094 -0.2776 -0.4514  0.3614
  151SAPE  H13R16751   6.454  -0.724   9.019 -0.0734 -0.1570  0.4947
  151SAPE  H13S16752   6.403  -0.615   9.154 -0.8785  0.5864 -0.8420
  151SAPE  C21416753   6.232  -0.685   9.047 -0.4176  0.3249 -0.4040
  151SAPE  H14R16754   6.167  -0.649   9.128  1.4193 -0.0037  1.3077
  151SAPE  C21516755   6.182  -0.740   8.934  0.1863 -0.1562 -0.6497
  151SAPE  H15R16756   6.076  -0.716   8.917  0.9321  2.7309 -1.9083
  151SAPE  C21616757   6.260  -0.803   8.819 -0.7204  0.1174  0.3319
  151SAPE  H16R16758   6.367  -0.800   8.850 -0.9274 -1.1867  1.2405
  151SAPE  H16S16759   6.247  -0.760   8.717 -0.5210 -1.9523 -0.6087
  151SAPE  C21716760   6.219  -0.949   8.812  0.1141  0.3875  0.6885
  151SAPE  H17R16761   6.238  -0.994   8.712 -0.4735 -0.8528  1.1089
  151SAPE  H17S16762   6.109  -0.953   8.830  0.3730 -1.1289  2.2472
  151SAPE  C21816763   6.280  -1.040   8.922 -0.1308 -0.5237 -0.3680
  151SAPE  H18R16764   6.261  -0.987   9.017  0.6243  1.0178 -1.0423
  151SAPE  H18S16765   6.389  -1.034   8.898  0.5316  0.1668  2.5093
  151SAPE  C21916766   6.233  -1.183   8.912  0.5333  0.7208  0.2371
  151SAPE  H19R16767   6.250  -1.226   8.810 -1.6907  0.6954 -0.1864
  151SAPE  H19S16768   6.123  -1.188   8.932  0.2960  0.0840 -1.0802
  151SAPE  C22016769   6.300  -1.280   9.006 -0.2219 -0.4596 -0.8727
  151SAPE  H20R16770   6.256  -1.271   9.108  1.7657  0.8140 -0.0493
  151SAPE  H20S16771   6.407  -1.253   9.021 -1.0556  2.9239 -0.0423
  151SAPE  H20T16772   6.299  -1.387   8.977 -2.5376 -0.4469 -0.9622
  151SAPE   C3316773   5.704   0.173  10.073  0.1787 -0.0632 -0.3662
  151SAPE   H3X16774   5.813   0.177  10.096 -0.0325  0.3073  0.6479
  151SAPE   H3Y16775   5.670   0.279  10.076  1.2264  0.2756  0.7901
  151SAPE   C3416776   5.676   0.116   9.927 -0.0951 -0.1750 -0.8673
  151SAPE   H4X16777   5.568   0.118   9.903 -0.2531  1.2555 -0.1499
  151SAPE   H4Y16778   5.706   0.009   9.930 -1.2132 -0.6350 -3.6929
  151SAPE   C3516779   5.734   0.197   9.815 -0.1232 -0.0290  0.2155
  151SAPE   H5X16780   5.845   0.189   9.819  0.0858  2.3061  0.7111
  151SAPE   H5Y16781   5.717   0.305   9.837  0.1690  0.1160 -0.2566
  151SAPE   C3616782   5.661   0.161   9.684 -0.1888  0.2726  0.0351
  151SAPE   H6X16783   5.553   0.185   9.700  0.2184  1.4843  1.1608
  151SAPE   H6Y16784   5.690   0.061   9.648  1.6623  1.5064 -2.1435
  151SAPE   C3716785   5.707   0.239   9.563 -0.6269 -0.3555  0.1114
  151SAPE   H7X16786   5.817   0.231   9.550 -0.4962 -1.4362  1.5957
  151SAPE   H7Y16787   5.685   0.347   9.580  2.4719 -0.1054  4.3936
  151SAPE   C3816788   5.645   0.186   9.435  0.4868 -0.4008 -0.1289
  151SAPE   H8X16789   5.544   0.150   9.465  0.1108  2.4482  2.6034
  151SAPE   H8Y16790   5.708   0.103   9.397 -0.4925 -1.7889  1.1794
  151SAPE   C3916791   5.627   0.301   9.326 -0.2685  0.6811 -0.0706
  151SAPE   H9X16792   5.723   0.358   9.333 -0.8811  1.8066 -0.6723
  151SAPE   H9Y16793   5.558   0.368   9.381 -1.5304 -3.1004  3.4674
  151SAPE  C31016794   5.597   0.242   9.187 -0.3594  0.2378  0.1183
  151SAPE  H10X16795   5.571   0.325   9.118  1.6702  1.1539  0.3979
  151SAPE  H10Y16796   5.505   0.179   9.190 -1.8528  2.1625 -1.9519
  151SAPE  C31116797   5.717   0.169   9.130 -0.2096 -0.0039  1.4796
  151SAPE  H11X16798   5.755   0.093   9.202  1.4699 -1.3641 -0.7010
  151SAPE  H11Y16799   5.811   0.223   9.108  0.3221 -1.8364 -1.2133
  151SAPE  C31216800   5.687   0.077   9.007 -0.0268  0.0080 -0.1331
  151SAPE  H12X16801   5.626   0.143   8.941  0.9864  2.1229  0.9267
  151SAPE  H12Y16802   5.608  -0.001   9.015 -0.2032 -0.0071 -1.7440
  151SAPE  C31316803   5.810   0.029   8.926 -0.1351  0.7240 -0.3998
  151SAPE  H13X16804   5.844  -0.055   8.990 -0.3068 -0.9742 -2.4509
  151SAPE  H13Y16805   5.882   0.114   8.929 -2.5765  2.9279 -0.4414
  151SAPE  C31416806   5.785  -0.010   8.779 -0.3047 -0.2753 -0.0664
  151SAPE  H14X16807   5.704   0.053   8.736 -0.2546 -1.2558 -1.6786
  151SAPE  H14Y16808   5.741  -0.111   8.767 -1.7940  0.2491  0.7711
  151SAPE  C31516809   5.907   0.002   8.683  0.4890 -0.2040 -0.2359
  151SAPE  H15X16810   5.970  -0.080   8.724  0.2809 -0.4615 -0.4285
  151SAPE  H15Y16811   5.953   0.100   8.710  1.0961 -0.2999 -0.8963
  151SAPE  C31616812   5.861  -0.006   8.539  0.0034  0.8148  0.2787
  151SAPE  H16X16813   5.767   0.050   8.524 -1.6694 -2.0783 -0.7876
  151SAPE  H16Y16814   5.825  -0.109   8.518  2.0914 -0.0249  0.5684
  151SAPE  C31716815   5.968   0.023   8.427  0.7607  0.6500 -0.1687
  151SAPE  H17X16816   5.939  -0.031   8.335 -0.1500 -0.8393  0.9537
  151SAPE  H17Y16817   6.066  -0.011   8.468  0.3939 -0.7620 -0.4343
  151SAPE  C31816818   5.979   0.175   8.403 -0.3208 -0.3583 -0.1196
  151SAPE  H18X16819   6.020   0.213   8.499  0.1571 -0.4432 -0.2835
  151SAPE  H18Y16820   5.881   0.223   8.383 -0.7247 -0.4181  1.5770
  151SAPE  H18Z16821   6.057   0.202   8.328  0.1517  1.8313  1.0975
  152SAPE     N16822   1.746   0.778  11.077  0.1603 -0.0021  0.2267
  152SAPE   HN116823   1.733   0.702  11.007 -2.6548  1.8924 -1.5177
  152SAPE   HN216824   1.822   0.755  11.144 -1.3097 -4.9315  0.5606
  152SAPE   HN316825   1.652   0.784  11.120 -0.4944 -1.1989 -0.9682
  152SAPE   C1216826   1.763   0.898  10.986 -0.2428 -0.5082 -0.6207
  152SAPE  H12A16827   1.866   0.896  10.945  0.8411  2.2559  1.6276
  152SAPE  H12B16828   1.752   0.987  11.052 -1.5160  0.4360 -2.0389
  152SAPE   C1116829   1.658   0.896  10.876  0.2281  0.2332 -0.0084
  152SAPE  H11A16830   1.688   0.960  10.790 -1.9154  0.4868 -0.6190
  152SAPE  H11B16831   1.560   0.917  10.922 -0.5592  1.3418 -2.0881
  152SAPE     P16832   1.583   0.726  10.692 -0.0341 -0.0803 -0.1279
  152SAPE   O1316833   1.489   0.612  10.721 -0.0518  0.0965 -0.2476
  152SAPE   O1416834   1.536   0.849  10.626 -1.1674 -0.4348 -0.3178
  152SAPE   O1216835   1.661   0.766  10.824 -0.1264 -0.0967 -0.0410
  152SAPE   O1116836   1.702   0.675  10.594 -0.6014  0.0732 -0.4048
  152SAPE    C116837   1.808   0.768  10.562  0.8256  0.3334  0.6643
  152SAPE    HA16838   1.788   0.872  10.597 -0.8587  0.5669 -0.8129
  152SAPE    HB16839   1.898   0.726  10.611 -0.0803 -3.4564 -0.5624
  152SAPE    C216840   1.833   0.769  10.406  0.1134 -0.3530  0.3112
  152SAPE    HS16841   1.749   0.816  10.350  1.7431  1.8029 -0.4388
  152SAPE   O2116842   1.856   0.642  10.342  0.0408  0.7851  0.1652
  152SAPE   C2116843   1.963   0.570  10.376  0.1642 -0.0631  0.3720
  152SAPE   O2216844   2.051   0.600  10.449  0.3680 -0.6505  0.0118
  152SAPE   C2216845   1.954   0.433  10.308  0.1053  0.1537  0.4523
  152SAPE   H2R16846   1.938   0.357  10.387 -0.7979 -1.6166 -1.3545
  152SAPE   H2S16847   1.872   0.435  10.233  0.0947 -0.4635  0.4465
  152SAPE    C316848   1.955   0.860  10.376  0.1523 -0.0935  0.2101
  152SAPE    HX16849   2.045   0.843  10.439  0.6958 -0.4139 -0.6437
  152SAPE    HY16850   1.922   0.960  10.412 -0.3494  0.0013 -0.5005
  152SAPE   O3116851   1.987   0.869  10.232 -0.0122 -0.3297 -0.1182
  152SAPE   C3116852   1.901   0.946  10.164  0.5654 -0.1012  0.2444
  152SAPE   O3216853   1.811   1.017  10.210  0.6275 -0.4550  0.2830
  152SAPE   C3216854   1.939   0.940  10.017 -0.3680  0.1452 -0.4267
  152SAPE   H2X16855   1.895   0.851   9.969 -1.1598  0.4692 -0.3182
  152SAPE   H2Y16856   2.048   0.941   9.994  0.0639  2.1470  1.3882
  152SAPE   C2316857   2.084   0.387  10.235 -0.5470 -0.7385 -0.0301
  152SAPE   H3R16858   2.095   0.281  10.205  3.0510 -0.4256 -0.1956
  152SAPE   H3S16859   2.173   0.404  10.300 -1.5433  1.3928  0.9032
  152SAPE   C2416860   2.117   0.478  10.113  0.6950 -1.3970  0.4471
  152SAPE   H4R16861   2.131   0.585  10.139 -1.0932 -1.0287  0.0678
  152SAPE   H4S16862   2.029   0.474  10.046  0.9140  0.2359  0.0216
  152SAPE   C2516863   2.237   0.423  10.043  0.5304  0.7871 -0.2400
  152SAPE   H5R16864   2.328   0.426  10.105  1.0220  1.2804 -0.9675
  152SAPE   C2616865   2.244   0.376   9.917 -0.7417 -0.1439 -1.0890
  152SAPE   H6R16866   2.339   0.345   9.870 -0.0411  3.9018 -2.6763
  152SAPE   C2716867   2.135   0.355   9.821  0.2723 -0.2199  0.7250
  152SAPE   H7R16868   2.033   0.349   9.866 -0.0437  1.5825  0.3108
  152SAPE   H7S16869   2.160   0.254   9.780 -0.5046 -0.0050 -0.3292
  152SAPE   C2816870   2.120   0.460   9.706 -0.2618  0.0908 -0.6128
  152SAPE   H8R16871   2.089   0.562   9.736 -2.1778 -0.6084 -0.0821
  152SAPE   C2916872   2.143   0.447   9.577  0.3507 -0.0909 -0.2044
  152SAPE   H9R16873   2.119   0.520   9.498 -0.0134 -2.6424 -2.6287
  152SAPE  C21016874   2.191   0.312   9.518  0.0230  0.2456 -0.6382
  152SAPE  H10R16875   2.101   0.266   9.474  0.6195 -2.1274  0.4987
  152SAPE  H10S16876   2.229   0.241   9.594 -1.8633  0.7311  0.8294
  152SAPE  C21116877   2.295   0.337   9.414 -0.3560 -0.3815 -0.0086
  152SAPE  H11R16878   2.397   0.351   9.454  0.1689 -0.3660 -1.2890
  152SAPE  C21216879   2.279   0.340   9.277  0.2563  0.0122 -0.4986
  152SAPE  H12R16880   2.370   0.345   9.216  1.0189 -3.0066  0.2344
  152SAPE  C21316881   2.159   0.325   9.190  0.2638  0.3966 -0.6106
  152SAPE  H13R16882   2.070   0.342   9.255  0.7819 -1.2436  0.5828
  152SAPE  H13S16883   2.160   0.221   9.152 -2.4702  0.6831 -1.7304
  152SAPE  C21416884   2.167   0.414   9.074  0.3325 -0.2835 -0.6111
  152SAPE  H14R16885   2.115   0.510   9.088  0.9482  0.1790 -1.4061
  152SAPE  C21516886   2.247   0.399   8.972 -0.4564 -0.2272 -0.0623
  152SAPE  H15R16887   2.267   0.481   8.902  0.1344 -0.2507  0.0735
  152SAPE  C21616888   2.349   0.295   8.959 -0.8577  0.2075 -0.0749
  152SAPE  H16R16889   2.354   0.220   9.041  0.4945 -0.9233 -1.1425
  152SAPE  H16S16890   2.452   0.337   8.954 -1.5021  1.9496  0.5048
  152SAPE  C21716891   2.327   0.225   8.820 -1.0671  0.1651  0.3386
  152SAPE  H17R16892   2.219   0.207   8.801 -1.3660  1.0543  1.1750
  152SAPE  H17S16893   2.387   0.131   8.821 -2.0747 -0.4969  0.2844
  152SAPE  C21816894   2.369   0.309   8.694  0.5110 -0.2380 -0.0561
  152SAPE  H18R16895   2.353   0.416   8.720 -3.0872 -1.0204  1.5628
  152SAPE  H18S16896   2.292   0.286   8.618 -0.5821 -0.2094  1.0087
  152SAPE  C21916897   2.512   0.288   8.636 -0.2733  0.2158  0.1042
  152SAPE  H19R16898   2.605   0.279   8.696  1.2941 -0.3493 -2.3102
  152SAPE  H19S16899   2.539   0.374   8.571  2.9322 -1.8612 -1.5687
  152SAPE  C22016900   2.508   0.165   8.544 -0.2088  0.2738  0.4694
  152SAPE  H20R16901   2.483   0.079   8.610 -0.3468  0.7828  1.0826
  152SAPE  H20S16902   2.610   0.139   8.508 -0.1415  1.7595 -0.5020
  152SAPE  H20T16903   2.440   0.164   8.456 -0.3426  1.3407  0.5505
  152SAPE   C3316904   1.889   1.062   9.940  0.2517 -0.0263  1.1660
  152SAPE   H3X16905   1.929   1.161   9.969 -1.2679  1.0423 -0.1402
  152SAPE   H3Y16906   1.779   1.077   9.948 -0.0460 -0.7514 -0.8439
  152SAPE   C3416907   1.927   1.043   9.793  0.1271 -0.0791 -0.1951
  152SAPE   H4X16908   1.896   0.947   9.747 -0.8191 -0.2662  0.7821
  152SAPE   H4Y16909   2.037   1.055   9.785  0.2745 -1.0848  0.1789
  152SAPE   C3516910   1.878   1.157   9.697  0.2108  0.2684  0.3201
  152SAPE   H5X16911   1.906   1.256   9.738 -3.0384  1.5679 -0.2821
  152SAPE   H5Y16912   1.767   1.150   9.700  0.1986  0.8481  1.6388
  152SAPE   C3616913   1.938   1.137   9.557  0.7790 -0.5205 -0.0104
  152SAPE   H6X16914   1.904   1.037   9.522  0.5827 -0.4497 -0.0206
  152SAPE   H6Y16915   2.048   1.126   9.568  0.8826 -0.3872 -0.8332
  152SAPE   C3716916   1.921   1.252   9.452 -0.2941  0.6871 -0.2551
  152SAPE   H7X16917   1.955   1.345   9.504 -1.2624  0.2982  1.1248
  152SAPE   H7Y16918   1.814   1.272   9.431 -0.7425 -0.5880  0.6680
  152SAPE   C3816919   1.994   1.224   9.316  0.8572  0.1325 -0.3829
  152SAPE   H8X16920   1.971   1.124   9.274 -1.0460  0.7284 -0.8749
  152SAPE   H8Y16921   2.097   1.238   9.355  0.0845  0.8651  1.5227
  152SAPE   C3916922   1.943   1.312   9.200  0.3194 -0.8124 -0.3145
  152SAPE   H9X16923   1.959   1.416   9.233 -0.2165 -0.3264 -1.5008
  152SAPE   H9Y16924   1.834   1.294   9.182  0.1393 -0.4292  0.3819
  152SAPE  C31016925   2.026   1.301   9.073 -0.6030 -0.7848 -0.0075
  152SAPE  H10X16926   1.998   1.378   8.998  0.4293  1.1107  1.4570
  152SAPE  H10Y16927   2.007   1.199   9.033  0.3027  0.1983 -3.2973
  152SAPE  C31116928   2.171   1.348   9.104 -0.3373 -0.7191  0.4085
  152SAPE  H11X16929   2.217   1.274   9.172 -0.4553  0.5682  1.9498
  152SAPE  H11Y16930   2.157   1.450   9.147 -1.2418 -1.6537  2.4512
  152SAPE  C31216931   2.261   1.348   8.973  0.7343  0.0143 -0.5724
  152SAPE  H12X16932   2.231   1.254   8.923 -0.4653  0.3138 -0.4578
  152SAPE  H12Y16933   2.367   1.355   9.005  1.2778 -0.1565 -2.2652
  152SAPE  C31316934   2.243   1.460   8.867  0.1570  0.8572 -0.1941
  152SAPE  H13X16935   2.233   1.552   8.928 -0.3290  2.1904 -2.2194
  152SAPE  H13Y16936   2.142   1.453   8.822  0.5317  0.8972 -1.0486
  152SAPE  C31416937   2.352   1.460   8.762  0.5215  0.4999 -0.7384
  152SAPE  H14X16938   2.442   1.479   8.824  0.1230  0.8665 -0.2612
  152SAPE  H14Y16939   2.328   1.551   8.703  0.7186  1.3130  0.3970
  152SAPE  C31516940   2.364   1.332   8.673  0.6461 -0.4308  0.2291
  152SAPE  H15X16941   2.273   1.319   8.611  1.8937  0.1399 -1.7890
  152SAPE  H15Y16942   2.398   1.249   8.738 -1.5194 -2.4770 -1.0884
  152SAPE  C31616943   2.474   1.353   8.568  0.4243  0.4318 -0.4194
  152SAPE  H16X16944   2.559   1.415   8.604  1.3511  1.9029 -4.5772
  152SAPE  H16Y16945   2.440   1.415   8.482  2.1692  0.5869 -1.0526
  152SAPE  C31716946   2.519   1.213   8.512 -0.5541  0.3263 -0.4869
  152SAPE  H17X16947   2.441   1.157   8.457  0.0237  1.7166 -2.8743
  152SAPE  H17Y16948   2.541   1.153   8.603 -3.8998  0.5041  0.5732
  152SAPE  C31816949   2.633   1.205   8.414  0.1603  0.1199  0.0649
  152SAPE  H18X16950   2.612   1.270   8.326  0.1068 -0.2930 -0.2255
  152SAPE  H18Y16951   2.627   1.103   8.370  1.8952  0.7886 -1.8983
  152SAPE  H18Z16952   2.736   1.225   8.451 -0.1994  3.1549 -0.3012
  153SAPE     N16953   3.962   0.463  10.963  0.0909  0.5290  0.6213
  153SAPE   HN116954   4.014   0.426  10.881 -1.4287 -1.9351  0.6749
  153SAPE   HN216955   3.947   0.390  11.036 -2.7289  0.5557  0.1808
  153SAPE   HN316956   3.868   0.488  10.926  0.7916 -0.2235 -1.8651
  153SAPE   C1216957   4.024   0.587  11.021  0.0255 -0.3425  0.1275
  153SAPE  H12A16958   4.105   0.555  11.091  0.5657  3.7537  1.6593
  153SAPE  H12B16959   3.938   0.632  11.076  0.7665 -0.1255  1.1398
  153SAPE   C1116960   4.082   0.679  10.909 -0.7902 -0.2617  0.6236
  153SAPE  H11A16961   4.182   0.636  10.885 -0.5886  0.1054  0.7997
  153SAPE  H11B16962   4.110   0.780  10.947  0.4717 -0.4065  0.1343
  153SAPE     P16963   3.868   0.745  10.779  0.2484 -0.5511  0.3333
  153SAPE   O1316964   3.772   0.638  10.805  0.0794 -0.0901  0.1506
  153SAPE   O1416965   3.859   0.864  10.867  0.6663 -0.5055  0.0315
  153SAPE   O1216966   4.009   0.676  10.791  0.2838 -0.3704 -0.2599
  153SAPE   O1116967   3.861   0.783  10.625  0.0001  0.4271  0.4791
  153SAPE    C116968   3.971   0.848  10.569 -0.3384  0.2244 -0.6578
  153SAPE    HA16969   3.937   0.947  10.532  1.3036  1.8917  1.9420
  153SAPE    HB16970   4.053   0.862  10.642  0.4721 -1.9823 -1.0825
  153SAPE    C216971   4.032   0.763  10.455  0.1504  0.7187  0.0182
  153SAPE    HS16972   4.126   0.812  10.422  1.8943 -0.6105  2.7021
  153SAPE   O2116973   3.933   0.759  10.356  0.1675  0.1615 -0.6543
  153SAPE   C2116974   3.932   0.852  10.261  0.4267 -0.0044  0.7690
  153SAPE   O2216975   4.024   0.929  10.248 -0.1429  0.1211  0.8644
  153SAPE   C2216976   3.815   0.834  10.168 -0.1610  0.3265 -1.2408
  153SAPE   H2R16977   3.720   0.825  10.223  0.8885  1.8445  0.9741
  153SAPE   H2S16978   3.810   0.925  10.104 -1.4515  1.3694  0.2868
  153SAPE    C316979   4.063   0.617  10.496 -0.5280  0.3991  0.1402
  153SAPE    HX16980   3.970   0.583  10.548 -0.5152  1.7149  1.0637
  153SAPE    HY16981   4.133   0.625  10.581  0.8972  1.6107 -1.1111
  153SAPE   O3116982   4.092   0.532  10.385 -0.2522 -0.4301  0.4445
  153SAPE   C3116983   4.223   0.507  10.370  0.4840  0.3157  0.2559
  153SAPE   O3216984   4.314   0.562  10.426 -0.0452 -0.5042  0.0236
  153SAPE   C3216985   4.243   0.404  10.263  0.8791  0.4360  0.2951
  153SAPE   H2X16986   4.173   0.319  10.281  2.9428 -1.6661 -1.0006
  153SAPE   H2Y16987   4.344   0.363  10.284  1.7714  2.8436  1.0530
  153SAPE   C2316988   3.825   0.708  10.077 -0.1948 -0.5613 -0.1222
  153SAPE   H3R16989   3.736   0.719  10.011  1.3047  0.8071 -2.0294
  153SAPE   H3S16990   3.811   0.621  10.145 -3.8481 -0.2602 -0.3010
  153SAPE   C2416991   3.943   0.690   9.983 -0.0196  0.1870  0.0159
  153SAPE   H4R16992   3.932   0.593   9.931 -1.0914  0.4647 -0.2905
  153SAPE   H4S16993   4.032   0.668  10.046  0.1922 -0.6901 -0.5754
  153SAPE   C2516994   3.973   0.803   9.887  0.3762  0.3019  0.2380
  153SAPE   H5R16995   4.022   0.892   9.929  2.0560  0.0965 -1.2011
  153SAPE   C2616996   3.950   0.806   9.758  1.4877 -0.4156 -0.2588
  153SAPE   H6R16997   3.984   0.889   9.693  0.8243 -0.3623 -0.5506
  153SAPE   C2716998   3.876   0.702   9.677  0.5086  0.1317  0.2089
  153SAPE   H7R16999   3.843   0.608   9.727 -2.2178 -1.0284 -3.3696
  153SAPE   H7S17000   3.949   0.657   9.606  0.5673 -1.0547  0.9937
  153SAPE   C2817001   3.766   0.758   9.593 -1.0847 -0.4404 -0.6039
  153SAPE   H8R17002   3.666   0.762   9.638 -1.8191  1.8510 -2.2115
  153SAPE   C2917003   3.776   0.812   9.469 -0.4355 -0.6611 -0.1196
  153SAPE   H9R17004   3.681   0.852   9.431  0.3161  0.8372 -0.4922
  153SAPE  C21017005   3.897   0.820   9.376 -0.1814  0.6540 -0.3891
  153SAPE  H10R17006   3.992   0.794   9.427 -1.1754  1.0968  1.8137
  153SAPE  H10S17007   3.909   0.928   9.356  0.8284  0.6251  0.0481
  153SAPE  C21117008   3.876   0.736   9.255 -0.2329 -0.1382 -0.0206
  153SAPE  H11R17009   3.909   0.631   9.256  0.8826  0.2127  0.4174
  153SAPE  C21217010   3.828   0.785   9.135  0.1309  0.0213 -0.2208
  153SAPE  H12R17011   3.810   0.708   9.059 -2.6146  1.4539 -1.1478
  153SAPE  C21317012   3.777   0.928   9.099 -0.0937 -0.4669  0.2153
  153SAPE  H13R17013   3.752   0.990   9.188  0.4357  1.0125 -0.6245
  153SAPE  H13S17014   3.686   0.926   9.036  0.4661 -1.5600 -0.5941
  153SAPE  C21417015   3.890   1.005   9.032 -0.1129  0.5294  0.2525
  153SAPE  H14R17016   3.980   1.009   9.094 -2.1922  0.7250  3.4744
  153SAPE  C21517017   3.880   1.069   8.912  0.3763  0.2801 -0.6147
  153SAPE  H15R17018   3.972   1.114   8.871  1.7493 -1.9106 -0.1303
  153SAPE  C21617019   3.762   1.076   8.821  0.1142  0.1141 -0.0795
  153SAPE  H16R17020   3.687   0.995   8.834  0.0596 -0.1017 -1.5799
  153SAPE  H16S17021   3.795   1.073   8.715  2.6884  1.4125  0.6190
  153SAPE  C21717022   3.687   1.212   8.834  0.8986 -0.2359  0.2008
  153SAPE  H17R17023   3.661   1.228   8.941  1.1245 -1.1466  0.4021
  153SAPE  H17S17024   3.594   1.210   8.774 -0.4076  1.9788  1.9810
  153SAPE  C21817025   3.768   1.340   8.794 -0.1613 -0.6231 -0.0929
  153SAPE  H18R17026   3.813   1.325   8.693  2.5469 -0.3456  0.9963
  153SAPE  H18S17027   3.866   1.349   8.846 -0.9425 -3.7815  2.1743
  153SAPE  C21917028   3.700   1.479   8.809 -0.0829  0.1125 -0.4981
  153SAPE  H19R17029   3.612   1.480   8.741 -0.6786 -0.8206  0.2216
  153SAPE  H19S17030   3.764   1.565   8.780 -0.5359  0.8956  0.7243
  153SAPE  C22017031   3.637   1.507   8.947 -0.3244 -1.1333  0.2719
  153SAPE  H20R17032   3.576   1.600   8.943 -0.1108 -1.0032  0.0115
  153SAPE  H20S17033   3.718   1.531   9.019 -1.1187 -0.8729  1.1074
  153SAPE  H20T17034   3.581   1.415   8.971  1.5078 -2.3206  0.1583
  153SAPE   C3317035   4.235   0.452  10.116  0.4674 -0.2395 -0.3607
  153SAPE   H3X17036   4.269   0.558  10.118 -1.3588  0.3865  2.0131
  153SAPE   H3Y17037   4.126   0.453  10.093  0.2103 -1.3202  0.7196
  153SAPE   C3417038   4.310   0.355  10.018 -0.0022  0.2620 -0.3763
  153SAPE   H4X17039   4.243   0.265  10.015  1.3388 -0.7852 -0.0040
  153SAPE   H4Y17040   4.409   0.321  10.055  1.3144  2.2346 -1.9454
  153SAPE   C3517041   4.319   0.408   9.870 -0.2044  0.3529 -0.4455
  153SAPE   H5X17042   4.368   0.507   9.867  3.1026 -1.1409  0.3746
  153SAPE   H5Y17043   4.219   0.422   9.823  0.2619 -0.4413 -1.7303
  153SAPE   C3617044   4.390   0.304   9.788 -0.4883  0.2513 -0.0364
  153SAPE   H6X17045   4.327   0.213   9.789 -0.5529  0.2900 -0.3532
  153SAPE   H6Y17046   4.495   0.282   9.818 -0.6806  0.4510  0.8135
  153SAPE   C3717047   4.398   0.344   9.640 -0.7777  0.0007  0.1079
  153SAPE   H7X17048   4.465   0.272   9.587 -1.5097  1.4105 -2.9880
  153SAPE   H7Y17049   4.456   0.438   9.645 -1.3670  0.3158  1.2457
  153SAPE   C3817050   4.268   0.360   9.560 -0.8586  0.1615  0.1102
  153SAPE   H8X17051   4.201   0.437   9.603 -0.3676  0.3024  0.6470
  153SAPE   H8Y17052   4.211   0.265   9.546 -1.3811  0.3175  1.0917
  153SAPE   C3917053   4.290   0.412   9.416  0.7184 -0.5206 -0.1508
  153SAPE   H9X17054   4.324   0.336   9.342 -2.8535 -2.1859 -0.2874
  153SAPE   H9Y17055   4.365   0.494   9.415  0.7696 -0.5361  1.0222
  153SAPE  C31017056   4.168   0.487   9.362  0.9500 -0.0706 -0.6886
  153SAPE  H10X17057   4.131   0.558   9.439  2.8727 -1.0094  1.2154
  153SAPE  H10Y17058   4.077   0.426   9.344  0.4095  1.5418 -4.1415
  153SAPE  C31117059   4.205   0.569   9.233 -0.7608 -1.1538 -0.7857
  153SAPE  H11X17060   4.301   0.619   9.258 -1.4083 -0.2938  0.0435
  153SAPE  H11Y17061   4.129   0.650   9.222  0.5261 -0.0318 -2.0127
  153SAPE  C31217062   4.226   0.485   9.113  0.2670 -0.1085  0.8711
  153SAPE  H12X17063   4.128   0.447   9.076  1.2793 -1.9894 -0.0062
  153SAPE  H12Y17064   4.290   0.401   9.149 -0.4220 -0.4958  1.2150
  153SAPE  C31317065   4.283   0.557   8.994 -0.3879 -0.4789  0.8143
  153SAPE  H13X17066   4.324   0.487   8.918  0.6770  0.5536  0.4058
  153SAPE  H13Y17067   4.378   0.612   9.006 -0.2908 -0.7377  1.2655
  153SAPE  C31417068   4.190   0.658   8.931 -0.0564 -0.2647 -0.1660
  153SAPE  H14X17069   4.172   0.745   8.998  0.7435  3.3375 -4.1629
  153SAPE  H14Y17070   4.091   0.608   8.924 -0.4389  0.1605  1.7776
  153SAPE  C31517071   4.225   0.711   8.792  0.2626 -0.5870 -0.9632
  153SAPE  H15X17072   4.274   0.643   8.719  2.0415 -1.2121  0.7401
  153SAPE  H15Y17073   4.287   0.803   8.791 -2.8823  1.7287 -3.0688
  153SAPE  C31617074   4.106   0.763   8.714 -0.1572  0.0696  0.9115
  153SAPE  H16X17075   4.039   0.833   8.768  1.4178  0.5427  2.3311
  153SAPE  H16Y17076   4.052   0.667   8.696  1.7214 -1.0939  1.2073
  153SAPE  C31717077   4.135   0.827   8.576  0.0591 -0.5045  0.7968
  153SAPE  H17X17078   4.225   0.772   8.539 -0.3904  0.1608 -1.4286
  153SAPE  H17Y17079   4.175   0.930   8.585 -1.0271 -0.0504  0.5587
  153SAPE  C31817080   4.008   0.825   8.489 -0.2243 -0.0701  0.5873
  153SAPE  H18X17081   3.992   0.724   8.447 -0.4804  0.0944  0.2765
  153SAPE  H18Y17082   4.026   0.896   8.405 -0.1721  0.9029  1.3962
  153SAPE  H18Z17083   3.909   0.856   8.528 -0.1694  2.6513 -1.1426
  154SAPE     N17084   6.682   1.175  10.803  0.4893 -0.0531 -0.2512
  154SAPE   HN117085   6.742   1.136  10.728  0.5350  0.3914 -0.4486
  154SAPE   HN217086   6.722   1.180  10.899  1.5730  1.1565 -0.7378
  154SAPE   HN317087   6.588   1.130  10.801  0.3544  0.1917  0.3529
  154SAPE   C1217088   6.679   1.314  10.763 -0.0217 -0.0912  0.5331
  154SAPE  H12A17089   6.631   1.384  10.835 -0.8281  0.1105 -0.1808
  154SAPE  H12B17090   6.614   1.320  10.673  0.6225 -1.2079 -0.0217
  154SAPE   C1117091   6.815   1.362  10.700  0.0581  0.3263  0.9914
  154SAPE  H11A17092   6.894   1.356  10.778  1.0016 -0.7771 -0.0198
  154SAPE  H11B17093   6.806   1.465  10.658  2.2470 -0.4754 -1.7823
  154SAPE     P17094   6.978   1.281  10.525 -0.2050 -0.1691 -0.1385
  154SAPE   O1317095   7.096   1.291  10.619  0.4165  0.2061 -0.4236
  154SAPE   O1417096   6.982   1.167  10.431 -0.2818 -0.1282  0.4117
  154SAPE   O1217097   6.843   1.266  10.599  0.4446  0.0939  0.4758
  154SAPE   O1117098   6.962   1.416  10.453 -0.0881 -0.3322 -0.0901
  154SAPE    C117099   6.853   1.432  10.360  0.2386  0.5306 -0.9233
  154SAPE    HA17100   6.760   1.391  10.405  0.0578  0.8570 -0.9972
  154SAPE    HB17101   6.843   1.543  10.354  0.8669  0.8609  2.1285
  154SAPE    C217102   6.874   1.375  10.214  0.7686 -0.3308 -0.8569
  154SAPE    HS17103   6.869   1.265  10.227 -1.1556  0.0329  3.1207
  154SAPE   O2117104   7.004   1.424  10.170  0.1508 -0.0988 -0.2604
  154SAPE   C2117105   7.062   1.342  10.094 -0.4003 -0.6964  0.3839
  154SAPE   O2217106   7.029   1.227  10.077 -0.4395 -0.7202  0.2615
  154SAPE   C2217107   7.164   1.419  10.007 -0.3662  0.0687  0.0924
  154SAPE   H2R17108   7.193   1.516  10.054  0.5331  0.2366 -0.7760
  154SAPE   H2S17109   7.261   1.366  10.008  0.7725  1.9970 -1.3123
  154SAPE    C317110   6.759   1.417  10.122 -0.4634 -0.0968 -0.6935
  154SAPE    HX17111   6.739   1.524  10.145  0.6558  0.1082 -0.6312
  154SAPE    HY17112   6.667   1.371  10.165 -2.6539  3.5351 -1.0052
  154SAPE   O3117113   6.775   1.401   9.981  0.3668  0.5166  0.4799
  154SAPE   C3117114   6.703   1.304   9.921 -0.4737 -0.2988 -0.3807
  154SAPE   O3217115   6.628   1.231   9.982 -0.5824 -0.3237 -0.1130
  154SAPE   C3217116   6.719   1.315   9.763 -0.3862 -0.2900 -0.0327
  154SAPE   H2X17117   6.827   1.310   9.739 -0.3591 -0.0474  0.0375
  154SAPE   H2Y17118   6.687   1.418   9.736  2.7516  0.6625 -0.5200
  154SAPE   C2317119   7.125   1.441   9.858 -0.4598 -0.1714  0.0723
  154SAPE   H3R17120   7.028   1.494   9.852  0.7795  2.0177 -2.9668
  154SAPE   H3S17121   7.100   1.337   9.825 -0.2142 -0.0948 -0.3599
  154SAPE   C2417122   7.224   1.526   9.784 -0.1723 -0.1365  0.3643
  154SAPE   H4R17123   7.276   1.594   9.855 -0.1998  1.8596 -1.3895
  154SAPE   H4S17124   7.171   1.595   9.715  0.3538  0.1075  0.1946
  154SAPE   C2517125   7.311   1.435   9.710 -0.1127  0.5861 -0.2673
  154SAPE   H5R17126   7.338   1.339   9.757 -1.3390 -0.1194 -0.9573
  154SAPE   C2617127   7.363   1.455   9.587  0.3701  0.5104 -0.0805
  154SAPE   H6R17128   7.412   1.372   9.534 -0.5032  0.2256 -0.4475
  154SAPE   C2717129   7.334   1.579   9.508  0.1601 -0.2430 -0.4312
  154SAPE   H7R17130   7.303   1.651   9.586  0.6460 -1.3767  0.8671
  154SAPE   H7S17131   7.245   1.572   9.442  1.1447 -0.0937 -1.8217
  154SAPE   C2817132   7.463   1.619   9.438 -0.4447 -0.6996  0.8434
  154SAPE   H8R17133   7.549   1.660   9.493  1.4541 -0.4374 -2.0969
  154SAPE   C2917134   7.489   1.602   9.304 -0.4091 -0.1189  0.3799
  154SAPE   H9R17135   7.580   1.646   9.260 -0.3558 -0.4849  0.1203
  154SAPE  C21017136   7.395   1.542   9.195 -0.4494  0.0732  0.3235
  154SAPE  H10R17137   7.323   1.617   9.156 -0.2819  0.3529  0.5437
  154SAPE  H10S17138   7.336   1.470   9.255 -2.0770  1.1322  0.0462
  154SAPE  C21117139   7.467   1.456   9.098  0.3120 -0.1735  0.4650
  154SAPE  H11R17140   7.497   1.364   9.151  3.1760  2.1041  3.1643
  154SAPE  C21217141   7.483   1.478   8.966  0.1919  0.3507 -0.1319
  154SAPE  H12R17142   7.542   1.402   8.914 -2.5480 -1.3443 -0.9866
  154SAPE  C21317143   7.438   1.606   8.897 -0.2864 -0.5078 -0.1294
  154SAPE  H13R17144   7.379   1.672   8.964  0.2989  1.1245 -1.1812
  154SAPE  H13S17145   7.367   1.585   8.814  0.5564 -0.4501 -0.8851
  154SAPE  C21417146   7.544   1.691   8.852  0.0135  0.1750 -0.1032
  154SAPE  H14R17147   7.631   1.700   8.919  0.6826  1.5260 -1.0915
  154SAPE  C21517148   7.555   1.754   8.728  0.0001 -0.2145  0.5978
  154SAPE  H15R17149   7.650   1.804   8.703 -0.3540 -0.7118 -2.1097
  154SAPE  C21617150   7.448   1.738   8.614 -0.0678  0.1825  0.3126
  154SAPE  H16R17151   7.373   1.659   8.637  1.2308 -0.4298  2.8422
  154SAPE  H16S17152   7.486   1.708   8.514 -3.2733  1.8944 -1.5681
  154SAPE  C21717153   7.365   1.864   8.574 -0.6267 -0.5958 -0.2886
  154SAPE  H17R17154   7.303   1.832   8.487 -1.2815 -1.3875  0.4477
  154SAPE  H17S17155   7.433   1.946   8.544 -0.8653  0.5374  2.0558
  154SAPE  C21817156   7.274   1.908   8.690  0.1047  0.1183 -0.3136
  154SAPE  H18R17157   7.350   1.932   8.767  0.9275 -0.6022 -0.8822
  154SAPE  H18S17158   7.220   1.820   8.732  2.1422 -1.4258 -0.7276
  154SAPE  C21917159   7.195   2.036   8.659  0.4551 -0.0002  0.6508
  154SAPE  H19R17160   7.252   2.124   8.622  1.3847 -1.1432 -0.6994
  154SAPE  H19S17161   7.133   2.073   8.744 -0.6606 -1.0797  0.3468
  154SAPE  C22017162   7.095   2.006   8.545  0.2755  0.0089 -0.0755
  154SAPE  H20R17163   7.069   1.899   8.560  0.5465  0.3118  3.0402
  154SAPE  H20S17164   7.158   2.014   8.454  2.0168 -0.7510  1.0109
  154SAPE  H20T17165   7.007   2.073   8.544 -0.6405 -1.1008  1.7416
  154SAPE   C3317166   6.640   1.198   9.692 -0.2927  0.1343  1.1810
  154SAPE   H3X17167   6.538   1.232   9.663  0.2302  0.6686 -0.1049
  154SAPE   H3Y17168   6.641   1.103   9.749  0.6708 -0.0666  0.8495
  154SAPE   C3417169   6.690   1.149   9.556  1.1319 -0.2098 -0.6769
  154SAPE   H4X17170   6.611   1.080   9.517 -0.1736  0.2787  0.9629
  154SAPE   H4Y17171   6.772   1.074   9.567  0.5916 -0.8045 -0.5924
  154SAPE   C3517172   6.716   1.264   9.460  0.2557  0.1077  0.0515
  154SAPE   H5X17173   6.787   1.342   9.496  0.5296  0.5344 -1.3553
  154SAPE   H5Y17174   6.616   1.312   9.448  0.9958  1.1928 -2.5665
  154SAPE   C3617175   6.750   1.221   9.319 -0.8630  0.2025 -0.0381
  154SAPE   H6X17176   6.840   1.157   9.330  0.6035  2.2073  0.0653
  154SAPE   H6Y17177   6.768   1.305   9.249 -1.9205 -1.3049 -2.2466
  154SAPE   C3717178   6.634   1.141   9.255 -0.0344  0.1976  0.2843
  154SAPE   H7X17179   6.555   1.216   9.235 -0.9823 -0.2223  2.1911
  154SAPE   H7Y17180   6.587   1.057   9.312 -1.0991 -0.4279 -1.4454
  154SAPE   C3817181   6.672   1.095   9.113 -0.6282 -0.2577  0.6391
  154SAPE   H8X17182   6.773   1.048   9.113 -1.5839 -2.5214 -1.4745
  154SAPE   H8Y17183   6.689   1.192   9.063 -0.2681  0.5228  2.2038
  154SAPE   C3917184   6.568   1.010   9.035  0.4116  0.2475 -0.0095
  154SAPE   H9X17185   6.477   1.071   9.055 -0.0825 -0.3610 -0.3640
  154SAPE   H9Y17186   6.559   0.919   9.100 -2.2945  0.2379 -0.2973
  154SAPE  C31017187   6.586   0.979   8.890 -0.3662 -0.0457 -0.3835
  154SAPE  H10X17188   6.593   1.074   8.832 -4.1814  0.0700 -0.9488
  154SAPE  H10Y17189   6.502   0.923   8.843  2.0662 -1.4590 -3.4038
  154SAPE  C31117190   6.715   0.906   8.861  0.2518  0.5169 -0.4449
  154SAPE  H11X17191   6.731   0.846   8.953 -0.3445 -1.0378 -1.3176
  154SAPE  H11Y17192   6.804   0.972   8.857  1.2306 -0.7424 -0.0256
  154SAPE  C31217193   6.715   0.810   8.739 -0.2816 -0.1073 -0.2110
  154SAPE  H12X17194   6.708   0.859   8.639  0.8216  1.4337  0.4366
  154SAPE  H12Y17195   6.624   0.747   8.745 -0.5312  0.3162  0.4869
  154SAPE  C31317196   6.851   0.743   8.737  0.3466  0.9208  0.4585
  154SAPE  H13X17197   6.861   0.681   8.829  1.8308 -0.3827 -0.5208
  154SAPE  H13Y17198   6.934   0.817   8.726  2.0505 -0.8043  1.0468
  154SAPE  C31417199   6.845   0.652   8.611 -0.0629  0.3150  0.1800
  154SAPE  H14X17200   6.838   0.719   8.523 -3.1213  0.7809  0.6542
  154SAPE  H14Y17201   6.753   0.590   8.600 -0.1115  0.4792 -0.3466
  154SAPE  C31517202   6.967   0.562   8.594  0.5015  0.1476  0.6253
  154SAPE  H15X17203   6.995   0.500   8.682  1.4495 -0.4907 -0.1141
  154SAPE  H15Y17204   7.050   0.635   8.582  0.0737  0.6622  0.7464
  154SAPE  C31617205   6.962   0.465   8.460 -0.0587 -0.9108  0.4216
  154SAPE  H16X17206   7.065   0.431   8.435 -0.2729 -0.8575 -0.6001
  154SAPE  H16Y17207   6.938   0.532   8.374  2.3245  0.8318  1.0267
  154SAPE  C31717208   6.886   0.338   8.488 -0.4651  0.4174 -0.3085
  154SAPE  H17X17209   6.776   0.351   8.489 -0.4692  0.3950  0.5091
  154SAPE  H17Y17210   6.919   0.303   8.588 -0.7873 -1.2592 -0.7742
  154SAPE  C31817211   6.926   0.228   8.400 -0.3516 -1.1998  0.1829
  154SAPE  H18X17212   6.870   0.238   8.305 -0.3057  0.1529  0.2793
  154SAPE  H18Y17213   6.888   0.129   8.435  1.3638 -1.1464  2.5312
  154SAPE  H18Z17214   7.036   0.232   8.386 -0.2776  2.0148  0.9612
  155SAPE     N17215   1.834   4.304  10.915 -0.1841 -0.4381  0.5076
  155SAPE   HN117216   1.906   4.353  10.972  0.9420  0.5771 -1.6899
  155SAPE   HN217217   1.760   4.265  10.978 -1.4148  1.9024  0.6126
  155SAPE   HN317218   1.863   4.222  10.859 -0.2832  0.3399 -0.7151
  155SAPE   C1217219   1.763   4.392  10.816  0.2646  0.1985  0.3817
  155SAPE  H12A17220   1.836   4.436  10.744 -0.3459 -0.3328 -0.5802
  155SAPE  H12B17221   1.727   4.480  10.874  0.6350  0.0460  0.8518
  155SAPE   C1117222   1.646   4.324  10.746  0.5449  0.5101 -0.2092
  155SAPE  H11A17223   1.678   4.222  10.717  1.8106  0.3729  1.5019
  155SAPE  H11B17224   1.623   4.383  10.654 -0.7362  0.2579 -0.0692
  155SAPE     P17225   1.503   4.214  10.936  0.1297 -0.2049  0.1520
  155SAPE   O1317226   1.623   4.179  11.016 -0.2960  0.0231  0.2474
  155SAPE   O1417227   1.407   4.294  11.010  0.3059  0.6354  0.6989
  155SAPE   O1217228   1.529   4.320  10.824 -0.0529 -0.2923  0.2414
  155SAPE   O1117229   1.437   4.087  10.869  0.1549  0.4479  0.2409
  155SAPE    C117230   1.319   4.096  10.789 -0.0591  0.1147 -0.5831
  155SAPE    HA17231   1.239   4.035  10.834 -0.9759  1.0512 -0.8922
  155SAPE    HB17232   1.280   4.197  10.763  1.3778  0.7544 -0.3275
  155SAPE    C217233   1.345   4.036  10.649 -0.0885 -0.4094  0.2425
  155SAPE    HS17234   1.250   4.051  10.592 -0.7205 -0.1301  1.3448
  155SAPE   O2117235   1.388   3.901  10.662 -0.0067 -0.4060 -0.0662
  155SAPE   C2117236   1.291   3.813  10.683 -0.8218  0.0026  0.0618
  155SAPE   O2217237   1.173   3.839  10.662  0.2234 -0.5293 -0.2564
  155SAPE   C2217238   1.344   3.675  10.730  0.2790  0.0960  0.6669
  155SAPE   H2R17239   1.435   3.655  10.670  0.8611  2.3213  0.7293
  155SAPE   H2S17240   1.381   3.695  10.833 -1.4036  0.4501  1.2349
  155SAPE    C317241   1.446   4.118  10.572  1.0677  0.4308 -0.5745
  155SAPE    HX17242   1.539   4.097  10.629 -0.1718 -1.9060  0.7118
  155SAPE    HY17243   1.418   4.226  10.567 -1.9119 -0.1585  1.0164
  155SAPE   O3117244   1.460   4.055  10.447  0.0764  0.6203 -0.4280
  155SAPE   C3117245   1.577   4.069  10.389 -0.0365  0.2228  0.1678
  155SAPE   O3217246   1.664   4.149  10.430 -0.0348  0.4490  0.5416
  155SAPE   C3217247   1.587   3.990  10.258  0.5282 -0.0430  0.1150
  155SAPE   H2X17248   1.491   3.936  10.243 -0.0592  1.2943 -1.3530
  155SAPE   H2Y17249   1.657   3.906  10.276 -0.2106 -0.6344  0.2436
  155SAPE   C2317250   1.250   3.550  10.723  0.4821 -0.3912  0.8478
  155SAPE   H3R17251   1.146   3.574  10.753  0.3869  0.7117 -0.3060
  155SAPE   H3S17252   1.297   3.478  10.794  1.5063  0.6183  1.2411
  155SAPE   C2417253   1.263   3.486  10.585  0.1934 -0.0684  0.1360
  155SAPE   H4R17254   1.223   3.382  10.581  0.1881 -0.0642 -2.9297
  155SAPE   H4S17255   1.371   3.462  10.572  0.3973  1.2376 -0.7613
  155SAPE   C2517256   1.196   3.568  10.476  0.9703  0.0700 -0.9760
  155SAPE   H5R17257   1.105   3.622  10.503  0.8527 -0.0671 -1.0961
  155SAPE   C2617258   1.245   3.581  10.354 -0.1099  0.0153 -0.2312
  155SAPE   H6R17259   1.199   3.654  10.286  1.5193  0.9824 -0.3426
  155SAPE   C2717260   1.365   3.503  10.301  0.2530 -0.0298 -0.0360
  155SAPE   H7R17261   1.328   3.412  10.249 -0.6279  0.4340 -0.2362
  155SAPE   H7S17262   1.432   3.468  10.383 -0.7665  1.6542  1.5975
  155SAPE   C2817263   1.439   3.590  10.204  0.0438  0.4978 -0.6210
  155SAPE   H8R17264   1.525   3.639  10.253  2.5276 -2.2414 -1.9532
  155SAPE   C2917265   1.411   3.600  10.072 -0.6405  0.3414  0.0650
  155SAPE   H9R17266   1.484   3.659  10.015  2.0079 -1.6630  1.1677
  155SAPE  C21017267   1.306   3.529   9.994  0.3540  0.3550  0.0819
  155SAPE  H10R17268   1.269   3.594   9.912 -1.5026 -1.2945 -0.4745
  155SAPE  H10S17269   1.214   3.509  10.054  0.3000 -0.8312 -0.3564
  155SAPE  C21117270   1.355   3.391   9.956  0.1848  0.8033 -0.4302
  155SAPE  H11R17271   1.375   3.320  10.038  0.9957  0.2083 -1.1378
  155SAPE  C21217272   1.387   3.345   9.832 -0.0368  0.2576  0.4414
  155SAPE  H12R17273   1.436   3.249   9.813 -0.0658  0.4215 -0.5165
  155SAPE  C21317274   1.378   3.429   9.706 -0.0366 -0.8738 -0.0039
  155SAPE  H13R17275   1.478   3.426   9.659  0.4262  0.8961  0.7529
  155SAPE  H13S17276   1.361   3.538   9.724 -2.2480 -1.2285  0.3182
  155SAPE  C21417277   1.282   3.368   9.604  0.3774 -0.3308 -0.1753
  155SAPE  H14R17278   1.296   3.262   9.578  1.0292 -0.7024  1.5263
  155SAPE  C21517279   1.175   3.428   9.554 -0.2092 -0.4001 -0.5298
  155SAPE  H15R17280   1.116   3.379   9.475 -2.4320  0.7610  0.3207
  155SAPE  C21617281   1.146   3.575   9.581  0.2716 -0.1141  0.0093
  155SAPE  H16R17282   1.240   3.628   9.609  0.4932 -1.5860  2.3660
  155SAPE  H16S17283   1.070   3.576   9.662 -2.6659 -1.7889 -2.5148
  155SAPE  C21717284   1.083   3.650   9.464  0.7624 -0.3959 -0.0399
  155SAPE  H17R17285   1.077   3.753   9.505  1.3761 -0.1841 -0.4786
  155SAPE  H17S17286   0.977   3.617   9.459  0.7449 -1.1398  3.2522
  155SAPE  C21817287   1.145   3.653   9.328  0.0784 -0.4524 -0.1813
  155SAPE  H18R17288   1.163   3.548   9.295 -1.4738 -0.0391 -2.5380
  155SAPE  H18S17289   1.238   3.714   9.330 -0.4859  0.4672 -1.1107
  155SAPE  C21917290   1.056   3.723   9.227 -0.3520 -0.5371 -0.0161
  155SAPE  H19R17291   1.040   3.829   9.256 -0.4561 -0.1370 -1.4731
  155SAPE  H19S17292   0.960   3.668   9.212 -2.4742  2.1540  2.4173
  155SAPE  C22017293   1.128   3.744   9.098 -0.4818  0.4906 -0.2722
  155SAPE  H20R17294   1.226   3.794   9.117 -1.2493  1.2429  2.1548
  155SAPE  H20S17295   1.073   3.793   9.015 -0.4792 -0.9554 -1.1505
  155SAPE  H20T17296   1.154   3.648   9.049 -2.8262  0.8434 -2.3507
  155SAPE   C3317297   1.626   4.082  10.137  0.2425 -0.5485 -0.5762
  155SAPE   H3X17298   1.636   4.013  10.051  1.5459 -0.5548 -0.4369
  155SAPE   H3Y17299   1.724   4.129  10.156  0.2946 -0.3085 -1.3840
  155SAPE   C3417300   1.520   4.187  10.104 -0.0086 -0.1107  0.7028
  155SAPE   H4X17301   1.506   4.243  10.200 -0.7907 -0.0754  0.5750
  155SAPE   H4Y17302   1.421   4.145  10.078  0.4503  1.0817 -3.7422
  155SAPE   C3517303   1.567   4.288   9.991 -0.2968 -0.4501 -0.1878
  155SAPE   H5X17304   1.670   4.323  10.015 -0.0434  0.5484 -2.4948
  155SAPE   H5Y17305   1.497   4.373   9.998  0.6705  0.2454  1.8782
  155SAPE   C3617306   1.569   4.225   9.851 -0.3722  0.3624 -0.2176
  155SAPE   H6X17307   1.482   4.156   9.837  0.9826 -0.9996 -2.7200
  155SAPE   H6Y17308   1.659   4.160   9.845  0.0343  0.7577  1.3548
  155SAPE   C3717309   1.583   4.315   9.728  0.6694 -0.0756  0.2008
  155SAPE   H7X17310   1.681   4.367   9.727  1.0775 -0.8525 -0.6095
  155SAPE   H7Y17311   1.506   4.395   9.734 -0.4548 -1.0563 -0.7495
  155SAPE   C3817312   1.567   4.241   9.597  0.1672  0.2538  0.1651
  155SAPE   H8X17313   1.551   4.318   9.518 -0.6548  1.4412  1.4260
  155SAPE   H8Y17314   1.488   4.164   9.591  1.7989 -1.4540 -0.2262
  155SAPE   C3917315   1.704   4.177   9.561 -0.3136 -0.5363  0.2475
  155SAPE   H9X17316   1.742   4.116   9.646  0.6229  0.3159  0.4530
  155SAPE   H9Y17317   1.782   4.252   9.536  1.9365 -2.3361  1.5313
  155SAPE  C31017318   1.683   4.080   9.436 -0.1551  0.2992 -0.2466
  155SAPE  H10X17319   1.598   4.010   9.445 -2.1599  2.6484  0.1721
  155SAPE  H10Y17320   1.770   4.011   9.431  0.6327  1.1277  1.1016
  155SAPE  C31117321   1.686   4.170   9.306  0.2318 -0.1320  0.0179
  155SAPE  H11X17322   1.774   4.237   9.309 -0.2238  0.4756 -0.0769
  155SAPE  H11Y17323   1.594   4.231   9.294 -1.1224 -2.1094 -0.0903
  155SAPE  C31217324   1.703   4.089   9.182 -0.5429  0.0369  0.3890
  155SAPE  H12X17325   1.623   4.013   9.184  0.9219 -1.5654  2.4593
  155SAPE  H12Y17326   1.790   4.022   9.167 -0.4981  0.3958 -1.2178
  155SAPE  C31317327   1.702   4.172   9.057  0.2326  0.2259 -0.3201
  155SAPE  H13X17328   1.798   4.223   9.038  1.3798 -0.6096  2.7328
  155SAPE  H13Y17329   1.619   4.244   9.076  0.3044  0.2194  0.0247
  155SAPE  C31417330   1.662   4.111   8.919 -0.5099 -0.0530 -0.3632
  155SAPE  H14X17331   1.638   4.192   8.848 -0.3128  0.8813  0.6169
  155SAPE  H14Y17332   1.576   4.049   8.950 -0.5188 -0.3761 -1.0038
  155SAPE  C31517333   1.775   4.015   8.874 -1.0670 -0.4959 -0.2137
  155SAPE  H15X17334   1.787   3.933   8.948  0.5381 -0.7889 -0.7671
  155SAPE  H15Y17335   1.873   4.065   8.865 -1.0481 -0.6052 -0.6841
  155SAPE  C31617336   1.745   3.937   8.743 -0.2663  0.5036 -0.7958
  155SAPE  H16X17337   1.735   4.017   8.666  0.3421  1.2843 -0.0798
  155SAPE  H16Y17338   1.645   3.889   8.748 -0.3101  0.7444  1.6569
  155SAPE  C31717339   1.856   3.844   8.683  1.0858  0.2136  0.4312
  155SAPE  H17X17340   1.884   3.775   8.765 -1.3498  0.5756  1.6548
  155SAPE  H17Y17341   1.944   3.906   8.657  2.0512 -1.8956 -1.7906
  155SAPE  C31817342   1.816   3.767   8.560  0.2568 -0.6273 -0.1296
  155SAPE  H18X17343   1.781   3.838   8.481 -0.3782  0.1893  0.8551
  155SAPE  H18Y17344   1.716   3.724   8.582 -0.1351  1.0105  1.5702
  155SAPE  H18Z17345   1.888   3.694   8.518 -1.1265 -1.3509 -1.3288
  156SAPE     N17346   1.384   1.029  10.503 -0.5490  0.3177  0.1212
  156SAPE   HN117347   1.297   0.976  10.480 -1.7399  1.8522  0.8618
  156SAPE   HN217348   1.412   1.079  10.416  0.3234 -1.2693 -0.5330
  156SAPE   HN317349   1.463   0.972  10.538  1.1462  1.9762 -0.8204
  156SAPE   C1217350   1.352   1.128  10.616  0.0505 -0.6085 -0.2915
  156SAPE  H12A17351   1.446   1.156  10.669 -0.4828  1.0634 -0.1837
  156SAPE  H12B17352   1.275   1.085  10.683  0.3878 -1.0374 -0.1725
  156SAPE   C1117353   1.282   1.254  10.565  0.6983  1.0491 -0.4974
  156SAPE  H11A17354   1.348   1.318  10.503 -1.5684  1.4237 -2.6947
  156SAPE  H11B17355   1.237   1.314  10.647 -3.1565 -0.2454 -1.4214
  156SAPE     P17356   1.111   1.244  10.358  0.2458 -0.3737 -0.2490
  156SAPE   O1317357   0.991   1.158  10.347  0.1288  0.7257  0.0410
  156SAPE   O1417358   1.095   1.390  10.347 -0.2793 -0.1806  0.4290
  156SAPE   O1217359   1.172   1.207  10.483  0.2447 -0.2219 -0.3305
  156SAPE   O1117360   1.214   1.197  10.248 -0.2430 -0.1175  0.2126
  156SAPE    C117361   1.300   1.301  10.195  0.2647  0.1632 -0.4117
  156SAPE    HA17362   1.242   1.390  10.163 -0.9946  0.3381  2.1930
  156SAPE    HB17363   1.378   1.330  10.269  0.9983  1.1915 -1.5429
  156SAPE    C217364   1.381   1.258  10.069 -0.4390  0.5298  0.0899
  156SAPE    HS17365   1.315   1.253   9.980 -0.6471 -2.9470  0.3352
  156SAPE   O2117366   1.436   1.127  10.099  0.5127 -0.4941  0.1591
  156SAPE   C2117367   1.433   1.047   9.990 -0.2357  0.6191 -0.7765
  156SAPE   O2217368   1.417   1.080   9.875  0.4068 -0.4458  0.2011
  156SAPE   C2217369   1.475   0.904  10.028 -0.4339  0.6639 -0.0227
  156SAPE   H2R17370   1.578   0.913  10.068 -0.6580 -0.6678  0.9110
  156SAPE   H2S17371   1.421   0.870  10.119  1.5028 -0.4749  0.7552
  156SAPE    C317372   1.484   1.364  10.043  0.4642  0.6932 -0.4260
  156SAPE    HX17373   1.553   1.350  10.129 -2.0580  0.0800  1.6277
  156SAPE    HY17374   1.444   1.466  10.063  0.6703  0.6229  0.4064
  156SAPE   O3117375   1.543   1.354   9.910  0.5505  1.2230 -0.6536
  156SAPE   C3117376   1.477   1.411   9.818 -0.4319 -0.1272  0.5035
  156SAPE   O3217377   1.396   1.501   9.827 -0.6214 -0.3124  0.4148
  156SAPE   C3217378   1.521   1.352   9.683 -0.3053 -0.0413  0.2734
  156SAPE   H2X17379   1.440   1.277   9.669  0.8002 -1.2349  0.1469
  156SAPE   H2Y17380   1.622   1.308   9.694 -0.4190 -0.6403 -0.9285
  156SAPE   C2317381   1.464   0.804   9.907 -0.0216 -0.0959 -0.6427
  156SAPE   H3R17382   1.370   0.816   9.849 -0.5245  0.0272  0.1885
  156SAPE   H3S17383   1.479   0.702   9.948  3.1513  0.9885  1.2642
  156SAPE   C2417384   1.588   0.823   9.808  0.5977 -0.2664  0.6056
  156SAPE   H4R17385   1.686   0.852   9.851  0.6445  1.4180 -0.5616
  156SAPE   H4S17386   1.555   0.908   9.745  1.1718 -0.1083  0.5172
  156SAPE   C2517387   1.603   0.697   9.725  0.3009  0.2517  0.8737
  156SAPE   H5R17388   1.609   0.609   9.791 -3.2279 -1.1156 -0.3831
  156SAPE   C2617389   1.614   0.682   9.586 -0.6623  0.2472 -0.3134
  156SAPE   H6R17390   1.623   0.580   9.545 -1.1518  0.4162 -0.8577
  156SAPE   C2717391   1.610   0.784   9.483 -0.1953 -0.2058  1.0657
  156SAPE   H7R17392   1.573   0.881   9.520 -0.3948  0.3272 -0.4888
  156SAPE   H7S17393   1.540   0.759   9.400  1.1496  2.3789 -1.0012
  156SAPE   C2817394   1.753   0.798   9.439  0.2619  0.0472 -0.0507
  156SAPE   H8R17395   1.830   0.785   9.517  1.2163  0.3824 -0.9139
  156SAPE   C2917396   1.799   0.841   9.321  0.1481  1.1683 -0.0796
  156SAPE   H9R17397   1.907   0.859   9.311  0.4729 -0.3683  0.4311
  156SAPE  C21017398   1.712   0.893   9.207 -0.1166  0.6500 -0.1442
  156SAPE  H10R17399   1.635   0.964   9.243 -1.2161  0.1386 -1.3820
  156SAPE  H10S17400   1.655   0.809   9.160  1.2122 -0.5265  0.2534
  156SAPE  C21117401   1.790   0.962   9.098  0.1096 -0.3387 -0.2084
  156SAPE  H11R17402   1.802   1.067   9.126  0.1793 -0.7918  1.5872
  156SAPE  C21217403   1.847   0.915   8.986 -0.4478 -0.0503  0.0170
  156SAPE  H12R17404   1.915   0.972   8.921  1.5264 -1.3579  0.8078
  156SAPE  C21317405   1.852   0.767   8.951  0.4301 -0.0155  0.1969
  156SAPE  H13R17406   1.855   0.710   9.046  0.7598 -0.4524 -0.0705
  156SAPE  H13S17407   1.949   0.744   8.901  1.3088  1.3398  1.2247
  156SAPE  C21417408   1.737   0.734   8.872  0.1178  0.6819  0.9075
  156SAPE  H14R17409   1.645   0.794   8.881 -1.4356 -1.5654  0.8439
  156SAPE  C21517410   1.734   0.656   8.761 -0.4537  0.6860  0.4719
  156SAPE  H15R17411   1.639   0.640   8.708  0.2489  1.4903 -1.0760
  156SAPE  C21617412   1.847   0.594   8.691 -0.2333  0.2487  0.4230
  156SAPE  H16R17413   1.932   0.665   8.678  0.0048 -0.2062 -0.6243
  156SAPE  H16S17414   1.807   0.561   8.593 -3.1051 -1.6606  2.1173
  156SAPE  C21717415   1.903   0.477   8.779 -0.1426  0.0292  1.2132
  156SAPE  H17R17416   1.916   0.507   8.885  0.6213 -3.1770  2.1509
  156SAPE  H17S17417   1.999   0.445   8.733 -1.6591 -0.3030 -1.9461
  156SAPE  C21817418   1.808   0.351   8.760  0.1253  0.5878  0.2471
  156SAPE  H18R17419   1.699   0.366   8.775 -0.1336 -1.2162  0.4072
  156SAPE  H18S17420   1.841   0.272   8.831  3.1584  0.9082 -0.6771
  156SAPE  C21917421   1.828   0.292   8.621 -0.1351 -0.4183  0.5678
  156SAPE  H19R17422   1.808   0.360   8.536  0.9613  1.7199  1.9073
  156SAPE  H19S17423   1.751   0.214   8.630 -2.7830  2.0110  0.4440
  156SAPE  C22017424   1.966   0.224   8.595 -0.3561  0.0320 -0.3915
  156SAPE  H20R17425   1.943   0.150   8.515 -3.0389  2.2804 -1.8924
  156SAPE  H20S17426   1.992   0.172   8.689 -1.3989  0.5178  0.1795
  156SAPE  H20T17427   2.041   0.302   8.570 -0.2740  0.0161 -0.1951
  156SAPE   C3317428   1.523   1.460   9.565 -0.1435  0.1192 -0.3704
  156SAPE   H3X17429   1.606   1.534   9.567 -1.3673  1.5542 -0.8797
  156SAPE   H3Y17430   1.424   1.511   9.563 -0.0891  0.2312 -0.2209
  156SAPE   C3417431   1.532   1.398   9.421 -0.6104 -0.1661 -0.0896
  156SAPE   H4X17432   1.432   1.368   9.384  0.2197 -0.5677 -2.1634
  156SAPE   H4Y17433   1.597   1.311   9.446 -1.1939 -0.0773  1.9791
  156SAPE   C3517434   1.602   1.484   9.318 -0.0200 -0.0043 -0.5112
  156SAPE   H5X17435   1.712   1.492   9.322  0.1045 -1.8568  0.5160
  156SAPE   H5Y17436   1.559   1.586   9.323  0.4066  0.1007  2.2503
  156SAPE   C3617437   1.573   1.438   9.174  0.5295 -1.0288 -0.0652
  156SAPE   H6X17438   1.463   1.436   9.156 -0.0033  0.6964  2.3960
  156SAPE   H6Y17439   1.608   1.334   9.159  1.0106 -0.6928 -1.4067
  156SAPE   C3717440   1.634   1.515   9.058  0.0969  0.2154  0.3724
  156SAPE   H7X17441   1.744   1.515   9.046 -0.0594  1.2979 -1.4008
  156SAPE   H7Y17442   1.586   1.615   9.063  0.3006  0.3198  0.2635
  156SAPE   C3817443   1.574   1.466   8.925  0.2565 -0.6404 -0.7319
  156SAPE   H8X17444   1.590   1.544   8.847  1.4740 -1.7338 -1.6155
  156SAPE   H8Y17445   1.464   1.460   8.939  0.2448 -0.2875 -0.6520
  156SAPE   C3917446   1.628   1.331   8.895  0.4247 -0.0261 -0.1369
  156SAPE   H9X17447   1.584   1.255   8.963 -1.2969  1.1300  0.1152
  156SAPE   H9Y17448   1.739   1.327   8.897  0.4921  0.4616 -1.8000
  156SAPE  C31017449   1.587   1.271   8.754 -0.5777 -0.1739 -0.0804
  156SAPE  H10X17450   1.634   1.333   8.674  0.8755 -1.2359 -0.0913
  156SAPE  H10Y17451   1.478   1.271   8.737 -0.6400 -1.7305  0.1699
  156SAPE  C31117452   1.635   1.122   8.748 -0.3160 -0.2890  0.6434
  156SAPE  H11X17453   1.603   1.074   8.843  0.5536 -1.4337  0.3838
  156SAPE  H11Y17454   1.746   1.119   8.743 -0.3534 -0.3875 -0.3452
  156SAPE  C31217455   1.586   1.043   8.627 -0.1105 -0.4430  0.6071
  156SAPE  H12X17456   1.476   1.044   8.607 -0.0742 -1.8524  0.2567
  156SAPE  H12Y17457   1.624   0.941   8.648  2.2988  0.3935  0.5923
  156SAPE  C31317458   1.648   1.104   8.505  0.5202 -0.1261 -0.8875
  156SAPE  H13X17459   1.755   1.077   8.502  0.6228  0.2812 -0.9659
  156SAPE  H13Y17460   1.628   1.213   8.496 -0.9521 -0.2193  0.7111
  156SAPE  C31417461   1.591   1.054   8.373 -0.2216 -0.0951  0.2035
  156SAPE  H14X17462   1.488   1.094   8.365  0.9546  3.0488 -0.6219
  156SAPE  H14Y17463   1.601   0.943   8.367  1.1112 -0.0298  0.8828
  156SAPE  C31517464   1.668   1.112   8.259  0.4706  0.5527  0.1781
  156SAPE  H15X17465   1.770   1.070   8.271  0.0574 -0.1983  1.2359
  156SAPE  H15Y17466   1.673   1.223   8.261 -1.3892  0.7478 -1.5643
  156SAPE  C31617467   1.607   1.052   8.131 -0.0752  0.1030  0.1571
  156SAPE  H16X17468   1.599   0.942   8.147  1.1896 -0.1901 -1.0245
  156SAPE  H16Y17469   1.678   1.079   8.050 -0.6630 -0.1322 -0.4458
  156SAPE  C31717470   1.476   1.116   8.086  0.5447 -0.1511 -0.5205
  156SAPE  H17X17471   1.477   1.223   8.116 -0.0156 -0.5681  1.1105
  156SAPE  H17Y17472   1.404   1.065   8.153  1.6020 -0.9356  0.0571
  156SAPE  C31817473   1.438   1.111   7.936 -0.2046  0.3726 -0.8164
  156SAPE  H18X17474   1.452   1.005   7.907  3.0250  0.3405  0.4551
  156SAPE  H18Y17475   1.514   1.157   7.870  1.1459  0.3996  0.6979
  156SAPE  H18Z17476   1.338   1.155   7.916 -0.7750 -1.2746 -1.8117
  157SAPE     N17477   0.774   1.068  10.488  0.1850 -0.0932 -0.1732
  157SAPE   HN117478   0.697   1.130  10.520 -1.1070 -0.7275 -1.9329
  157SAPE   HN217479   0.851   1.122  10.443  0.9637 -0.0736  1.0953
  157SAPE   HN317480   0.728   1.005  10.420 -3.3130  2.4134 -0.4032
  157SAPE   C1217481   0.821   0.976  10.596  0.0262  0.3090 -0.2811
  157SAPE  H12A17482   0.734   0.945  10.657  0.8406 -1.1496  0.1744
  157SAPE  H12B17483   0.896   1.022  10.664 -1.7144  0.2980  1.7381
  157SAPE   C1117484   0.894   0.852  10.544 -0.1408  0.3725 -0.1205
  157SAPE  H11A17485   0.986   0.866  10.484 -0.4535  0.8812 -0.4830
  157SAPE  H11B17486   0.819   0.797  10.484  0.4667  0.4546 -0.9664
  157SAPE     P17487   0.931   0.620  10.684 -0.0533 -0.3144  0.1214
  157SAPE   O1317488   1.067   0.587  10.727 -0.7549 -0.4377 -0.2495
  157SAPE   O1417489   0.814   0.564  10.760 -0.2156  0.1951  0.5406
  157SAPE   O1217490   0.917   0.775  10.669  0.0062 -0.0170 -0.0109
  157SAPE   O1117491   0.911   0.577  10.532  0.4597 -0.5483 -0.4616
  157SAPE    C117492   0.944   0.442  10.495 -0.4586 -0.0369  0.0335
  157SAPE    HA17493   1.047   0.421  10.532 -0.5765 -0.0226  0.3731
  157SAPE    HB17494   0.870   0.369  10.532 -1.6858  1.7276  1.2507
  157SAPE    C217495   0.944   0.428  10.339 -0.2036 -0.1016  0.5458
  157SAPE    HS17496   0.886   0.335  10.318  0.7800 -0.6697  0.2306
  157SAPE   O2117497   1.078   0.436  10.278 -0.1532  0.2458  0.0713
  157SAPE   C2117498   1.155   0.335  10.314  0.1114  0.4473  0.1375
  157SAPE   O2217499   1.119   0.236  10.382  0.0585 -0.4614  0.2415
  157SAPE   C2217500   1.292   0.351  10.248 -0.1924  0.7255  0.8663
  157SAPE   H2R17501   1.277   0.406  10.153 -0.5424  0.2057  0.6161
  157SAPE   H2S17502   1.347   0.424  10.311  0.0306  0.9172  0.4513
  157SAPE    C317503   0.859   0.535  10.265 -0.1263  0.6040 -0.2383
  157SAPE    HX17504   0.889   0.637  10.296  2.6029  0.0253 -0.6376
  157SAPE    HY17505   0.755   0.530  10.303  0.0589 -0.5389  0.1670
  157SAPE   O3117506   0.864   0.515  10.120  0.0430 -0.7588 -0.5170
  157SAPE   C3117507   0.799   0.419  10.065  0.0343 -0.2058 -0.3127
  157SAPE   O3217508   0.721   0.351  10.130 -0.5036  0.7258 -0.5874
  157SAPE   C3217509   0.838   0.407   9.916  0.7669  0.6931  0.1377
  157SAPE   H2X17510   0.950   0.408   9.917  0.8577 -1.4156  2.3754
  157SAPE   H2Y17511   0.804   0.494   9.857  0.1430  1.4258  1.5349
  157SAPE   C2317512   1.362   0.210  10.216 -0.0533 -0.7415 -0.1567
  157SAPE   H3R17513   1.339   0.142  10.300  0.5034 -0.0877  0.5394
  157SAPE   H3S17514   1.473   0.221  10.217 -0.1467  0.3591 -0.3550
  157SAPE   C2417515   1.325   0.147  10.077  0.2844  0.5772  0.0598
  157SAPE   H4R17516   1.399   0.068  10.055  0.3538  0.8561 -0.7330
  157SAPE   H4S17517   1.335   0.229  10.003 -0.6282 -0.1815 -0.9346
  157SAPE   C2517518   1.192   0.084  10.076  0.3641 -0.1094 -0.2923
  157SAPE   H5R17519   1.147   0.054  10.171 -1.6974  0.0516 -1.1728
  157SAPE   C2617520   1.112   0.056   9.973  0.7935 -0.3964  1.0662
  157SAPE   H6R17521   1.014   0.008   9.986  0.9496 -0.5581  1.6658
  157SAPE   C2717522   1.147   0.082   9.824  0.3961 -0.0902 -0.4141
  157SAPE   H7R17523   1.225   0.159   9.808  0.1277  0.9078  2.4309
  157SAPE   H7S17524   1.052   0.120   9.781 -0.2065  2.4262  2.7398
  157SAPE   C2817525   1.187  -0.049   9.754 -0.5483  0.1429  0.2650
  157SAPE   H8R17526   1.143  -0.146   9.783 -0.3083 -0.0865 -0.1440
  157SAPE   C2917527   1.283  -0.065   9.658  0.2699 -0.4089 -0.0319
  157SAPE   H9R17528   1.308  -0.164   9.618 -0.5933 -0.2067 -1.0965
  157SAPE  C21017529   1.375   0.042   9.598 -0.2148  0.3843 -0.1302
  157SAPE  H10R17530   1.475  -0.006   9.588 -0.5980 -0.5496  0.3647
  157SAPE  H10S17531   1.386   0.123   9.673  0.7338 -0.5292  0.7413
  157SAPE  C21117532   1.331   0.093   9.464 -0.3002  0.2094 -0.0623
  157SAPE  H11R17533   1.335   0.021   9.382  1.7956  0.6249 -0.3894
  157SAPE  C21217534   1.318   0.225   9.437 -0.0109 -0.0106 -0.3280
  157SAPE  H12R17535   1.285   0.263   9.340  0.1764  4.0526  1.0345
  157SAPE  C21317536   1.327   0.340   9.534 -0.1980 -0.3447 -0.0499
  157SAPE  H13R17537   1.424   0.343   9.589 -0.0246  2.1885 -0.3880
  157SAPE  H13S17538   1.247   0.324   9.610 -1.8233 -3.4822 -2.1894
  157SAPE  C21417539   1.306   0.478   9.471 -0.3319  0.4252 -0.3967
  157SAPE  H14R17540   1.406   0.520   9.454 -0.0069 -0.1571  0.0552
  157SAPE  C21517541   1.193   0.542   9.442  0.3293  0.1729  0.6569
  157SAPE  H15R17542   1.204   0.634   9.384 -1.2200 -0.0423 -0.0247
  157SAPE  C21617543   1.055   0.488   9.476 -0.4787 -0.8285 -0.1648
  157SAPE  H16R17544   0.999   0.554   9.546  1.1866 -0.4730  0.8919
  157SAPE  H16S17545   1.049   0.382   9.510  1.6573 -0.2074  2.5294
  157SAPE  C21717546   0.976   0.505   9.345  0.9141 -0.3945 -0.0082
  157SAPE  H17R17547   0.884   0.442   9.350  1.3562 -0.9674  1.2904
  157SAPE  H17S17548   1.036   0.476   9.256  1.7908  2.4315 -0.4539
  157SAPE  C21817549   0.911   0.646   9.322 -0.6985 -0.2968 -1.0529
  157SAPE  H18R17550   0.984   0.729   9.316 -1.2165  0.4086  1.2531
  157SAPE  H18S17551   0.850   0.666   9.413 -1.9404  0.3863 -2.0001
  157SAPE  C21917552   0.807   0.650   9.209  0.8889 -0.1800  0.3900
  157SAPE  H19R17553   0.741   0.739   9.218 -1.0995 -1.4558 -0.7438
  157SAPE  H19S17554   0.741   0.561   9.204 -0.1432  0.5620  0.3925
  157SAPE  C22017555   0.863   0.669   9.070 -0.3923 -0.2132  0.1308
  157SAPE  H20R17556   0.934   0.587   9.048  0.5809 -0.1236  2.6058
  157SAPE  H20S17557   0.922   0.763   9.065  0.7524 -0.8437  1.2851
  157SAPE  H20T17558   0.775   0.679   9.003 -0.1475 -0.6994 -0.2626
  157SAPE   C3317559   0.785   0.279   9.856  0.0967  0.3538  0.5590
  157SAPE   H3X17560   0.676   0.264   9.870 -0.0980  0.1771 -0.9584
  157SAPE   H3Y17561   0.825   0.191   9.912 -2.0725 -0.9235  0.2424
  157SAPE   C3417562   0.830   0.277   9.704  0.2301 -0.1358 -0.0409
  157SAPE   H4X17563   0.936   0.287   9.674 -0.1447 -1.5558 -2.1331
  157SAPE   H4Y17564   0.774   0.359   9.654  1.0288 -0.8424 -2.2490
  157SAPE   C3517565   0.792   0.147   9.631  0.4344 -0.2550  0.1276
  157SAPE   H5X17566   0.681   0.144   9.641  0.1551  0.2179 -2.1245
  157SAPE   H5Y17567   0.817   0.053   9.683 -3.3961 -1.5360 -0.0581
  157SAPE   C3617568   0.842   0.123   9.487 -0.6180  0.8238 -0.2818
  157SAPE   H6X17569   0.836   0.217   9.427  1.9616  1.6855  0.6637
  157SAPE   H6Y17570   0.769   0.049   9.448  1.2179 -1.5565  0.5511
  157SAPE   C3717571   0.983   0.077   9.471 -0.1880 -0.3542  0.6221
  157SAPE   H7X17572   0.983  -0.010   9.541 -1.6026 -1.2946 -0.4983
  157SAPE   H7Y17573   1.064   0.138   9.517 -0.6085 -0.9651  2.2565
  157SAPE   C3817574   1.022   0.043   9.332  0.3295  0.6110 -0.1356
  157SAPE   H8X17575   0.937  -0.022   9.301 -0.1090 -0.5170  3.0127
  157SAPE   H8Y17576   1.109  -0.025   9.326 -0.2026 -0.1968  0.8856
  157SAPE   C3917577   1.032   0.160   9.232 -0.1023  0.1867  0.0748
  157SAPE   H9X17578   1.114   0.231   9.254  1.3175 -1.7004  1.1756
  157SAPE   H9Y17579   0.941   0.225   9.229 -0.3727 -0.0525  2.0072
  157SAPE  C31017580   1.046   0.111   9.091  0.5913  0.0272  0.4119
  157SAPE  H10X17581   1.027   0.196   9.021  0.4870 -0.2210  0.1369
  157SAPE  H10Y17582   0.972   0.034   9.060 -0.2842  1.0826 -0.2295
  157SAPE  C31117583   1.191   0.065   9.065 -0.1706  0.3711 -0.2637
  157SAPE  H11X17584   1.204  -0.011   9.146 -2.3806  1.2728  1.0247
  157SAPE  H11Y17585   1.261   0.147   9.092  1.9544 -2.1338  2.5914
  157SAPE  C31217586   1.208   0.004   8.922  0.2761 -0.8803  0.1710
  157SAPE  H12X17587   1.170   0.071   8.842  0.6114 -0.2808  0.5134
  157SAPE  H12Y17588   1.153  -0.090   8.899 -0.4541 -0.3399 -0.3338
  157SAPE  C31317589   1.358  -0.022   8.900  0.3952 -0.0150 -0.7337
  157SAPE  H13X17590   1.394  -0.103   8.967  0.7432 -1.0916 -2.1612
  157SAPE  H13Y17591   1.421   0.064   8.928 -0.3116 -0.1477  1.4562
  157SAPE  C31417592   1.401  -0.054   8.763  0.7276  0.2887 -0.0126
  157SAPE  H14X17593   1.351   0.018   8.696 -1.0978 -0.0541  0.9072
  157SAPE  H14Y17594   1.343  -0.147   8.744 -2.1210  2.0861 -0.6145
  157SAPE  C31517595   1.555  -0.071   8.750  0.1297  0.1996  0.4654
  157SAPE  H15X17596   1.572  -0.158   8.816 -1.6234  1.0952  2.1850
  157SAPE  H15Y17597   1.606   0.018   8.794 -1.6908  1.6231 -0.1886
  157SAPE  C31617598   1.589  -0.081   8.598 -0.1089  0.4140 -0.2469
  157SAPE  H16X17599   1.587   0.016   8.544 -1.1306  0.9132  0.6599
  157SAPE  H16Y17600   1.513  -0.148   8.553  1.6785 -1.9988  0.1186
  157SAPE  C31717601   1.727  -0.143   8.569 -0.4031 -0.4037  0.5380
  157SAPE  H17X17602   1.742  -0.241   8.620 -0.3144 -1.0987 -0.7702
  157SAPE  H17Y17603   1.813  -0.078   8.597  1.4190 -1.9365 -1.1076
  157SAPE  C31817604   1.736  -0.174   8.419  0.0568 -0.1663 -0.5418
  157SAPE  H18X17605   1.843  -0.190   8.392  0.2904  0.2299  0.1037
  157SAPE  H18Y17606   1.689  -0.094   8.359 -1.0192  0.6065  1.2574
  157SAPE  H18Z17607   1.684  -0.269   8.395  1.1670 -1.4396  1.6425
  158SAPE     N17608   5.740   0.260  10.738  0.3837 -0.0106  0.0661
  158SAPE   HN117609   5.778   0.324  10.811  1.7051  0.6190 -1.1290
  158SAPE   HN217610   5.696   0.314  10.660  0.0150  1.9890  1.5835
  158SAPE   HN317611   5.665   0.196  10.769 -0.6350  0.8567 -0.5383
  158SAPE   C1217612   5.842   0.179  10.663 -1.0740  0.5027  0.0440
  158SAPE  H12A17613   5.797   0.103  10.595  2.7457 -1.4195 -0.6589
  158SAPE  H12B17614   5.898   0.128  10.745 -0.6705  1.4356  0.3566
  158SAPE   C1117615   5.932   0.267  10.584  1.1053  0.3227 -0.4526
  158SAPE  H11A17616   5.879   0.320  10.502 -1.7913 -0.3218  0.8562
  158SAPE  H11B17617   6.003   0.203  10.527 -0.3887 -0.1382 -1.8789
  158SAPE     P17618   6.122   0.427  10.671 -0.0488  0.0267 -0.5245
  158SAPE   O1317619   6.128   0.538  10.772  0.0884  0.5056 -0.5226
  158SAPE   O1417620   6.209   0.310  10.696 -0.5068 -0.0798 -0.1143
  158SAPE   O1217621   5.979   0.375  10.663  0.4771  0.5091 -0.2115
  158SAPE   O1117622   6.142   0.487  10.523  0.0116  0.8241 -0.0449
  158SAPE    C117623   6.041   0.563  10.463 -0.0019 -0.8216  0.5753
  158SAPE    HA17624   5.940   0.516  10.459  0.4694 -1.7867 -1.2416
  158SAPE    HB17625   6.040   0.660  10.516  3.2291  0.6142 -1.6486
  158SAPE    C217626   6.050   0.600  10.308 -0.5885  0.4211  0.4461
  158SAPE    HS17627   5.957   0.640  10.261 -0.6824  0.5892  0.7753
  158SAPE   O2117628   6.097   0.492  10.230  0.1758  0.2103 -0.0716
  158SAPE   C2117629   6.010   0.398  10.217 -0.1873 -0.2165  0.6543
  158SAPE   O2217630   5.895   0.399  10.255 -0.0551  0.3532 -0.1552
  158SAPE   C2217631   6.063   0.290  10.120 -0.1587  0.4794  0.2766
  158SAPE   H2R17632   6.014   0.199  10.159  0.2258  0.2816  0.3032
  158SAPE   H2S17633   6.049   0.314  10.013  1.4984  0.8839  0.1190
  158SAPE    C317634   6.164   0.706  10.295  0.5745  0.1950 -0.1429
  158SAPE    HX17635   6.236   0.687  10.378 -0.7536  0.1717  1.0273
  158SAPE    HY17636   6.124   0.807  10.315  0.7667  0.2744 -0.1518
  158SAPE   O3117637   6.229   0.698  10.164 -0.0029  0.2164 -0.2266
  158SAPE   C3117638   6.357   0.674  10.169 -0.0790 -0.6169  0.4692
  158SAPE   O3217639   6.440   0.690  10.259  0.2019  0.0891  0.2864
  158SAPE   C3217640   6.393   0.609  10.029 -0.4692 -0.2570  0.6318
  158SAPE   H2X17641   6.451   0.515  10.039  0.8574  0.2818 -1.3894
  158SAPE   H2Y17642   6.450   0.679   9.964 -0.8362 -1.0297 -0.5577
  158SAPE   C2317643   6.214   0.259  10.150  0.5292 -0.3143  0.0700
  158SAPE   H3R17644   6.231   0.257  10.259  0.0949 -2.3603  0.1233
  158SAPE   H3S17645   6.274   0.342  10.104 -0.5254 -0.2983 -1.3499
  158SAPE   C2417646   6.257   0.123  10.092  0.3590 -0.3089  0.6774
  158SAPE   H4R17647   6.177   0.049  10.112  1.9079 -1.9990  0.8610
  158SAPE   H4S17648   6.348   0.093  10.147  0.9048  1.1107  0.5991
  158SAPE   C2517649   6.306   0.140   9.948  0.8755 -0.1813  0.0814
  158SAPE   H5R17650   6.404   0.189   9.938  0.6157 -0.0972 -2.6702
  158SAPE   C2617651   6.243   0.100   9.839  0.3579 -0.7454  0.8342
  158SAPE   H6R17652   6.281   0.133   9.741  0.9239 -2.2774  0.5070
  158SAPE   C2717653   6.116   0.017   9.824  0.4210  0.6071 -0.3759
  158SAPE   H7R17654   6.047   0.091   9.779  0.3374  0.4534 -0.5029
  158SAPE   H7S17655   6.074  -0.005   9.925  2.3431 -1.2311  0.0971
  158SAPE   C2817656   6.138  -0.116   9.755  0.7365 -0.2234  0.9663
  158SAPE   H8R17657   6.237  -0.161   9.770  1.5849  0.6394 -1.5282
  158SAPE   C2917658   6.053  -0.181   9.673  0.6668  0.2286  0.4949
  158SAPE   H9R17659   6.080  -0.281   9.633 -1.3485  0.0842 -0.6689
  158SAPE  C21017660   5.918  -0.137   9.629  0.3793  0.4989  0.1802
  158SAPE  H10R17661   5.868  -0.057   9.689  0.0423  0.6830 -0.3369
  158SAPE  H10S17662   5.855  -0.223   9.657  0.7123  0.1315 -0.1875
  158SAPE  C21117663   5.911  -0.100   9.487 -0.5589 -0.4706  0.4971
  158SAPE  H11R17664   5.913   0.008   9.467  0.4598 -0.8407 -1.6446
  158SAPE  C21217665   5.906  -0.176   9.378 -0.1624  0.2625  0.1542
  158SAPE  H12R17666   5.917  -0.128   9.280  0.8756  0.9789  0.6003
  158SAPE  C21317667   5.910  -0.330   9.371 -0.3230  0.2608  0.9887
  158SAPE  H13R17668   5.814  -0.377   9.340 -0.0023  1.4926 -2.1817
  158SAPE  H13S17669   5.921  -0.359   9.478 -1.6249 -0.2242  1.0133
  158SAPE  C21417670   6.026  -0.392   9.289 -0.2941  0.6462 -0.0969
  158SAPE  H14R17671   6.091  -0.456   9.351 -0.8042  0.9883  0.8108
  158SAPE  C21517672   6.053  -0.387   9.155 -0.2096 -0.5436  0.1969
  158SAPE  H15R17673   6.145  -0.440   9.124 -0.6607 -1.9138  1.0983
  158SAPE  C21617674   5.966  -0.333   9.042  0.1291 -0.5686  0.1854
  158SAPE  H16R17675   6.014  -0.262   8.972 -1.3509 -0.1806 -0.4669
  158SAPE  H16S17676   5.895  -0.261   9.089  0.0695  0.5923 -1.6126
  158SAPE  C21717677   5.884  -0.436   8.959 -0.2935 -0.5631  0.9929
  158SAPE  H17R17678   5.952  -0.507   8.908 -2.2529 -1.7621 -0.0227
  158SAPE  H17S17679   5.829  -0.378   8.882  1.3697 -0.1038  0.0884
  158SAPE  C21817680   5.786  -0.519   9.053 -0.0192  0.9753  0.0471
  158SAPE  H18R17681   5.711  -0.453   9.102 -0.5627 -0.3446  1.0543
  158SAPE  H18S17682   5.844  -0.566   9.136  1.3585  1.8042 -0.4196
  158SAPE  C21917683   5.710  -0.630   8.968 -0.0110  0.5023  0.2784
  158SAPE  H19R17684   5.639  -0.576   8.902 -0.7115 -1.1517 -0.3863
  158SAPE  H19S17685   5.656  -0.688   9.046  1.5972 -0.5971  0.6135
  158SAPE  C22017686   5.794  -0.733   8.883  0.0117  0.1613  0.3872
  158SAPE  H20R17687   5.858  -0.797   8.948 -0.5243  1.1493  1.9541
  158SAPE  H20S17688   5.850  -0.677   8.805  4.0570 -1.9160  1.5423
  158SAPE  H20T17689   5.712  -0.790   8.835 -1.0676  2.3441 -0.5194
  158SAPE   C3317690   6.276   0.579   9.940  0.0451 -0.4416 -0.0369
  158SAPE   H3X17691   6.207   0.665   9.925  1.4729  0.5409 -1.3372
  158SAPE   H3Y17692   6.225   0.500   9.999 -0.2647  0.1622  0.5223
  158SAPE   C3417693   6.318   0.520   9.811 -0.5603 -0.4163 -0.0976
  158SAPE   H4X17694   6.379   0.428   9.827 -0.2065 -0.7517 -2.8711
  158SAPE   H4Y17695   6.383   0.589   9.753 -1.8448  0.4685 -0.5234
  158SAPE   C3517696   6.200   0.462   9.726 -0.0001  0.2462 -0.3601
  158SAPE   H5X17697   6.126   0.543   9.712 -0.9439 -0.1565  1.8602
  158SAPE   H5Y17698   6.154   0.388   9.796  1.1876 -1.1023 -0.9418
  158SAPE   C3617699   6.253   0.403   9.597 -0.4943  0.0207 -0.5471
  158SAPE   H6X17700   6.319   0.319   9.625 -0.2530  1.0751  2.3257
  158SAPE   H6Y17701   6.311   0.473   9.533 -0.9420  0.4368 -0.5089
  158SAPE   C3717702   6.133   0.339   9.522  0.1934 -0.4082  0.8515
  158SAPE   H7X17703   6.055   0.412   9.491 -0.0951 -0.2042  1.9946
  158SAPE   H7Y17704   6.076   0.263   9.580 -0.6687 -0.5739 -0.1857
  158SAPE   C3817705   6.196   0.271   9.392  0.4423 -0.8762  0.4655
  158SAPE   H8X17706   6.293   0.229   9.426  1.1772 -0.4799 -1.0228
  158SAPE   H8Y17707   6.214   0.347   9.312  0.7735 -0.3077  1.0701
  158SAPE   C3917708   6.102   0.162   9.336 -0.1019  0.3501  0.0468
  158SAPE   H9X17709   5.999   0.190   9.309 -0.8989 -0.4586  2.0311
  158SAPE   H9Y17710   6.083   0.091   9.420  0.4882  0.1297  0.0002
  158SAPE  C31017711   6.156   0.089   9.209  0.1358 -0.5451 -0.2365
  158SAPE  H10X17712   6.083   0.011   9.181 -0.8355  0.5008 -0.7008
  158SAPE  H10Y17713   6.250   0.036   9.234 -1.0955 -2.5063  0.4410
  158SAPE  C31117714   6.167   0.173   9.085 -0.4581  0.4379  0.0961
  158SAPE  H11X17715   6.225   0.264   9.112 -0.7697  0.5663  0.3294
  158SAPE  H11Y17716   6.062   0.204   9.067 -0.6175 -0.0126  0.2204
  158SAPE  C31217717   6.235   0.095   8.975 -0.2629  0.5682  0.4451
  158SAPE  H12X17718   6.190  -0.006   8.962 -1.4014  1.1867 -0.6984
  158SAPE  H12Y17719   6.345   0.095   8.990 -0.4920  1.6262  2.4646
  158SAPE  C31317720   6.206   0.182   8.852  0.4311  0.8421 -0.3940
  158SAPE  H13X17721   6.268   0.274   8.857  0.2637  0.9372 -0.0095
  158SAPE  H13Y17722   6.101   0.218   8.848 -0.7421 -1.8156  2.4057
  158SAPE  C31417723   6.249   0.095   8.731  0.6170  0.1046  0.1609
  158SAPE  H14X17724   6.166   0.026   8.703  0.5430 -0.1959  1.0730
  158SAPE  H14Y17725   6.331   0.026   8.760  0.8628 -0.4927 -1.7882
  158SAPE  C31517726   6.289   0.188   8.616 -0.1289 -0.1094  0.1865
  158SAPE  H15X17727   6.368   0.263   8.638  0.1501  0.2315 -1.7678
  158SAPE  H15Y17728   6.202   0.238   8.569 -0.0678 -0.0972  0.0841
  158SAPE  C31617729   6.349   0.115   8.492  0.6047 -0.3073  0.0382
  158SAPE  H16X17730   6.269   0.051   8.448 -0.4928  0.7914  0.3890
  158SAPE  H16Y17731   6.427   0.044   8.526  0.9720  0.6164  1.1677
  158SAPE  C31717732   6.410   0.206   8.381  0.2717  0.1436 -0.3106
  158SAPE  H17X17733   6.497   0.258   8.426  0.0240 -0.3028  0.7243
  158SAPE  H17Y17734   6.344   0.286   8.342 -0.9936 -1.5185 -1.7686
  158SAPE  C31817735   6.455   0.123   8.258  0.5843 -0.7487 -0.6863
  158SAPE  H18X17736   6.517   0.037   8.291 -0.0305 -1.5632 -1.5758
  158SAPE  H18Y17737   6.516   0.187   8.191  2.8959  1.9900  3.5798
  158SAPE  H18Z17738   6.367   0.073   8.211  0.2112 -2.1516  1.3776
  159SAPE     N17739   0.415   3.869   6.414  0.2283 -0.1476  0.5993
  159SAPE   HN117740   0.438   3.965   6.384 -1.0035  0.1615  0.5919
  159SAPE   HN217741   0.409   3.819   6.323  0.3874  0.2496  0.3681
  159SAPE   HN317742   0.321   3.867   6.460 -1.6487 -1.6334 -2.9251
  159SAPE   C1217743   0.519   3.825   6.516  0.3590  0.2310 -0.1919
  159SAPE  H12A17744   0.493   3.876   6.611 -1.5044 -0.3968 -0.3249
  159SAPE  H12B17745   0.625   3.847   6.490  0.5368 -1.4996 -1.0327
  159SAPE   C1117746   0.530   3.671   6.533  0.4271 -0.4303  0.5488
  159SAPE  H11A17747   0.436   3.633   6.579  1.4916 -0.4558  2.8351
  159SAPE  H11B17748   0.614   3.648   6.602 -0.1362  2.0964  2.1891
  159SAPE     P17749   0.554   3.452   6.381  0.3438 -0.3417  0.6431
  159SAPE   O1317750   0.432   3.433   6.300  0.4035 -0.0670  0.0229
  159SAPE   O1417751   0.677   3.400   6.320 -0.0953  0.0435  0.0335
  159SAPE   O1217752   0.556   3.611   6.408 -0.2018  0.7150  0.2937
  159SAPE   O1117753   0.524   3.398   6.523  0.4720  0.8918  0.2184
  159SAPE    C117754   0.640   3.371   6.604 -0.3640  0.2228  1.4341
  159SAPE    HA17755   0.698   3.294   6.549 -0.7204  1.1242 -0.2511
  159SAPE    HB17756   0.712   3.455   6.608  2.5788 -1.8299 -2.0677
  159SAPE    C217757   0.609   3.336   6.752  0.7255  0.7031 -0.2745
  159SAPE    HS17758   0.545   3.247   6.737 -0.1673  1.4608 -0.9896
  159SAPE   O2117759   0.557   3.458   6.815 -0.1594  0.5835 -0.1451
  159SAPE   C2117760   0.458   3.433   6.906  0.0200 -1.0874  0.8176
  159SAPE   O2217761   0.431   3.325   6.951  0.5506  0.0234 -0.3813
  159SAPE   C2217762   0.391   3.563   6.948 -0.4820  0.0232  0.6870
  159SAPE   H2R17763   0.467   3.641   6.973 -1.1672  0.9867 -0.1230
  159SAPE   H2S17764   0.333   3.594   6.858 -0.6978  0.5200  0.9912
  159SAPE    C317765   0.734   3.288   6.819 -0.3023 -0.1950  0.0987
  159SAPE    HX17766   0.805   3.372   6.833  1.4838 -1.7949  1.0215
  159SAPE    HY17767   0.793   3.221   6.753 -2.7665 -0.3933 -2.0597
  159SAPE   O3117768   0.699   3.238   6.950  0.3127 -0.1043 -0.0932
  159SAPE   C3117769   0.687   3.107   6.953 -0.0016  0.0519  0.3292
  159SAPE   O3217770   0.714   3.031   6.859  0.3945 -0.0518  0.0843
  159SAPE   C3217771   0.625   3.072   7.087 -0.0534  0.1553 -0.2903
  159SAPE   H2X17772   0.559   2.983   7.083  0.5055 -0.2865  0.1208
  159SAPE   H2Y17773   0.556   3.149   7.126 -1.2450 -1.3384  0.6712
  159SAPE   C2317774   0.297   3.549   7.065  0.3172 -0.0400 -0.8554
  159SAPE   H3R17775   0.213   3.480   7.046  1.3407 -1.4934 -0.2933
  159SAPE   H3S17776   0.251   3.649   7.085  1.2797  0.6422 -1.9338
  159SAPE   C2417777   0.368   3.506   7.197  0.0845  0.4529 -0.4832
  159SAPE   H4R17778   0.445   3.577   7.235  1.2337 -0.9782 -0.0744
  159SAPE   H4S17779   0.425   3.412   7.183  2.0818  1.1302  2.2976
  159SAPE   C2517780   0.257   3.477   7.294 -0.4605 -0.4524 -0.6757
  159SAPE   H5R17781   0.208   3.383   7.265  0.9921 -1.1415 -0.9913
  159SAPE   C2617782   0.220   3.541   7.411 -0.9196 -1.0290 -0.3263
  159SAPE   H6R17783   0.129   3.504   7.462  0.7034 -1.0271  2.7675
  159SAPE   C2717784   0.280   3.672   7.459 -0.4340 -0.0759 -0.3430
  159SAPE   H7R17785   0.196   3.745   7.465 -0.2490  0.5326 -3.5936
  159SAPE   H7S17786   0.348   3.720   7.386 -0.1214  2.4290  1.4289
  159SAPE   C2817787   0.349   3.645   7.584 -0.4422  0.4165  0.5006
  159SAPE   H8R17788   0.413   3.556   7.595  0.8549  1.1976 -0.3940
  159SAPE   C2917789   0.351   3.731   7.690  0.1009  0.7717  0.2375
  159SAPE   H9R17790   0.404   3.702   7.783  1.6010 -0.5707 -0.9767
  159SAPE  C21017791   0.288   3.864   7.700  0.5046  0.2831 -0.3070
  159SAPE  H10R17792   0.230   3.867   7.795  0.8833 -0.4707 -0.0354
  159SAPE  H10S17793   0.206   3.879   7.627  1.4312  1.5219 -1.1246
  159SAPE  C21117794   0.391   3.973   7.689 -0.4822 -0.2575  0.7802
  159SAPE  H11R17795   0.449   3.977   7.596  0.8529 -1.0499  1.5478
  159SAPE  C21217796   0.410   4.070   7.780  0.0138 -0.6794 -0.1647
  159SAPE  H12R17797   0.489   4.145   7.763 -0.4195 -0.1188  0.2749
  159SAPE  C21317798   0.349   4.075   7.912 -0.0705  0.4677 -0.3618
  159SAPE  H13R17799   0.315   3.976   7.950  0.2587  0.0885 -1.0510
  159SAPE  H13S17800   0.245   4.113   7.904 -0.0976  0.1181 -1.9859
  159SAPE  C21417801   0.429   4.141   8.020 -0.1590 -0.1456  0.0318
  159SAPE  H14R17802   0.511   4.082   8.062  0.9827  1.4063  0.0641
  159SAPE  C21517803   0.389   4.251   8.085  0.4034  0.0094  0.8795
  159SAPE  H15R17804   0.458   4.284   8.164  0.7571  0.4356  0.3962
  159SAPE  C21617805   0.266   4.334   8.070 -0.3192 -0.1825 -0.2999
  159SAPE  H16R17806   0.200   4.310   7.984 -2.5519 -0.0982  1.3057
  159SAPE  H16S17807   0.282   4.444   8.066  1.5204 -0.3873  0.7208
  159SAPE  C21717808   0.191   4.315   8.202  0.6660  0.4901 -0.4181
  159SAPE  H17R17809   0.248   4.367   8.282 -2.1573  2.0682  0.6974
  159SAPE  H17S17810   0.181   4.207   8.222 -2.2825  0.6432 -0.6747
  159SAPE  C21817811   0.040   4.359   8.195  0.3865 -0.3957 -0.4602
  159SAPE  H18R17812  -0.017   4.309   8.113 -0.0845  0.1202 -0.4532
  159SAPE  H18S17813   0.047   4.469   8.181  0.5408 -0.5563 -1.8039
  159SAPE  C21917814  -0.025   4.334   8.331  0.4774  0.3416 -0.2239
  159SAPE  H19R17815   0.022   4.410   8.398  1.3472  0.9434 -1.4848
  159SAPE  H19S17816  -0.009   4.233   8.375 -3.7839 -0.5260 -0.2936
  159SAPE  C22017817  -0.181   4.343   8.328  0.3199 -0.3661 -0.4878
  159SAPE  H20R17818  -0.213   4.415   8.406  0.0452 -0.6866 -0.3006
  159SAPE  H20S17819  -0.221   4.242   8.351  0.9751  0.1380  3.5505
  159SAPE  H20T17820  -0.233   4.369   8.233 -1.2840 -0.0477  0.4505
  159SAPE   C3317821   0.735   3.043   7.193  0.0788 -0.4211 -0.3275
  159SAPE   H3X17822   0.782   3.137   7.229  0.0985 -1.5884  3.0052
  159SAPE   H3Y17823   0.818   2.984   7.148 -0.8212 -2.2284  0.2675
  159SAPE   C3417824   0.687   2.970   7.318  0.1357  0.6804 -0.4869
  159SAPE   H4X17825   0.697   2.861   7.298 -0.2213  0.7421 -1.0351
  159SAPE   H4Y17826   0.576   2.971   7.324 -0.0706 -0.6863 -2.9650
  159SAPE   C3517827   0.753   3.022   7.455  0.8456 -0.2987 -0.3074
  159SAPE   H5X17828   0.714   3.125   7.474 -0.1145 -0.7061 -0.0100
  159SAPE   H5Y17829   0.860   3.035   7.428  1.2643 -1.0339  0.8960
  159SAPE   C3617830   0.722   2.946   7.577 -0.0007  0.5020 -0.8975
  159SAPE   H6X17831   0.732   2.838   7.552  0.6419  0.2438  0.3837
  159SAPE   H6Y17832   0.618   2.950   7.616  0.9207  0.9804  1.7342
  159SAPE   C3717833   0.817   2.994   7.685  0.1906 -0.2598 -0.0183
  159SAPE   H7X17834   0.821   3.105   7.691  0.2334 -0.3461  2.2089
  159SAPE   H7Y17835   0.919   2.974   7.647 -0.6934 -2.8449 -1.2878
  159SAPE   C3817836   0.798   2.930   7.819 -0.0440  0.1148  0.1791
  159SAPE   H8X17837   0.822   2.822   7.825 -1.3555 -0.1438  1.2233
  159SAPE   H8Y17838   0.688   2.942   7.831 -0.2628 -0.6867 -0.8300
  159SAPE   C3917839   0.858   3.008   7.933 -0.5529 -0.0840  0.1642
  159SAPE   H9X17840   0.861   3.116   7.905 -0.4230 -0.3710 -0.9782
  159SAPE   H9Y17841   0.963   2.977   7.948 -0.3020 -0.6824 -2.3797
  159SAPE  C31017842   0.781   3.010   8.062  0.8553 -0.2904  0.7056
  159SAPE  H10X17843   0.676   3.039   8.044  1.3010  0.6486 -0.5257
  159SAPE  H10Y17844   0.826   3.079   8.137  2.2259  0.4318 -0.7058
  159SAPE  C31117845   0.777   2.872   8.137  0.7345 -0.4600  0.5266
  159SAPE  H11X17846   0.885   2.848   8.150  1.0578  1.6600  2.4885
  159SAPE  H11Y17847   0.735   2.797   8.067  0.4409  0.5387 -0.3848
  159SAPE  C31217848   0.707   2.887   8.273  0.2296  0.4015  0.0927
  159SAPE  H12X17849   0.608   2.937   8.269 -0.0984 -0.2741 -0.4843
  159SAPE  H12Y17850   0.767   2.961   8.331 -1.4524 -0.1564  2.6875
  159SAPE  C31317851   0.687   2.753   8.350  0.0643  0.3314 -0.2454
  159SAPE  H13X17852   0.790   2.722   8.376  0.3174  0.0336 -1.5272
  159SAPE  H13Y17853   0.632   2.675   8.293  1.4897  0.5443 -2.0055
  159SAPE  C31417854   0.615   2.781   8.488  0.0186  0.1808  0.1620
  159SAPE  H14X17855   0.617   2.687   8.547  0.7394  0.0587 -0.0574
  159SAPE  H14Y17856   0.515   2.824   8.467  0.0743  0.9351  1.3308
  159SAPE  C31517857   0.675   2.899   8.571  0.5147  0.0153  0.4411
  159SAPE  H15X17858   0.610   2.903   8.662 -0.6245 -3.3744 -0.0762
  159SAPE  H15Y17859   0.658   2.992   8.513  0.5067 -1.0873 -1.3750
  159SAPE  C31617860   0.820   2.893   8.616  0.7904  1.2365 -0.2783
  159SAPE  H16X17861   0.881   2.936   8.534  0.6524  1.4444 -0.2749
  159SAPE  H16Y17862   0.846   2.787   8.632 -2.1896  0.0064 -2.6196
  159SAPE  C31717863   0.840   2.990   8.734 -1.2661  0.2491 -0.6446
  159SAPE  H17X17864   0.779   2.949   8.817  0.8415  0.7026  1.2332
  159SAPE  H17Y17865   0.807   3.092   8.704  0.8786  1.3958  0.6132
  159SAPE  C31817866   0.990   3.005   8.772 -0.0565 -0.5944  0.0683
  159SAPE  H18X17867   1.030   2.908   8.806 -1.3081 -1.0495  0.3234
  159SAPE  H18Y17868   0.994   3.084   8.850  2.6733 -0.2633 -0.3070
  159SAPE  H18Z17869   1.039   3.046   8.681 -1.8050  0.7538 -0.3489
  160SAPE     N17870   0.622   5.050   6.544 -0.0976 -0.2233  0.1304
  160SAPE   HN117871   0.640   5.127   6.476  0.4733 -0.3708  0.1062
  160SAPE   HN217872   0.682   5.059   6.629  1.9734 -1.8645 -1.0857
  160SAPE   HN317873   0.661   4.968   6.494 -0.3062  0.4220 -1.1394
  160SAPE   C1217874   0.479   5.045   6.572 -0.0347  0.6996 -0.2146
  160SAPE  H12A17875   0.457   5.117   6.654 -1.0303  0.1222  0.0314
  160SAPE  H12B17876   0.455   4.949   6.621 -0.6083  1.4912  1.1026
  160SAPE   C1117877   0.396   5.078   6.445 -0.6217  0.6164  0.1402
  160SAPE  H11A17878   0.287   5.060   6.455 -1.2725  1.9633 -3.1055
  160SAPE  H11B17879   0.434   5.005   6.369  1.2219  0.5182  1.1077
  160SAPE     P17880   0.331   5.331   6.446  0.4941 -0.0170  0.1417
  160SAPE   O1317881   0.398   5.461   6.420  0.0633 -0.2753 -0.0523
  160SAPE   O1417882   0.195   5.312   6.391  0.0590  0.4053  0.1670
  160SAPE   O1217883   0.417   5.208   6.393  0.4970 -0.0888 -0.1877
  160SAPE   O1117884   0.328   5.310   6.599  0.1296  0.7467  0.1743
  160SAPE    C117885   0.301   5.427   6.678 -0.0291 -0.0319 -0.0030
  160SAPE    HA17886   0.373   5.509   6.656 -0.5716  0.2839 -0.6041
  160SAPE    HB17887   0.199   5.465   6.659  0.9719  2.5146 -0.8004
  160SAPE    C217888   0.323   5.398   6.830 -0.0938  0.6488 -0.3346
  160SAPE    HS17889   0.283   5.482   6.892 -0.9496  0.3792 -0.5013
  160SAPE   O2117890   0.459   5.367   6.865 -0.3790  0.8148  0.9958
  160SAPE   C2117891   0.541   5.466   6.878  0.1416  0.6244 -0.0362
  160SAPE   O2217892   0.517   5.581   6.855 -0.3167  0.0084 -0.7295
  160SAPE   C2217893   0.668   5.417   6.946  0.1123 -0.3247  0.7937
  160SAPE   H2R17894   0.631   5.352   7.028 -1.8293  0.4835  0.6195
  160SAPE   H2S17895   0.721   5.359   6.868 -0.7179  0.7885 -0.6520
  160SAPE    C317896   0.227   5.280   6.876 -0.6306  0.2787 -0.5848
  160SAPE    HX17897   0.253   5.185   6.824  2.6409  1.2964 -1.0379
  160SAPE    HY17898   0.128   5.317   6.840 -0.0152  2.2510 -0.3785
  160SAPE   O3117899   0.214   5.273   7.018 -0.2329  0.0651  0.6593
  160SAPE   C3117900   0.121   5.358   7.079  0.0284  0.1409  0.2277
  160SAPE   O3217901   0.039   5.435   7.025 -0.2891 -0.0031 -0.1701
  160SAPE   C3217902   0.146   5.334   7.230 -0.3231  0.1869  0.1823
  160SAPE   H2X17903   0.112   5.236   7.268  0.5796 -0.1219  0.2135
  160SAPE   H2Y17904   0.079   5.402   7.287  0.5845  2.4030 -1.2718
  160SAPE   C2317905   0.759   5.525   7.003 -0.6757 -0.7361  0.1794
  160SAPE   H3R17906   0.697   5.592   7.066  0.9527  1.1285 -0.0600
  160SAPE   H3S17907   0.780   5.589   6.914  1.2468  0.6770  1.5571
  160SAPE   C2417908   0.886   5.474   7.071  0.6296  0.1940 -0.0393
  160SAPE   H4R17909   0.953   5.560   7.087  0.3894  0.2534  0.6963
  160SAPE   H4S17910   0.938   5.404   7.002  2.4635  0.5626  0.9116
  160SAPE   C2517911   0.875   5.394   7.192 -0.1759 -0.3816  0.6250
  160SAPE   H5R17912   0.849   5.288   7.180  1.5557 -0.6007 -1.8439
  160SAPE   C2617913   0.903   5.445   7.313  0.1038 -0.8346 -0.2122
  160SAPE   H6R17914   0.887   5.379   7.399 -1.7206  1.2511  1.1762
  160SAPE   C2717915   0.937   5.589   7.349  0.0295  0.0501 -0.0052
  160SAPE   H7R17916   0.944   5.658   7.262  0.0264 -1.6253 -1.4202
  160SAPE   H7S17917   1.036   5.585   7.399 -0.9668 -0.0899  2.0459
  160SAPE   C2817918   0.834   5.641   7.451  0.7894 -0.3712  0.3439
  160SAPE   H8R17919   0.743   5.667   7.394  1.1268 -1.3850 -0.6915
  160SAPE   C2917920   0.839   5.640   7.583 -0.0457  0.4969 -1.0694
  160SAPE   H9R17921   0.758   5.694   7.635  1.0769  0.1850  1.1042
  160SAPE  C21017922   0.961   5.612   7.665  0.3511 -0.2703 -0.6360
  160SAPE  H10R17923   0.995   5.713   7.697 -0.7998 -0.6953  2.1936
  160SAPE  H10S17924   1.039   5.566   7.600 -0.1107 -0.0284 -1.3643
  160SAPE  C21117925   0.920   5.517   7.775  0.0458 -0.1088  0.0361
  160SAPE  H11R17926   0.893   5.415   7.744 -0.4968 -0.8414  2.7282
  160SAPE  C21217927   0.950   5.540   7.910 -0.4646  0.3294 -0.2412
  160SAPE  H12R17928   0.923   5.474   7.994  1.7990 -0.1116  0.2025
  160SAPE  C21317929   1.009   5.668   7.964  0.2286  0.5403  0.2027
  160SAPE  H13R17930   0.957   5.752   7.915 -0.7911  0.4362  1.0530
  160SAPE  H13S17931   1.116   5.669   7.935 -0.0859  2.1823 -1.0504
  160SAPE  C21417932   0.999   5.686   8.118  0.3148 -0.5049 -0.2241
  160SAPE  H14R17933   1.094   5.667   8.169  0.2252 -3.6523 -0.9979
  160SAPE  C21517934   0.888   5.715   8.187  0.1390  0.0068  0.4708
  160SAPE  H15R17935   0.905   5.739   8.293  2.2931  2.9244 -0.3820
  160SAPE  C21617936   0.750   5.736   8.143 -0.3077 -0.3931  0.1237
  160SAPE  H16R17937   0.728   5.697   8.041  0.2935  2.2066 -1.0803
  160SAPE  H16S17938   0.715   5.841   8.142 -0.9786 -0.5946 -1.3799
  160SAPE  C21717939   0.655   5.666   8.234  0.2517 -0.0740 -0.4401
  160SAPE  H17R17940   0.678   5.557   8.238  1.2835  0.1822  2.2756
  160SAPE  H17S17941   0.554   5.686   8.190  1.5663  1.5012 -2.9862
  160SAPE  C21817942   0.654   5.728   8.384  0.3736 -0.3263  0.3189
  160SAPE  H18R17943   0.727   5.811   8.400 -1.2584  0.6577  3.8598
  160SAPE  H18S17944   0.677   5.654   8.464  0.0365 -0.0949  0.6366
  160SAPE  C21917945   0.516   5.783   8.417 -0.7850  0.1396 -0.2641
  160SAPE  H19R17946   0.442   5.703   8.397  0.2372 -0.6168 -1.1099
  160SAPE  H19S17947   0.484   5.864   8.348 -0.0518 -1.2225 -2.2868
  160SAPE  C22017948   0.508   5.828   8.562  0.3061  0.5167 -0.2116
  160SAPE  H20R17949   0.555   5.748   8.624 -2.2970 -0.0742  1.1259
  160SAPE  H20S17950   0.401   5.847   8.584 -0.1831 -0.3008 -1.7639
  160SAPE  H20T17951   0.552   5.927   8.585 -0.3814  0.7877 -0.0471
  160SAPE   C3317952   0.289   5.369   7.277 -0.4649  0.6137 -0.4288
  160SAPE   H3X17953   0.302   5.477   7.253 -0.9314  1.4807  2.7719
  160SAPE   H3Y17954   0.366   5.310   7.222 -0.2943  0.5876 -0.1654
  160SAPE   C3417955   0.302   5.361   7.434 -0.2809  0.4073  0.3903
  160SAPE   H4X17956   0.295   5.259   7.477 -0.0930 -0.8000 -2.2560
  160SAPE   H4Y17957   0.215   5.420   7.470 -0.6395 -0.7842  1.5598
  160SAPE   C3517958   0.435   5.427   7.481 -0.4688  0.3738 -0.1359
  160SAPE   H5X17959   0.434   5.520   7.421 -0.6839  0.6476  0.2849
  160SAPE   H5Y17960   0.522   5.366   7.450  0.7975  1.8043  0.5041
  160SAPE   C3617961   0.428   5.457   7.629 -0.4305 -1.1060  0.7405
  160SAPE   H6X17962   0.342   5.522   7.656 -1.1690 -1.6516 -0.2477
  160SAPE   H6Y17963   0.514   5.523   7.654 -0.6466 -1.3049  2.0925
  160SAPE   C3717964   0.438   5.334   7.721 -0.3397 -0.4287 -0.3599
  160SAPE   H7X17965   0.502   5.251   7.682 -0.8385 -0.5781 -0.8770
  160SAPE   H7Y17966   0.337   5.288   7.723 -1.0337  0.8897 -2.2085
  160SAPE   C3817967   0.465   5.370   7.866 -0.2007 -0.3254 -0.9289
  160SAPE   H8X17968   0.380   5.427   7.910  1.5439  0.4117  1.7215
  160SAPE   H8Y17969   0.541   5.450   7.884 -1.1527  0.2879  0.6412
  160SAPE   C3917970   0.508   5.247   7.946  0.3409 -0.4339 -0.1828
  160SAPE   H9X17971   0.605   5.218   7.902  0.7225 -1.2256  1.1099
  160SAPE   H9Y17972   0.445   5.157   7.931  1.1691 -0.9894 -0.3964
  160SAPE  C31017973   0.508   5.270   8.103  0.2574 -0.1266  0.3179
  160SAPE  H10X17974   0.609   5.297   8.138  0.1146  1.8345 -0.6684
  160SAPE  H10Y17975   0.485   5.169   8.143 -1.2136 -0.2943 -0.8627
  160SAPE  C31117976   0.409   5.371   8.155  0.4411 -0.0825 -0.1957
  160SAPE  H11X17977   0.305   5.341   8.131  0.5547  1.7749 -3.8214
  160SAPE  H11Y17978   0.427   5.467   8.101 -0.3110  0.3455  0.2902
  160SAPE  C31217979   0.425   5.391   8.306  0.1734 -0.6294 -1.0316
  160SAPE  H12X17980   0.373   5.485   8.331 -1.0216 -1.7279  0.7947
  160SAPE  H12Y17981   0.534   5.398   8.327  0.0659 -0.7621 -0.4096
  160SAPE  C31317982   0.354   5.279   8.387 -1.0533 -0.4239 -0.1025
  160SAPE  H13X17983   0.402   5.188   8.346  0.9306  0.1253  0.8682
  160SAPE  H13Y17984   0.243   5.274   8.383 -1.0139 -2.1963  0.1816
  160SAPE  C31417985   0.380   5.292   8.540  0.1550  0.5691 -0.6696
  160SAPE  H14X17986   0.319   5.212   8.586 -0.5467  1.4227 -0.0956
  160SAPE  H14Y17987   0.345   5.385   8.588 -2.2363 -2.1161  3.4049
  160SAPE  C31517988   0.523   5.283   8.586  0.0947 -0.0983  0.5532
  160SAPE  H15X17989   0.528   5.310   8.694  0.0229 -1.9715  1.0607
  160SAPE  H15Y17990   0.580   5.352   8.521 -0.6121 -1.8736 -2.1024
  160SAPE  C31617991   0.589   5.141   8.591  0.0106  0.0102 -0.2442
  160SAPE  H16X17992   0.598   5.082   8.497 -2.0405 -0.5387 -0.1479
  160SAPE  H16Y17993   0.526   5.076   8.656 -1.3550 -1.3373 -2.7728
  160SAPE  C31717994   0.733   5.145   8.651  0.8052  0.3521 -0.4480
  160SAPE  H17X17995   0.728   5.211   8.740 -1.2756 -3.6460  2.7503
  160SAPE  H17Y17996   0.812   5.199   8.594  0.5154  3.2674  1.6861
  160SAPE  C31817997   0.770   5.007   8.710 -0.2734  0.8663  0.1023
  160SAPE  H18X17998   0.878   4.996   8.735 -0.7288 -0.6345  1.5681
  160SAPE  H18Y17999   0.743   4.938   8.627 -2.4752  0.1579  1.3406
  160SAPE  H18Z18000   0.703   4.984   8.795 -1.2670  2.0248 -0.3231
  161SAPE     N18001   3.578   2.378   6.197  0.2283  0.1111  0.5628
  161SAPE   HN118002   3.610   2.462   6.250 -1.2355  0.8311  0.3627
  161SAPE   HN218003   3.660   2.314   6.202 -0.7010 -1.2105 -0.5579
  161SAPE   HN318004   3.567   2.413   6.100  0.1621  0.4053  0.6739
  161SAPE   C1218005   3.450   2.345   6.261  0.0120  0.0531  0.7034
  161SAPE  H12A18006   3.448   2.353   6.372 -0.7570 -0.3312  0.7234
  161SAPE  H12B18007   3.425   2.244   6.223 -1.0755  0.4610  0.3169
  161SAPE   C1118008   3.339   2.445   6.219  0.3149 -0.1281 -0.7390
  161SAPE  H11A18009   3.242   2.405   6.255  0.9193  0.5884  1.8631
  161SAPE  H11B18010   3.337   2.469   6.111  0.2971  0.7990 -0.5363
  161SAPE     P18011   3.280   2.693   6.264 -0.2577  0.0790  0.1347
  161SAPE   O1318012   3.364   2.810   6.255 -0.1881 -0.1412  0.1561
  161SAPE   O1418013   3.183   2.671   6.154  0.0662 -0.7577  0.6373
  161SAPE   O1218014   3.378   2.568   6.276  0.1040  0.6374  0.0344
  161SAPE   O1118015   3.201   2.708   6.399  0.2069 -0.1620 -0.1861
  161SAPE    C118016   3.125   2.595   6.449  0.1795  0.2473  0.4030
  161SAPE    HA18017   3.061   2.552   6.369  0.7372 -0.3718  0.2895
  161SAPE    HB18018   3.194   2.513   6.478 -2.2580 -2.3567 -0.6331
  161SAPE    C218019   3.034   2.626   6.566 -0.2023  0.0692 -0.9057
  161SAPE    HS18020   2.960   2.704   6.538 -0.6749  1.1062  2.8146
  161SAPE   O2118021   3.124   2.669   6.672  0.1399  0.0567 -0.2459
  161SAPE   C2118022   3.073   2.752   6.759 -0.3437  0.1523  0.1254
  161SAPE   O2218023   2.963   2.800   6.742  0.6690 -0.4673 -0.4645
  161SAPE   C2218024   3.175   2.777   6.874 -0.0450  0.1192 -0.2193
  161SAPE   H2R18025   3.277   2.754   6.837 -0.0615 -1.9213  0.8699
  161SAPE   H2S18026   3.174   2.877   6.923  2.7808  0.0794  0.0775
  161SAPE    C318027   2.961   2.498   6.619 -0.0191  0.5436  0.1063
  161SAPE    HX18028   3.046   2.426   6.627 -0.0199  0.5680  0.3573
  161SAPE    HY18029   2.917   2.443   6.534  1.3564  0.6096 -0.6945
  161SAPE   O3118030   2.879   2.496   6.732 -0.6418  0.0954 -0.2532
  161SAPE   C3118031   2.762   2.554   6.715 -0.9778  0.1314 -0.5965
  161SAPE   O3218032   2.718   2.579   6.607  0.0216 -0.0629 -0.5769
  161SAPE   C3218033   2.683   2.573   6.847  0.1249 -0.1206  0.2143
  161SAPE   H2X18034   2.574   2.579   6.828 -0.2777  0.8662  2.4495
  161SAPE   H2Y18035   2.718   2.667   6.894 -0.8146 -0.7261  2.2478
  161SAPE   C2318036   3.161   2.676   6.995  0.5426 -0.0730  0.3409
  161SAPE   H3R18037   3.242   2.701   7.067  0.3297 -2.2875  1.4286
  161SAPE   H3S18038   3.177   2.576   6.952  0.3274  1.3370 -3.3632
  161SAPE   C2418039   3.024   2.679   7.063  0.4480 -0.3927 -0.7914
  161SAPE   H4R18040   2.958   2.639   6.984 -0.6941 -0.9636  0.4091
  161SAPE   H4S18041   2.999   2.783   7.093  0.4855 -0.7653  0.5942
  161SAPE   C2518042   3.026   2.578   7.174  0.1565  0.0302  0.1370
  161SAPE   H5R18043   3.012   2.475   7.137 -2.8276  0.8732 -1.3599
  161SAPE   C2618044   3.047   2.607   7.309  0.0944  0.0581 -0.6007
  161SAPE   H6R18045   3.019   2.526   7.378  1.4410 -3.1859 -3.5210
  161SAPE   C2718046   3.057   2.743   7.355 -0.5727  0.4604  0.0609
  161SAPE   H7R18047   2.957   2.789   7.343  0.3063  2.5802  0.4042
  161SAPE   H7S18048   3.125   2.800   7.288  1.0293 -1.0637  0.2897
  161SAPE   C2818049   3.098   2.749   7.502  0.2567  0.2604 -0.2809
  161SAPE   H8R18050   3.204   2.719   7.509  0.0350 -0.6308 -0.5697
  161SAPE   C2918051   3.032   2.789   7.612  0.2298 -0.0453 -0.0297
  161SAPE   H9R18052   3.082   2.779   7.709  1.3829  1.5446 -0.4261
  161SAPE  C21018053   2.898   2.849   7.611 -0.2193  0.2094 -0.1142
  161SAPE  H10R18054   2.863   2.889   7.513  0.2831  1.8950  0.3601
  161SAPE  H10S18055   2.885   2.940   7.673 -1.7922 -0.4289  0.5634
  161SAPE  C21118056   2.795   2.752   7.664  1.2765  0.6673  0.9067
  161SAPE  H11R18057   2.832   2.690   7.748 -0.3031 -0.3804  0.8542
  161SAPE  C21218058   2.675   2.716   7.627  0.7785  0.1633 -0.4311
  161SAPE  H12R18059   2.629   2.632   7.681  0.7268  0.8336  0.5993
  161SAPE  C21318060   2.601   2.770   7.512  0.1605 -0.6789  0.8403
  161SAPE  H13R18061   2.640   2.718   7.422 -0.9007  1.4936 -0.9821
  161SAPE  H13S18062   2.630   2.874   7.486  1.3433 -1.3039 -0.4640
  161SAPE  C21418063   2.455   2.760   7.497  0.4618  0.0931  0.0503
  161SAPE  H14R18064   2.405   2.736   7.592 -1.3218  2.3686 -0.2368
  161SAPE  C21518065   2.372   2.803   7.402  0.4276  0.5283  0.2440
  161SAPE  H15R18066   2.263   2.792   7.411 -0.3425  4.9234 -1.1532
  161SAPE  C21618067   2.415   2.864   7.275 -0.1616 -0.4656  0.5919
  161SAPE  H16R18068   2.524   2.846   7.264 -0.1243 -0.0165  0.1768
  161SAPE  H16S18069   2.393   2.973   7.270 -3.0141 -0.9328  0.9156
  161SAPE  C21718070   2.344   2.784   7.159  0.2644 -0.6499 -0.2411
  161SAPE  H17R18071   2.235   2.794   7.178  0.6638  0.4978  1.7484
  161SAPE  H17S18072   2.376   2.678   7.162 -1.7883 -1.2992 -0.0899
  161SAPE  C21818073   2.359   2.843   7.019  0.3467  0.0267 -0.1934
  161SAPE  H18R18074   2.286   2.925   7.001  1.7792  1.5169  0.5235
  161SAPE  H18S18075   2.339   2.761   6.946  0.3077 -0.3439  0.2329
  161SAPE  C21918076   2.504   2.880   6.990 -0.2509 -0.1689  0.2218
  161SAPE  H19R18077   2.571   2.795   7.015  0.4039 -0.4223 -2.1610
  161SAPE  H19S18078   2.544   2.968   7.046  0.8464 -1.0019  0.7849
  161SAPE  C22018079   2.524   2.903   6.843  0.2093  0.5946 -0.4016
  161SAPE  H20R18080   2.624   2.943   6.816 -0.2762  0.6624 -2.2880
  161SAPE  H20S18081   2.444   2.971   6.807  0.8761  1.3818 -0.4430
  161SAPE  H20T18082   2.500   2.810   6.789  0.3301  0.5602 -0.3964
  161SAPE   C3318083   2.714   2.469   6.955  0.1513 -0.2226 -0.5835
  161SAPE   H3X18084   2.822   2.469   6.981  0.1945  1.4420 -0.6698
  161SAPE   H3Y18085   2.694   2.367   6.913 -0.9765  0.0762 -0.8109
  161SAPE   C3418086   2.634   2.493   7.082  0.6586  0.3244 -0.2265
  161SAPE   H4X18087   2.526   2.500   7.061  0.6998 -0.4480 -0.7406
  161SAPE   H4Y18088   2.657   2.594   7.121  0.1261  0.2558  0.2780
  161SAPE   C3518089   2.653   2.392   7.195  0.1161 -0.0749 -0.6903
  161SAPE   H5X18090   2.757   2.394   7.233  0.3049 -2.1029 -0.9841
  161SAPE   H5Y18091   2.634   2.285   7.170  0.8549 -1.1656  2.8907
  161SAPE   C3618092   2.553   2.432   7.306 -0.4522  0.6106 -0.2529
  161SAPE   H6X18093   2.453   2.401   7.270  0.6131  0.1361 -3.0878
  161SAPE   H6Y18094   2.556   2.542   7.322  2.5538  0.8093 -1.3622
  161SAPE   C3718095   2.597   2.359   7.442  0.1210 -0.5886 -0.2251
  161SAPE   H7X18096   2.680   2.415   7.491 -0.4659 -0.4023  0.5822
  161SAPE   H7Y18097   2.623   2.252   7.423  0.5496 -0.3000 -1.3287
  161SAPE   C3818098   2.485   2.364   7.557  0.1067  0.4254  0.3881
  161SAPE   H8X18099   2.405   2.287   7.545  0.3468 -0.1153  1.9319
  161SAPE   H8Y18100   2.458   2.471   7.560  1.3990  0.7512  0.9212
  161SAPE   C3918101   2.540   2.320   7.693 -0.3590 -0.4042 -0.4246
  161SAPE   H9X18102   2.620   2.391   7.721 -1.2620  0.9969 -1.2829
  161SAPE   H9Y18103   2.589   2.221   7.684  0.2738  0.0720 -3.0544
  161SAPE  C31018104   2.429   2.334   7.796  0.5904 -0.6907 -0.4083
  161SAPE  H10X18105   2.350   2.257   7.792 -1.5307  1.3580 -0.0180
  161SAPE  H10Y18106   2.379   2.432   7.783  0.2676 -0.8368 -0.2624
  161SAPE  C31118107   2.473   2.331   7.943 -0.0858  0.3161  0.0363
  161SAPE  H11X18108   2.551   2.410   7.950  0.1659  0.1511 -0.7892
  161SAPE  H11Y18109   2.517   2.231   7.961 -2.7025 -0.9929 -0.2372
  161SAPE  C31218110   2.348   2.333   8.031 -0.7923  0.0937  0.2343
  161SAPE  H12X18111   2.275   2.256   8.000 -1.1068 -1.1790  3.6234
  161SAPE  H12Y18112   2.301   2.434   8.022  0.5863  0.7450 -0.0110
  161SAPE  C31318113   2.384   2.289   8.174 -0.2715  0.1277 -0.6018
  161SAPE  H13X18114   2.461   2.362   8.207  0.4787 -1.4021  1.2945
  161SAPE  H13Y18115   2.440   2.193   8.163 -1.2721 -0.4810 -0.4843
  161SAPE  C31418116   2.257   2.281   8.265 -0.1871 -0.6941  0.0534
  161SAPE  H14X18117   2.180   2.214   8.220 -0.0358 -0.6488 -0.2767
  161SAPE  H14Y18118   2.230   2.388   8.274  4.0347  0.4814  1.2075
  161SAPE  C31518119   2.289   2.228   8.407  0.7057  0.6489  0.3509
  161SAPE  H15X18120   2.357   2.307   8.445 -0.2390  0.5531  2.3544
  161SAPE  H15Y18121   2.346   2.133   8.407 -0.8632 -0.3823  2.6293
  161SAPE  C31618122   2.172   2.232   8.503 -0.9268 -0.3168  0.1979
  161SAPE  H16X18123   2.114   2.326   8.498  0.1962  0.3444 -0.9548
  161SAPE  H16Y18124   2.217   2.245   8.604  0.9868  2.3844 -0.8807
  161SAPE  C31718125   2.074   2.116   8.484  0.0824  0.9615 -0.0146
  161SAPE  H17X18126   2.034   2.109   8.381  0.3643  0.6582 -0.1044
  161SAPE  H17Y18127   1.979   2.134   8.539 -0.8911 -1.2301 -0.8444
  161SAPE  C31818128   2.141   1.985   8.523  0.0989 -0.3609  0.4885
  161SAPE  H18X18129   2.185   2.012   8.621  0.8586  1.2458 -0.2602
  161SAPE  H18Y18130   2.219   1.956   8.450  1.1233 -1.1294  1.8285
  161SAPE  H18Z18131   2.066   1.902   8.523 -0.4936  0.1609  0.9532
  162SAPE     N18132   6.528   0.090   5.780 -0.0765 -0.1255  0.3412
  162SAPE   HN118133   6.620   0.056   5.815  1.1248  0.4627 -2.0419
  162SAPE   HN218134   6.464   0.017   5.743 -0.8495  0.2688  0.8707
  162SAPE   HN318135   6.534   0.167   5.710 -0.6428  0.4482  0.9166
  162SAPE   C1218136   6.451   0.156   5.894  0.1616  0.2083  0.1103
  162SAPE  H12A18137   6.442   0.082   5.977  0.5205 -1.8891 -1.6086
  162SAPE  H12B18138   6.352   0.181   5.851  1.1279  0.5070 -2.0494
  162SAPE   C1118139   6.522   0.275   5.954 -0.2436  0.1740  0.0690
  162SAPE  H11A18140   6.533   0.352   5.875  1.4366  1.2439  1.2652
  162SAPE  H11B18141   6.628   0.259   5.982 -0.6889 -1.2721  1.0531
  162SAPE     P18142   6.439   0.481   6.094  0.3774 -0.2758 -0.3732
  162SAPE   O1318143   6.564   0.554   6.048  0.0102  0.3062  0.6323
  162SAPE   O1418144   6.308   0.539   6.058 -0.6002 -0.0711 -0.4063
  162SAPE   O1218145   6.444   0.325   6.066  0.3395 -0.0220 -0.4073
  162SAPE   O1118146   6.434   0.490   6.250 -0.2057 -0.3723  0.1077
  162SAPE    C118147   6.540   0.431   6.328 -1.1593 -0.1589  0.3621
  162SAPE    HA18148   6.494   0.402   6.425 -0.3129 -0.5463  0.6573
  162SAPE    HB18149   6.590   0.343   6.282 -1.8296 -0.6442  0.5290
  162SAPE    C218150   6.645   0.544   6.367  0.3080  0.6193  0.4837
  162SAPE    HS18151   6.697   0.588   6.279  1.7825 -0.2767  0.8745
  162SAPE   O2118152   6.737   0.490   6.464 -0.1403  0.4998  0.2546
  162SAPE   C2118153   6.833   0.405   6.411 -0.0114  0.1430 -0.5101
  162SAPE   O2218154   6.850   0.388   6.291  0.0493  0.1221 -0.0195
  162SAPE   C2218155   6.920   0.334   6.516  0.5479  0.0935  0.1883
  162SAPE   H2R18156   6.990   0.269   6.460  0.0069  0.1973 -0.6472
  162SAPE   H2S18157   6.984   0.414   6.558 -0.3622  0.6113  0.6302
  162SAPE    C318158   6.576   0.676   6.424 -0.0222  0.3808  0.7279
  162SAPE    HX18159   6.499   0.701   6.347  1.6501 -0.1810 -1.2116
  162SAPE    HY18160   6.650   0.759   6.426 -0.6648  0.9611  0.7703
  162SAPE   O3118161   6.516   0.657   6.547  0.1313 -0.0535 -0.4824
  162SAPE   C3118162   6.576   0.700   6.663 -1.5421 -0.4628 -0.4423
  162SAPE   O3218163   6.664   0.779   6.666  0.1449 -0.2965 -0.2301
  162SAPE   C3218164   6.507   0.629   6.775  0.4261 -0.5283  0.5268
  162SAPE   H2X18165   6.406   0.595   6.742  0.5740 -0.3872 -0.0748
  162SAPE   H2Y18166   6.495   0.709   6.851 -0.7602 -0.9444  0.7981
  162SAPE   C2318167   6.842   0.256   6.632 -0.2316  0.0526  0.2471
  162SAPE   H3R18168   6.765   0.329   6.663 -2.1091 -1.3654 -0.8481
  162SAPE   H3S18169   6.914   0.256   6.716  0.8032 -0.5235 -0.6055
  162SAPE   C2418170   6.801   0.108   6.600  0.0330  0.5656  0.1409
  162SAPE   H4R18171   6.735   0.116   6.511 -0.6493 -1.5443  0.4058
  162SAPE   H4S18172   6.730   0.065   6.673 -0.2556  2.3742  0.9908
  162SAPE   C2518173   6.922   0.021   6.574  0.0702 -0.3643  0.2159
  162SAPE   H5R18174   6.984   0.055   6.490  0.4704 -0.8463  0.3092
  162SAPE   C2618175   6.963  -0.078   6.650 -0.1713  0.1112 -0.0934
  162SAPE   H6R18176   7.047  -0.143   6.621  0.4239  1.1015 -0.6893
  162SAPE   C2718177   6.902  -0.130   6.782  0.4152 -0.2433  0.3653
  162SAPE   H7R18178   6.801  -0.087   6.804  1.4691  2.2078  0.7736
  162SAPE   H7S18179   6.958  -0.078   6.863 -0.5487  0.1384  0.8133
  162SAPE   C2818180   6.904  -0.270   6.815  0.6309 -0.0148  0.0993
  162SAPE   H8R18181   6.919  -0.342   6.733  1.0800 -2.0677  1.8814
  162SAPE   C2918182   6.911  -0.336   6.929  0.4648  0.0449 -0.1966
  162SAPE   H9R18183   6.908  -0.446   6.931 -1.4345  0.0200 -1.5238
  162SAPE  C21018184   6.901  -0.265   7.060 -0.2782 -0.4182  0.3568
  162SAPE  H10R18185   6.853  -0.165   7.062  0.4133 -0.0296 -0.9651
  162SAPE  H10S18186   7.001  -0.246   7.104  0.0828 -1.0442 -0.1695
  162SAPE  C21118187   6.825  -0.357   7.155  0.2672 -0.7563 -0.0730
  162SAPE  H11R18188   6.777  -0.441   7.103  0.8984  0.0999 -2.1401
  162SAPE  C21218189   6.824  -0.337   7.292 -0.3809  0.8100  0.7323
  162SAPE  H12R18190   6.784  -0.423   7.348  0.9997 -0.9653 -0.8724
  162SAPE  C21318191   6.898  -0.236   7.376  0.4332  0.1316 -0.2237
  162SAPE  H13R18192   6.850  -0.137   7.360 -0.6925 -0.3034  0.3362
  162SAPE  H13S18193   6.998  -0.220   7.331  0.2402  0.6764 -0.4647
  162SAPE  C21418194   6.891  -0.278   7.521 -0.2165  0.9351 -0.2259
  162SAPE  H14R18195   6.980  -0.329   7.559 -0.5009  1.8535  1.8440
  162SAPE  C21518196   6.784  -0.267   7.600 -0.2042 -0.5731 -0.6708
  162SAPE  H15R18197   6.785  -0.308   7.702 -0.2121 -3.3952 -1.7043
  162SAPE  C21618198   6.655  -0.192   7.563 -0.4878 -0.0457 -0.5975
  162SAPE  H16R18199   6.566  -0.259   7.553 -0.8445  0.4382 -0.6616
  162SAPE  H16S18200   6.670  -0.141   7.466  0.3307 -0.6310 -0.7933
  162SAPE  C21718201   6.623  -0.077   7.664  0.2814 -0.2701 -0.0229
  162SAPE  H17R18202   6.515  -0.058   7.643 -0.2887 -2.6273  0.4599
  162SAPE  H17S18203   6.683   0.012   7.636  1.1065 -0.3610  1.3727
  162SAPE  C21818204   6.645  -0.108   7.813 -0.2714 -0.1039  0.1985
  162SAPE  H18R18205   6.751  -0.086   7.841 -0.8810  1.7163  1.1962
  162SAPE  H18S18206   6.627  -0.216   7.832  0.3188 -0.3911 -0.8166
  162SAPE  C21918207   6.565  -0.018   7.907  0.2906 -0.2873 -0.2442
  162SAPE  H19R18208   6.586  -0.048   8.012  1.4439  0.1992 -0.3305
  162SAPE  H19S18209   6.457  -0.037   7.884  0.1483  0.2079  0.0073
  162SAPE  C22018210   6.593   0.135   7.889 -0.1229  0.5401 -0.5670
  162SAPE  H20R18211   6.538   0.194   7.966 -0.4017 -1.6431  1.0262
  162SAPE  H20S18212   6.560   0.176   7.792 -0.0994  2.0304  0.0336
  162SAPE  H20T18213   6.703   0.150   7.903  0.0176  0.0388 -1.1115
  162SAPE   C3318214   6.584   0.502   6.808 -0.0853 -0.3906  0.0743
  162SAPE   H3X18215   6.691   0.519   6.836  1.0997 -2.6424 -2.5909
  162SAPE   H3Y18216   6.580   0.445   6.713 -1.9438  3.1570 -2.1706
  162SAPE   C3418217   6.525   0.418   6.926 -0.8532 -0.1791 -0.5737
  162SAPE   H4X18218   6.420   0.402   6.893 -1.2018  0.1690  0.3332
  162SAPE   H4Y18219   6.507   0.469   7.023  0.7024 -0.5243 -0.0698
  162SAPE   C3518220   6.603   0.284   6.952 -0.4458 -0.1653 -0.6064
  162SAPE   H5X18221   6.610   0.227   6.856 -1.0044  0.0601 -0.7853
  162SAPE   H5Y18222   6.560   0.215   7.028  2.9813 -0.7320  0.9785
  162SAPE   C3618223   6.747   0.310   7.003  0.0500 -0.7681  0.1504
  162SAPE   H6X18224   6.745   0.359   7.103  0.9418  1.9753 -1.0784
  162SAPE   H6Y18225   6.798   0.386   6.939 -2.3600  0.5350 -0.3519
  162SAPE   C3718226   6.826   0.179   7.015 -0.5131 -0.4253  0.1420
  162SAPE   H7X18227   6.826   0.127   6.916 -2.5008 -1.9524  0.8789
  162SAPE   H7Y18228   6.770   0.112   7.084  1.1296 -1.2024  0.7848
  162SAPE   C3818229   6.974   0.189   7.054 -0.7135 -0.7068 -0.9567
  162SAPE   H8X18230   7.010   0.268   6.985 -0.1947  0.4592  0.5979
  162SAPE   H8Y18231   7.026   0.093   7.036 -0.9823 -0.8804 -0.8148
  162SAPE   C3918232   6.982   0.228   7.205  0.9218  0.1913  0.8797
  162SAPE   H9X18233   6.906   0.303   7.235  1.7276  2.0953 -1.4734
  162SAPE   H9Y18234   7.085   0.265   7.225  0.9032 -0.0237  1.3973
  162SAPE  C31018235   6.967   0.099   7.300  0.0720 -0.6718  0.5538
  162SAPE  H10X18236   7.051   0.027   7.289  0.2492 -0.6359  1.5411
  162SAPE  H10Y18237   6.877   0.047   7.260 -0.2000  0.5485 -0.4741
  162SAPE  C31118238   6.945   0.142   7.448  0.1957 -0.2036  0.2061
  162SAPE  H11X18239   6.931   0.050   7.509 -1.5552  0.7512  1.3144
  162SAPE  H11Y18240   6.855   0.202   7.471 -0.3590 -1.6529  2.1000
  162SAPE  C31218241   7.064   0.210   7.513  0.0118  0.4397  0.2605
  162SAPE  H12X18242   7.091   0.300   7.453 -1.4258 -0.5515 -2.0208
  162SAPE  H12Y18243   7.157   0.150   7.521  0.9939  1.0035 -4.2294
  162SAPE  C31318244   7.028   0.255   7.654 -0.0952 -0.0734 -0.1629
  162SAPE  H13X18245   6.940   0.322   7.645  0.1676  0.4868  1.2115
  162SAPE  H13Y18246   7.100   0.321   7.707  1.2627 -1.4138 -0.2626
  162SAPE  C31418247   6.991   0.141   7.753  0.1432 -0.9104  0.4661
  162SAPE  H14X18248   6.907   0.084   7.708  0.5640 -1.3889  0.2680
  162SAPE  H14Y18249   6.956   0.192   7.846  0.8854 -0.7014  0.6358
  162SAPE  C31518250   7.102   0.044   7.784 -0.3085  0.0961  0.4878
  162SAPE  H15X18251   7.181   0.101   7.837 -0.5185  1.2387 -0.3645
  162SAPE  H15Y18252   7.139  -0.004   7.691 -0.4305 -1.3266  1.1546
  162SAPE  C31618253   7.065  -0.079   7.869 -0.0671  0.0552 -0.0774
  162SAPE  H16X18254   7.161  -0.131   7.891 -0.7325 -0.1559  2.6649
  162SAPE  H16Y18255   6.994  -0.154   7.826 -1.1420 -0.1346  1.9066
  162SAPE  C31718256   7.019  -0.052   8.018 -0.1870 -0.6678 -0.2673
  162SAPE  H17X18257   6.954   0.038   8.028  1.7219  0.7170  0.2343
  162SAPE  H17Y18258   7.112  -0.036   8.076 -0.4033 -1.1223  0.2185
  162SAPE  C31818259   6.953  -0.177   8.077  0.5763  0.4714  0.2333
  162SAPE  H18X18260   6.932  -0.165   8.186  2.3810 -0.0258  0.6663
  162SAPE  H18Y18261   7.003  -0.274   8.056  0.3452  0.6331 -1.1961
  162SAPE  H18Z18262   6.854  -0.179   8.026  1.1601  1.7754 -1.0057
  163SAPE     N18263   6.496   3.803   6.440  0.0106  0.5316 -0.7396
  163SAPE   HN118264   6.483   3.905   6.422 -1.8161  0.8013  1.6522
  163SAPE   HN218265   6.407   3.763   6.406 -0.1130 -0.2986  0.5081
  163SAPE   HN318266   6.512   3.788   6.542 -0.3041  0.7885 -0.6517
  163SAPE   C1218267   6.610   3.758   6.358 -0.4828 -0.8975 -0.6850
  163SAPE  H12A18268   6.597   3.800   6.256  3.3701 -1.5534 -1.6220
  163SAPE  H12B18269   6.635   3.649   6.359  2.2586 -0.4041 -2.3571
  163SAPE   C1118270   6.739   3.829   6.406 -0.2087 -0.3851  0.0086
  163SAPE  H11A18271   6.730   3.937   6.379 -0.7445 -0.3964  0.1434
  163SAPE  H11B18272   6.827   3.802   6.343  1.3340  4.8813 -0.5942
  163SAPE     P18273   6.902   3.772   6.598  0.0269  0.1472  0.0470
  163SAPE   O1318274   6.944   3.654   6.510  0.3263  0.2600 -0.1051
  163SAPE   O1418275   7.001   3.886   6.601 -0.2421  0.1067 -0.0101
  163SAPE   O1218276   6.765   3.819   6.545 -0.1044 -0.3872 -0.4948
  163SAPE   O1118277   6.869   3.704   6.740 -0.1156  0.2877  0.0195
  163SAPE    C118278   6.741   3.631   6.768 -0.3556 -0.1933  0.3661
  163SAPE    HA18279   6.676   3.622   6.678  0.3777  0.4197 -0.2392
  163SAPE    HB18280   6.768   3.527   6.794  1.1326  0.2581  0.7368
  163SAPE    C218281   6.672   3.709   6.886 -0.0668 -0.0012  0.2187
  163SAPE    HS18282   6.574   3.662   6.906 -0.1730  0.0719 -0.1262
  163SAPE   O2118283   6.640   3.844   6.855  0.1813  0.4245 -0.4828
  163SAPE   C2118284   6.549   3.866   6.762  0.1755 -0.6399 -0.5981
  163SAPE   O2218285   6.487   3.780   6.706  0.2812 -0.0133  0.0466
  163SAPE   C2218286   6.541   4.012   6.727 -0.0783 -0.8472 -0.1824
  163SAPE   H2R18287   6.596   4.068   6.806  0.9010  0.5502 -1.7821
  163SAPE   H2S18288   6.594   4.032   6.631  2.5786  0.3954  1.4165
  163SAPE    C318289   6.759   3.699   7.012 -0.5021 -0.2882  0.0024
  163SAPE    HX18290   6.849   3.763   6.994  1.0387 -1.6951  2.2896
  163SAPE    HY18291   6.790   3.593   7.023 -0.8165 -0.3574  0.2229
  163SAPE   O3118292   6.702   3.735   7.141  0.1299  0.6125  0.3965
  163SAPE   C3118293   6.659   3.636   7.224 -0.3256 -0.1731 -0.2904
  163SAPE   O3218294   6.638   3.521   7.199  0.1758 -0.3059  0.7446
  163SAPE   C3218295   6.645   3.693   7.365  0.2751 -0.2607 -0.7151
  163SAPE   H2X18296   6.553   3.755   7.354  0.4729  0.2535  0.3490
  163SAPE   H2Y18297   6.729   3.765   7.382 -3.0707  3.2323  3.9577
  163SAPE   C2318298   6.401   4.075   6.726  0.1691 -0.2113 -0.0773
  163SAPE   H3R18299   6.344   4.007   6.659  1.7732  0.0912 -1.8301
  163SAPE   H3S18300   6.410   4.172   6.672 -0.0097 -1.5101 -2.5671
  163SAPE   C2418301   6.334   4.099   6.856 -0.1998  0.3805 -0.0046
  163SAPE   H4R18302   6.231   4.138   6.842 -0.8058 -1.1685 -0.0877
  163SAPE   H4S18303   6.394   4.180   6.903 -1.7669  2.5868 -1.6279
  163SAPE   C2518304   6.324   3.973   6.941  0.1566  0.2181  0.2081
  163SAPE   H5R18305   6.244   3.910   6.901 -1.3328  2.4517 -0.5188
  163SAPE   C2618306   6.380   3.955   7.060  0.1433 -0.5413 -0.3564
  163SAPE   H6R18307   6.385   3.854   7.102  0.1338 -0.5506 -0.3777
  163SAPE   C2718308   6.467   4.059   7.123  0.5641 -0.4466 -0.9006
  163SAPE   H7R18309   6.544   4.100   7.054  1.4392 -1.2104 -0.3951
  163SAPE   H7S18310   6.538   4.002   7.187  2.0195  1.6795 -0.5087
  163SAPE   C2818311   6.405   4.167   7.206 -0.2277  0.6398 -0.0529
  163SAPE   H8R18312   6.383   4.260   7.151  0.6991 -1.1135 -3.7366
  163SAPE   C2918313   6.379   4.161   7.340 -0.6298  0.2042 -0.2839
  163SAPE   H9R18314   6.334   4.248   7.390 -0.9826 -0.2076  0.1204
  163SAPE  C21018315   6.405   4.044   7.437 -0.0001  0.3151  0.0037
  163SAPE  H10R18316   6.461   4.084   7.525  0.2192 -0.5107  0.2456
  163SAPE  H10S18317   6.479   3.980   7.385  0.0813  0.9789 -0.7202
  163SAPE  C21118318   6.289   3.954   7.486 -0.2321  0.4915 -0.1906
  163SAPE  H11R18319   6.228   3.910   7.406 -0.2456  2.3897 -1.2920
  163SAPE  C21218320   6.251   3.933   7.610 -0.0261 -0.0220 -0.9204
  163SAPE  H12R18321   6.164   3.866   7.622  0.0919  0.2025  1.8364
  163SAPE  C21318322   6.303   3.993   7.735  0.5882  0.5739 -0.1281
  163SAPE  H13R18323   6.391   4.059   7.720 -0.4754  2.1237  0.1734
  163SAPE  H13S18324   6.340   3.914   7.804 -2.3583 -1.5344 -0.8091
  163SAPE  C21418325   6.197   4.071   7.812  0.0876  0.3617  0.2148
  163SAPE  H14R18326   6.111   4.008   7.838  2.3281 -1.8800  2.7236
  163SAPE  C21518327   6.202   4.196   7.857  0.3013  0.3616  0.3222
  163SAPE  H15R18328   6.115   4.238   7.909  0.5734  0.1098  0.9915
  163SAPE  C21618329   6.314   4.296   7.839  0.8407  0.3761  0.0304
  163SAPE  H16R18330   6.411   4.246   7.816  0.3700 -0.3834 -0.3268
  163SAPE  H16S18331   6.315   4.358   7.932  2.0280  0.4679 -0.0282
  163SAPE  C21718332   6.293   4.400   7.717  0.8237 -1.2500 -0.0643
  163SAPE  H17R18333   6.197   4.447   7.747  1.0271 -0.5186 -0.5332
  163SAPE  H17S18334   6.284   4.356   7.616 -0.7465 -0.7561 -0.1641
  163SAPE  C21818335   6.407   4.501   7.726 -0.3640 -0.7758  0.1708
  163SAPE  H18R18336   6.504   4.447   7.714  0.2470  0.0729  1.1241
  163SAPE  H18S18337   6.403   4.553   7.824 -4.0087 -0.2073 -0.1574
  163SAPE  C21918338   6.415   4.612   7.618 -0.1795  0.2768  0.0897
  163SAPE  H19R18339   6.460   4.562   7.530  1.9686  1.9067  0.1943
  163SAPE  H19S18340   6.490   4.693   7.631  0.5301 -0.1459 -1.2384
  163SAPE  C22018341   6.285   4.682   7.566  0.2378 -0.0067 -0.1854
  163SAPE  H20R18342   6.243   4.728   7.658 -1.1981  1.4182 -1.4868
  163SAPE  H20S18343   6.209   4.607   7.537 -1.9652  0.4758  3.7011
  163SAPE  H20T18344   6.311   4.752   7.483  0.4857  1.1568  0.8459
  163SAPE   C3318345   6.621   3.587   7.480  0.0047  0.5239 -0.3941
  163SAPE   H3X18346   6.714   3.526   7.481 -0.0279  0.2735 -3.2578
  163SAPE   H3Y18347   6.530   3.524   7.471 -0.0970  0.4213  1.1497
  163SAPE   C3418348   6.620   3.666   7.608 -0.3511 -0.5250  0.1044
  163SAPE   H4X18349   6.518   3.709   7.615  0.2510  1.0992 -0.5554
  163SAPE   H4Y18350   6.697   3.746   7.620 -1.2183  0.2044  0.8934
  163SAPE   C3518351   6.647   3.572   7.725 -0.0132  0.0979  0.1973
  163SAPE   H5X18352   6.716   3.486   7.712  0.3632  0.5681 -1.1279
  163SAPE   H5Y18353   6.546   3.528   7.737 -0.9715  0.2998 -5.0984
  163SAPE   C3618354   6.677   3.653   7.857  0.3370  0.2881  0.4736
  163SAPE   H6X18355   6.590   3.721   7.873 -0.6092 -0.5118 -1.0222
  163SAPE   H6Y18356   6.771   3.709   7.840 -0.8716  1.4701 -3.5871
  163SAPE   C3718357   6.689   3.569   7.986  0.1908  0.8181 -0.0083
  163SAPE   H7X18358   6.702   3.621   8.084  0.2918 -0.7536  0.8327
  163SAPE   H7Y18359   6.767   3.490   7.980 -0.3602  0.3616 -1.2663
  163SAPE   C3818360   6.562   3.484   8.017 -0.2635 -0.1360  0.0316
  163SAPE   H8X18361   6.541   3.409   7.938 -0.7982 -0.1809  0.2161
  163SAPE   H8Y18362   6.477   3.555   8.020  0.1608  0.3991  2.9303
  163SAPE   C3918363   6.584   3.397   8.141 -0.0994 -0.0380 -0.1223
  163SAPE   H9X18364   6.635   3.453   8.223 -2.6965  1.4615  0.5579
  163SAPE   H9Y18365   6.662   3.321   8.115  0.9406  0.9451  0.0289
  163SAPE  C31018366   6.461   3.324   8.192  0.2562  0.7625 -0.0030
  163SAPE  H10X18367   6.435   3.246   8.117  2.8028  0.0967 -0.3041
  163SAPE  H10Y18368   6.386   3.404   8.205  0.5551  1.2731 -1.2387
  163SAPE  C31118369   6.479   3.257   8.332  0.2107  0.5751  0.0233
  163SAPE  H11X18370   6.379   3.220   8.363 -0.6114 -0.6040 -3.5324
  163SAPE  H11Y18371   6.504   3.337   8.404  1.0610 -0.8472  1.3456
  163SAPE  C31218372   6.584   3.145   8.347  0.2893  0.3826  0.5708
  163SAPE  H12X18373   6.686   3.175   8.318 -0.6779  3.2924 -0.1880
  163SAPE  H12Y18374   6.548   3.068   8.276  0.0041  1.1340 -0.1279
  163SAPE  C31318375   6.587   3.088   8.489  1.1096  0.3409  0.2465
  163SAPE  H13X18376   6.491   3.033   8.503  1.1444  0.4199  0.8321
  163SAPE  H13Y18377   6.586   3.182   8.548 -2.1466  0.5936 -0.0490
  163SAPE  C31418378   6.704   2.999   8.519 -0.2548  0.3697 -0.3338
  163SAPE  H14X18379   6.800   3.047   8.492 -0.7889  1.3257 -0.5850
  163SAPE  H14Y18380   6.684   2.909   8.457  2.4735 -2.5302  2.6402
  163SAPE  C31518381   6.716   2.935   8.664  0.3743  0.2806  0.5538
  163SAPE  H15X18382   6.621   2.880   8.682 -0.7879  0.8976 -2.8592
  163SAPE  H15Y18383   6.739   3.027   8.722  2.2698 -0.8322  1.6478
  163SAPE  C31618384   6.826   2.825   8.662 -0.0384 -0.0187  1.0638
  163SAPE  H16X18385   6.840   2.795   8.556 -2.9068  1.1163  0.2824
  163SAPE  H16Y18386   6.810   2.739   8.729  0.6855  0.1067  1.4129
  163SAPE  C31718387   6.958   2.883   8.716  0.2738 -0.3356  0.1248
  163SAPE  H17X18388   6.938   2.910   8.822 -0.0423  0.0822 -0.0361
  163SAPE  H17Y18389   6.981   2.979   8.664 -1.1637 -0.6553 -1.1689
  163SAPE  C31818390   7.081   2.792   8.700 -0.5622 -0.0829  0.7412
  163SAPE  H18X18391   7.085   2.748   8.598  0.4194  0.1642  0.6667
  163SAPE  H18Y18392   7.082   2.709   8.774 -0.2308 -0.8786 -0.1378
  163SAPE  H18Z18393   7.164   2.861   8.727 -0.8400  0.4253  0.3164
  164SAPE     N18394   4.667   0.462   5.821  0.1532  0.0233  0.5953
  164SAPE   HN118395   4.654   0.561   5.851  2.2764  1.0155 -1.4589
  164SAPE   HN218396   4.676   0.458   5.718 -1.2401  1.6697  0.3744
  164SAPE   HN318397   4.595   0.393   5.851  0.4361 -0.8955 -0.7442
  164SAPE   C1218398   4.796   0.411   5.881  0.0728 -0.2377  0.1158
  164SAPE  H12A18399   4.869   0.482   5.837 -2.6616  4.5672  2.5535
  164SAPE  H12B18400   4.803   0.310   5.836  1.1580  0.6846 -1.9283
  164SAPE   C1118401   4.789   0.413   6.030 -0.3903  0.2003 -0.3633
  164SAPE  H11A18402   4.777   0.519   6.060 -1.7360 -0.0084 -0.0951
  164SAPE  H11B18403   4.880   0.362   6.069 -0.9927  0.1846  1.0678
  164SAPE     P18404   4.662   0.192   6.116  0.1434 -0.0004 -0.0886
  164SAPE   O1318405   4.562   0.188   6.224 -0.0204 -0.3320  1.0330
  164SAPE   O1418406   4.632   0.114   5.998 -0.2828 -0.1515  0.2097
  164SAPE   O1218407   4.675   0.346   6.070  0.5461  0.2898 -0.0552
  164SAPE   O1118408   4.804   0.157   6.173  0.0300  0.6241  0.3125
  164SAPE    C118409   4.845   0.193   6.311 -0.4588  0.1479  0.3344
  164SAPE    HA18410   4.934   0.259   6.297 -1.0674  1.1109  0.9211
  164SAPE    HB18411   4.768   0.250   6.367  0.7067  3.2158 -0.9435
  164SAPE    C218412   4.881   0.063   6.399 -0.5846 -0.7766  0.7610
  164SAPE    HS18413   4.936  -0.003   6.330 -0.2843 -1.5359  1.7042
  164SAPE   O2118414   4.760   0.007   6.448 -0.5090 -0.5270  0.2354
  164SAPE   C2118415   4.726  -0.111   6.410  0.3197  0.0916  0.1795
  164SAPE   O2218416   4.784  -0.180   6.329 -0.4602  0.2965 -0.3794
  164SAPE   C2218417   4.600  -0.152   6.484 -0.1820 -0.7579 -0.8065
  164SAPE   H2R18418   4.549  -0.061   6.522 -1.8006 -1.6180 -0.8460
  164SAPE   H2S18419   4.522  -0.183   6.412 -0.3494  0.3648 -1.1323
  164SAPE    C318420   4.963   0.098   6.522 -0.0113 -0.3246  0.8094
  164SAPE    HX18421   5.059   0.147   6.494 -0.6507  1.1946  1.1371
  164SAPE    HY18422   4.992   0.000   6.566  0.0566 -0.3498  0.7084
  164SAPE   O3118423   4.896   0.183   6.623 -0.0861  0.5699  0.2403
  164SAPE   C3118424   4.825   0.115   6.716 -0.1599  0.3230  0.8150
  164SAPE   O3218425   4.843   0.002   6.752 -0.2447  0.0204 -0.1027
  164SAPE   C3218426   4.721   0.210   6.784  0.5203  0.4618 -0.4917
  164SAPE   H2X18427   4.630   0.147   6.789  1.6800 -1.1937  2.3673
  164SAPE   H2Y18428   4.694   0.296   6.718 -1.6064 -1.8899 -2.8791
  164SAPE   C2318429   4.617  -0.256   6.600 -0.2832 -0.2854 -0.0171
  164SAPE   H3R18430   4.663  -0.225   6.697  0.4840 -1.4682  0.0267
  164SAPE   H3S18431   4.670  -0.350   6.574  1.2212  0.5744 -0.2098
  164SAPE   C2418432   4.468  -0.303   6.631  0.0434  0.8679  0.3143
  164SAPE   H4R18433   4.474  -0.387   6.703 -0.9976  0.8804  0.4424
  164SAPE   H4S18434   4.425  -0.360   6.546 -0.6820  0.3643  1.0053
  164SAPE   C2518435   4.379  -0.197   6.665  0.5828  0.2496  0.7868
  164SAPE   H5R18436   4.314  -0.163   6.583  1.3053 -2.1964 -0.9104
  164SAPE   C2618437   4.364  -0.147   6.791  0.2103  0.5206  0.2324
  164SAPE   H6R18438   4.286  -0.069   6.796 -0.7765 -0.4692  0.8676
  164SAPE   C2718439   4.430  -0.199   6.920  0.0465 -0.0118 -0.0378
  164SAPE   H7R18440   4.499  -0.280   6.889  2.9815  2.3286 -0.0280
  164SAPE   H7S18441   4.364  -0.246   6.996  0.6839 -1.5134 -0.3787
  164SAPE   C2818442   4.509  -0.097   6.992 -0.1233  0.0469  0.4405
  164SAPE   H8R18443   4.557  -0.027   6.922  0.8961 -1.5960 -0.5812
  164SAPE   C2918444   4.513  -0.072   7.129 -0.2513  0.1901 -0.2132
  164SAPE   H9R18445   4.587  -0.003   7.171 -0.3374  0.5392 -0.6317
  164SAPE  C21018446   4.433  -0.146   7.236  0.2614 -0.1739  0.2311
  164SAPE  H10R18447   4.491  -0.236   7.265 -0.3965 -0.2549  1.3546
  164SAPE  H10S18448   4.336  -0.182   7.193  1.1289 -2.3181 -0.0874
  164SAPE  C21118449   4.409  -0.060   7.358  0.0787  0.1015 -0.4591
  164SAPE  H11R18450   4.325   0.011   7.360 -0.5823 -0.6326 -1.1657
  164SAPE  C21218451   4.476  -0.065   7.478 -0.2592 -0.3347  0.2819
  164SAPE  H12R18452   4.444  -0.002   7.563 -1.2176  0.7892 -0.8576
  164SAPE  C21318453   4.590  -0.151   7.509 -0.3127  0.1498  0.0310
  164SAPE  H13R18454   4.680  -0.087   7.521  1.3337 -2.1700  0.6577
  164SAPE  H13S18455   4.614  -0.237   7.443 -2.3989 -1.7357  1.5726
  164SAPE  C21418456   4.578  -0.225   7.641  0.1773 -0.4532  0.7644
  164SAPE  H14R18457   4.557  -0.332   7.626  1.1290 -0.5595  0.0796
  164SAPE  C21518458   4.590  -0.181   7.764  0.1848  0.1373 -0.2409
  164SAPE  H15R18459   4.567  -0.247   7.849  1.5709 -0.1094 -0.0441
  164SAPE  C21618460   4.626  -0.037   7.798  0.0638 -0.5440  0.0018
  164SAPE  H16R18461   4.597   0.026   7.711 -0.5536 -2.3617 -1.1627
  164SAPE  H16S18462   4.733  -0.020   7.822 -0.0604  0.0897  0.1203
  164SAPE  C21718463   4.557   0.026   7.923  0.0151  0.2533 -0.1139
  164SAPE  H17R18464   4.450  -0.004   7.921  0.3807 -1.1307 -0.0793
  164SAPE  H17S18465   4.577   0.135   7.919  1.5019  0.0734  1.2172
  164SAPE  C21818466   4.623  -0.018   8.055 -0.2863 -0.0709  0.5095
  164SAPE  H18R18467   4.722   0.032   8.051 -1.5070  2.4591 -1.0107
  164SAPE  H18S18468   4.634  -0.128   8.055 -3.4173 -0.5170 -1.5536
  164SAPE  C21918469   4.553   0.014   8.192 -0.3676  0.3186 -0.4221
  164SAPE  H19R18470   4.617  -0.034   8.268 -2.2368  1.2639  1.9122
  164SAPE  H19S18471   4.466  -0.055   8.191 -0.4239  0.2605  1.8065
  164SAPE  C22018472   4.520   0.159   8.222  0.6356  0.3774 -0.1571
  164SAPE  H20R18473   4.617   0.211   8.237  0.9976  0.1827 -1.6576
  164SAPE  H20S18474   4.458   0.170   8.314  0.3426 -0.9370 -0.1750
  164SAPE  H20T18475   4.464   0.205   8.139 -1.0670  0.6330  1.0804
  164SAPE   C3318476   4.759   0.246   6.929  1.0393  0.1606  0.8610
  164SAPE   H3X18477   4.835   0.325   6.911  1.1833 -0.2614 -0.5404
  164SAPE   H3Y18478   4.809   0.159   6.977 -0.0526 -0.1005  1.5527
  164SAPE   C3418479   4.644   0.292   7.021 -0.4442  0.5539  0.4554
  164SAPE   H4X18480   4.570   0.209   7.023  1.2464 -1.0068  1.4694
  164SAPE   H4Y18481   4.586   0.378   6.980 -2.1616  0.3586  2.3529
  164SAPE   C3518482   4.691   0.345   7.160 -0.1076  0.6179  0.3397
  164SAPE   H5X18483   4.614   0.400   7.217  0.4890  2.3667 -0.4837
  164SAPE   H5Y18484   4.765   0.424   7.135 -0.5920  1.6789  2.0903
  164SAPE   C3618485   4.754   0.243   7.253  0.8074 -0.6300 -0.1210
  164SAPE   H6X18486   4.842   0.198   7.203 -0.4625 -1.0225 -2.0912
  164SAPE   H6Y18487   4.681   0.166   7.283 -1.2722  1.1110 -0.4825
  164SAPE   C3718488   4.802   0.307   7.381  0.0443  0.1958  0.4449
  164SAPE   H7X18489   4.825   0.415   7.364  0.9409 -0.0885 -0.2267
  164SAPE   H7Y18490   4.894   0.257   7.417 -0.8318 -0.9846  1.1287
  164SAPE   C3818491   4.703   0.295   7.501  0.6064  0.0984 -0.2964
  164SAPE   H8X18492   4.677   0.189   7.522  0.7575  0.2161  0.5082
  164SAPE   H8Y18493   4.617   0.358   7.469  0.9652  0.3301 -0.8287
  164SAPE   C3918494   4.769   0.354   7.625 -0.7974  0.8214 -0.1009
  164SAPE   H9X18495   4.814   0.455   7.622 -0.9907  0.8988 -0.4905
  164SAPE   H9Y18496   4.851   0.290   7.665  0.6707  1.4280 -1.9987
  164SAPE  C31018497   4.656   0.376   7.728  0.0450 -0.0693  0.3748
  164SAPE  H10X18498   4.595   0.286   7.751 -2.4056  1.5140  0.4935
  164SAPE  H10Y18499   4.592   0.460   7.694  2.1373  2.1343  1.5600
  164SAPE  C31118500   4.717   0.427   7.857  0.1480 -0.2269 -0.0217
  164SAPE  H11X18501   4.764   0.527   7.843 -0.2988 -0.0178 -0.0394
  164SAPE  H11Y18502   4.795   0.354   7.889 -1.2496 -0.7899  2.3220
  164SAPE  C31218503   4.618   0.429   7.972 -0.0871  0.3749  0.4616
  164SAPE  H12X18504   4.578   0.326   7.987  0.7271 -0.0182  0.0091
  164SAPE  H12Y18505   4.532   0.493   7.942 -1.7390 -1.2546  1.4619
  164SAPE  C31318506   4.671   0.478   8.108 -0.0400 -0.0009 -0.2098
  164SAPE  H13X18507   4.740   0.565   8.099  1.5073 -1.0629  0.9377
  164SAPE  H13Y18508   4.721   0.397   8.166  0.6429  0.3622 -0.2719
  164SAPE  C31418509   4.563   0.531   8.202  1.0169  0.2458  0.6384
  164SAPE  H14X18510   4.491   0.450   8.227 -0.4944  1.5853  0.7328
  164SAPE  H14Y18511   4.492   0.602   8.156  0.1742  0.1389  1.7414
  164SAPE  C31518512   4.620   0.582   8.330  0.3417 -0.0406 -0.0601
  164SAPE  H15X18513   4.675   0.674   8.299  1.2702 -1.1269 -1.7953
  164SAPE  H15Y18514   4.689   0.501   8.364  0.3009  0.0053  0.1336
  164SAPE  C31618515   4.512   0.615   8.438 -0.6640  0.1694  1.1307
  164SAPE  H16X18516   4.466   0.517   8.465  1.9411 -2.4672 -2.8998
  164SAPE  H16Y18517   4.433   0.688   8.409  0.3535  0.9234  0.1803
  164SAPE  C31718518   4.598   0.681   8.552 -0.1207  0.2453 -0.8319
  164SAPE  H17X18519   4.593   0.792   8.543  1.5277  0.3379 -1.0167
  164SAPE  H17Y18520   4.708   0.668   8.540 -0.6724 -3.0558 -3.3476
  164SAPE  C31818521   4.562   0.615   8.690 -0.2347 -0.1473  0.3840
  164SAPE  H18X18522   4.482   0.666   8.747 -0.0698  0.9092 -0.3108
  164SAPE  H18Y18523   4.656   0.612   8.749  0.7859 -1.2968 -1.2151
  164SAPE  H18Z18524   4.533   0.510   8.664 -0.4345 -0.6315  2.4343
  165SAPE     N18525   3.048   3.819   6.139 -0.6591  0.0147 -0.1649
  165SAPE   HN118526   3.046   3.715   6.128  1.1181 -0.2929  1.6381
  165SAPE   HN218527   2.955   3.850   6.104 -0.2167 -0.6963 -2.0877
  165SAPE   HN318528   3.127   3.859   6.084 -0.7079  0.3943  0.0399
  165SAPE   C1218529   3.049   3.855   6.284  0.8114 -0.0620  0.7744
  165SAPE  H12A18530   3.139   3.819   6.338  0.9372 -1.1316 -0.1102
  165SAPE  H12B18531   2.957   3.812   6.330  0.7231  0.0668  0.7193
  165SAPE   C1118532   3.049   4.003   6.305  0.0776 -0.7566  0.1842
  165SAPE  H11A18533   3.155   4.034   6.295 -0.2588  0.0306 -1.0794
  165SAPE  H11B18534   3.025   4.013   6.414  0.2513  0.4539  0.1235
  165SAPE     P18535   2.822   4.098   6.254  0.2069  0.0828  0.1082
  165SAPE   O1318536   2.763   4.196   6.160 -0.0657  0.3423 -0.2794
  165SAPE   O1418537   2.760   3.966   6.259 -0.0016 -0.2135 -0.1484
  165SAPE   O1218538   2.970   4.086   6.218 -0.0158  0.1704  0.1369
  165SAPE   O1118539   2.837   4.156   6.392  0.2731  0.0854 -0.3008
  165SAPE    C118540   2.856   4.302   6.408  0.5292  0.4356 -0.0243
  165SAPE    HA18541   2.937   4.333   6.338 -0.1569  0.6194 -0.7580
  165SAPE    HB18542   2.763   4.355   6.377  0.8548  1.0908  0.1084
  165SAPE    C218543   2.901   4.330   6.550  0.0349 -0.4781 -0.3846
  165SAPE    HS18544   2.978   4.257   6.581  0.9023  1.0140  1.1985
  165SAPE   O2118545   2.786   4.358   6.640  0.1292 -0.5986 -0.3213
  165SAPE   C2118546   2.721   4.262   6.693  0.4699  0.6498  0.7619
  165SAPE   O2218547   2.744   4.142   6.674 -0.9336  0.5060 -0.2530
  165SAPE   C2218548   2.599   4.319   6.771 -0.6817  0.5548 -0.1155
  165SAPE   H2R18549   2.625   4.382   6.858  0.0058 -0.5146  0.4739
  165SAPE   H2S18550   2.537   4.376   6.699 -1.3306  0.7698  0.6046
  165SAPE    C318551   2.980   4.463   6.546  0.3414  0.1873 -0.1290
  165SAPE    HX18552   2.918   4.536   6.490 -0.0152 -0.4569 -0.5934
  165SAPE    HY18553   3.063   4.451   6.473  0.9754  2.3158  0.1900
  165SAPE   O3118554   3.034   4.498   6.673 -0.0452  0.3970  0.6332
  165SAPE   C3118555   2.987   4.602   6.730  0.3333 -0.5780  0.0263
  165SAPE   O3218556   2.927   4.698   6.680 -0.2365  0.1256 -0.2399
  165SAPE   C3218557   3.028   4.582   6.871  0.0523 -0.1410  0.5307
  165SAPE   H2X18558   3.140   4.584   6.871  0.0711 -0.3625 -1.1229
  165SAPE   H2Y18559   2.999   4.485   6.919  1.3952  0.8974  3.7659
  165SAPE   C2318560   2.524   4.206   6.851 -0.1747  0.4397 -0.3990
  165SAPE   H3R18561   2.484   4.136   6.776 -3.7241  1.1773  0.6331
  165SAPE   H3S18562   2.442   4.255   6.908 -0.9066 -1.0733 -0.1183
  165SAPE   C2418563   2.598   4.125   6.950  0.1886 -0.1793  0.0363
  165SAPE   H4R18564   2.666   4.183   7.016 -0.4082  1.3462 -0.6681
  165SAPE   H4S18565   2.679   4.066   6.902  0.7609  0.3174  0.3819
  165SAPE   C2518566   2.505   4.030   7.029 -0.2376  1.1811  0.8934
  165SAPE   H5R18567   2.484   3.937   6.975  0.0243  1.6890 -0.1138
  165SAPE   C2618568   2.460   4.044   7.155 -0.2174  0.0085 -0.2394
  165SAPE   H6R18569   2.380   3.973   7.182  1.2031 -1.5929 -0.0624
  165SAPE   C2718570   2.495   4.167   7.235 -0.2182 -0.8699 -0.0365
  165SAPE   H7R18571   2.409   4.188   7.302  0.9484 -3.3666  2.4300
  165SAPE   H7S18572   2.483   4.255   7.168 -0.1310 -2.1902 -1.8607
  165SAPE   C2818573   2.618   4.170   7.328 -0.4426  0.0576 -0.2663
  165SAPE   H8R18574   2.708   4.221   7.289 -0.0482 -0.3012  0.1627
  165SAPE   C2918575   2.630   4.140   7.459 -0.4413 -0.2649 -0.1481
  165SAPE   H9R18576   2.730   4.135   7.504 -0.6073  0.1442  0.2633
  165SAPE  C21018577   2.530   4.088   7.557 -0.5240 -0.5469  0.4316
  165SAPE  H10R18578   2.582   4.033   7.638 -0.2524 -1.8940 -0.6243
  165SAPE  H10S18579   2.476   4.013   7.496  1.2366 -0.6277 -1.0988
  165SAPE  C21118580   2.425   4.177   7.619  0.1551  0.3615  0.2590
  165SAPE  H11R18581   2.392   4.267   7.566  1.6550  0.1803 -1.0787
  165SAPE  C21218582   2.367   4.145   7.740 -0.0319 -0.3612  0.0361
  165SAPE  H12R18583   2.289   4.209   7.783 -0.7939  0.0961 -1.9560
  165SAPE  C21318584   2.398   4.021   7.821 -0.1035  0.1247 -0.4422
  165SAPE  H13R18585   2.430   3.938   7.755 -2.3452 -0.5283 -0.8117
  165SAPE  H13S18586   2.308   3.988   7.878  0.6349 -0.3214  0.4937
  165SAPE  C21418587   2.507   4.036   7.925  0.0838 -0.4037 -0.5940
  165SAPE  H14R18588   2.586   4.109   7.903  1.4919 -0.9451  2.2233
  165SAPE  C21518589   2.491   4.003   8.055 -0.4568 -0.0194 -0.3716
  165SAPE  H15R18590   2.578   4.025   8.119 -1.3461  0.5222  0.7006
  165SAPE  C21618591   2.383   3.935   8.133  0.3158 -0.5426  0.3538
  165SAPE  H16R18592   2.423   3.858   8.202  2.9360  1.6293  1.4379
  165SAPE  H16S18593   2.324   3.882   8.055  1.0724  0.9470 -1.2944
  165SAPE  C21718594   2.281   4.014   8.220 -0.2716 -0.5266 -0.1459
  165SAPE  H17R18595   2.330   4.065   8.306  0.2616 -2.6985  0.8935
  165SAPE  H17S18596   2.206   3.945   8.264 -0.5937  0.3489  0.7163
  165SAPE  C21818597   2.188   4.121   8.160  0.4832 -0.0713  0.4967
  165SAPE  H18R18598   2.250   4.195   8.103 -0.8837 -0.0084 -0.9971
  165SAPE  H18S18599   2.138   4.163   8.249 -0.7341  2.3311 -1.2067
  165SAPE  C21918600   2.074   4.080   8.065 -0.4582 -0.9643  0.4229
  165SAPE  H19R18601   2.001   4.012   8.114 -0.8088  1.5736  3.8180
  165SAPE  H19S18602   2.112   4.041   7.969  0.3584  1.2000 -0.1690
  165SAPE  C22018603   1.982   4.203   8.041 -0.1225  0.3561 -0.3765
  165SAPE  H20R18604   1.949   4.258   8.131  3.5976  0.6203  1.0181
  165SAPE  H20S18605   1.896   4.174   7.977  1.1431 -1.5329 -1.3647
  165SAPE  H20T18606   2.032   4.281   7.979  1.3914 -0.8390 -0.7251
  165SAPE   C3318607   2.984   4.680   6.985  0.1582 -0.9659 -0.2711
  165SAPE   H3X18608   2.873   4.687   6.976  0.1028 -1.7445 -0.2737
  165SAPE   H3Y18609   3.030   4.781   6.977  2.3834 -1.6733  2.0476
  165SAPE   C3418610   3.000   4.620   7.124 -0.6334 -0.0296  0.9226
  165SAPE   H4X18611   3.110   4.622   7.140 -0.0919  2.8893 -2.0246
  165SAPE   H4Y18612   2.958   4.519   7.144 -0.6155  0.3115  2.8707
  165SAPE   C3518613   2.951   4.717   7.233  0.2580  0.2970  0.1983
  165SAPE   H5X18614   2.844   4.740   7.211  0.1274 -0.1671  0.3328
  165SAPE   H5Y18615   3.010   4.810   7.228 -0.9703  1.0968  0.0612
  165SAPE   C3618616   2.975   4.657   7.373  0.0143 -0.3192  0.0600
  165SAPE   H6X18617   3.070   4.602   7.388  0.7328 -0.1636 -3.1400
  165SAPE   H6Y18618   2.892   4.583   7.377  0.1501 -0.6181 -1.7758
  165SAPE   C3718619   2.968   4.746   7.495  0.0297 -0.1517  0.3807
  165SAPE   H7X18620   2.877   4.809   7.481 -0.4172 -0.8496  0.1309
  165SAPE   H7Y18621   3.054   4.816   7.487 -0.1681 -0.0971 -1.6005
  165SAPE   C3818622   2.968   4.683   7.632 -0.2705 -0.0973  0.3314
  165SAPE   H8X18623   3.066   4.636   7.655  0.6681  2.4924  2.1451
  165SAPE   H8Y18624   2.887   4.608   7.631 -1.4434  1.1185 -1.4857
  165SAPE   C3918625   2.938   4.780   7.742  0.1394 -0.1620  0.4113
  165SAPE   H9X18626   2.838   4.819   7.713  0.3887 -0.4529 -0.8740
  165SAPE   H9Y18627   3.010   4.864   7.750 -0.9029  1.1416 -2.5418
  165SAPE  C31018628   2.926   4.697   7.868  0.1486  0.3299 -0.1025
  165SAPE  H10X18629   3.029   4.668   7.898  0.9410  2.2446 -0.7911
  165SAPE  H10Y18630   2.859   4.609   7.860 -0.4450  0.6959  0.7238
  165SAPE  C31118631   2.858   4.770   7.983  0.2013  0.5397  0.2545
  165SAPE  H11X18632   2.762   4.812   7.948  0.2309 -1.5763 -2.6933
  165SAPE  H11Y18633   2.911   4.866   8.003  0.8809 -0.2797  2.7607
  165SAPE  C31218634   2.841   4.688   8.110  0.2157  0.8765 -0.0933
  165SAPE  H12X18635   2.779   4.597   8.094  0.5546  0.7381 -0.6532
  165SAPE  H12Y18636   2.792   4.755   8.184 -0.3657  0.0483  0.2857
  165SAPE  C31318637   2.976   4.636   8.153 -0.0240 -0.3618  0.4075
  165SAPE  H13X18638   3.048   4.720   8.142  0.7677 -1.0777 -0.0391
  165SAPE  H13Y18639   3.008   4.563   8.076 -0.5794  0.3122 -0.4853
  165SAPE  C31418640   2.989   4.594   8.300 -0.3594  0.5792  0.0590
  165SAPE  H14X18641   2.909   4.520   8.323 -0.5466  0.7238 -0.1361
  165SAPE  H14Y18642   2.968   4.685   8.359 -3.3292 -0.8559  1.4327
  165SAPE  C31518643   3.132   4.536   8.336  0.3789  0.9443 -0.4971
  165SAPE  H15X18644   3.206   4.588   8.270  1.5189 -1.3071 -1.1132
  165SAPE  H15Y18645   3.146   4.426   8.326  2.0188  0.8641  1.8891
  165SAPE  C31618646   3.169   4.574   8.485  0.3365 -0.3704  0.2839
  165SAPE  H16X18647   3.110   4.506   8.550 -2.1985  0.7156 -0.7152
  165SAPE  H16Y18648   3.122   4.672   8.509 -0.8592  0.0376 -3.1656
  165SAPE  C31718649   3.318   4.573   8.520  0.2540 -0.4245 -0.3497
  165SAPE  H17X18650   3.355   4.470   8.501 -1.7270 -1.7531  2.2924
  165SAPE  H17Y18651   3.325   4.598   8.628  0.8387  0.2816 -0.5463
  165SAPE  C31818652   3.411   4.666   8.444 -0.1642  0.3282 -0.4701
  165SAPE  H18X18653   3.509   4.666   8.496  0.7051 -2.7773 -1.8979
  165SAPE  H18Y18654   3.367   4.767   8.456 -2.6895 -0.7076 -0.3695
  165SAPE  H18Z18655   3.419   4.629   8.340  1.5030  1.2249 -0.7025
  166SAPE     N18656   2.799   1.304   6.187  1.0535  0.2681 -0.1414
  166SAPE   HN118657   2.834   1.337   6.280 -1.1528 -2.2483  1.7471
  166SAPE   HN218658   2.814   1.388   6.128  0.2448 -0.6686 -1.7278
  166SAPE   HN318659   2.695   1.302   6.188  0.8584 -3.0464 -3.7776
  166SAPE   C1218660   2.844   1.183   6.115 -0.1562  0.0821  0.0625
  166SAPE  H12A18661   2.778   1.169   6.027 -1.3393 -0.3264  0.9836
  166SAPE  H12B18662   2.836   1.096   6.183  0.6487 -1.1530 -1.3724
  166SAPE   C1118663   2.986   1.188   6.071 -0.5073  0.2789  0.1324
  166SAPE  H11A18664   3.013   1.086   6.036 -0.4308  0.1497  0.5731
  166SAPE  H11B18665   3.053   1.199   6.159  1.9420 -0.7363 -1.4717
  166SAPE     P18666   3.079   1.423   5.994  0.2577  0.1402  0.1189
  166SAPE   O1318667   3.221   1.409   5.999  0.2381  0.2037 -0.1932
  166SAPE   O1418668   3.016   1.535   5.921 -0.0214  0.4012  0.8813
  166SAPE   O1218669   3.015   1.281   5.962  0.4884  0.5584 -0.1474
  166SAPE   O1118670   3.032   1.456   6.142 -0.4322  0.1616  0.2856
  166SAPE    C118671   3.124   1.542   6.211  0.4898  0.1174  0.3917
  166SAPE    HA18672   3.163   1.630   6.156  1.0055  0.8099  1.8399
  166SAPE    HB18673   3.057   1.590   6.285 -0.6672 -1.6192  0.5232
  166SAPE    C218674   3.241   1.472   6.285 -0.3120  0.4274 -0.3611
  166SAPE    HS18675   3.303   1.409   6.218  2.0230 -0.6699  2.5585
  166SAPE   O2118676   3.181   1.379   6.380 -0.0924 -0.4451 -0.5745
  166SAPE   C2118677   3.257   1.283   6.424 -0.7431 -0.8589 -0.8677
  166SAPE   O2218678   3.363   1.247   6.386 -0.5159  0.1780  0.6334
  166SAPE   C2218679   3.173   1.220   6.535  0.2057  0.1322  0.0871
  166SAPE   H2R18680   3.131   1.299   6.601 -0.1117 -0.6210  0.8114
  166SAPE   H2S18681   3.084   1.174   6.487  1.2460 -1.7273 -0.1294
  166SAPE    C318682   3.336   1.576   6.350  0.0817 -0.0228 -0.6151
  166SAPE    HX18683   3.275   1.623   6.429 -0.8555 -1.6618 -0.3142
  166SAPE    HY18684   3.355   1.656   6.274  2.1490  2.0008  1.8517
  166SAPE   O3118685   3.452   1.503   6.392 -0.0991 -0.0425 -0.2584
  166SAPE   C3118686   3.554   1.494   6.308 -0.4872 -0.6855  0.3041
  166SAPE   O3218687   3.564   1.563   6.204  0.2238 -0.1275 -0.2787
  166SAPE   C3218688   3.650   1.382   6.351  0.1306 -0.6669 -0.1856
  166SAPE   H2X18689   3.737   1.386   6.282  0.0458  0.8502 -0.2293
  166SAPE   H2Y18690   3.597   1.287   6.329 -1.1542 -0.7788  2.9186
  166SAPE   C2318691   3.255   1.114   6.620 -0.5745  0.7330  0.5686
  166SAPE   H3R18692   3.346   1.167   6.655 -0.8405  1.2322  0.5143
  166SAPE   H3S18693   3.287   1.031   6.554  2.9144  2.8989 -0.7804
  166SAPE   C2418694   3.163   1.053   6.732 -0.5611 -0.4017 -0.0803
  166SAPE   H4R18695   3.226   0.980   6.789  1.7313  0.2422 -1.6304
  166SAPE   H4S18696   3.083   0.996   6.681  0.7689 -2.3704 -0.0890
  166SAPE   C2518697   3.097   1.160   6.815  0.4356 -0.7905  0.5579
  166SAPE   H5R18698   3.029   1.226   6.761  0.5297  0.7259  2.1932
  166SAPE   C2618699   3.122   1.194   6.946 -0.6179 -0.0303 -1.0196
  166SAPE   H6R18700   3.054   1.261   6.999  0.4414 -0.0102  0.3773
  166SAPE   C2718701   3.218   1.122   7.041 -0.0827  0.7729 -0.8661
  166SAPE   H7R18702   3.272   1.198   7.100 -0.4703  0.0152  0.5071
  166SAPE   H7S18703   3.285   1.049   6.991 -0.8734 -1.1804  0.7943
  166SAPE   C2818704   3.135   1.044   7.137 -0.4373  1.3946 -0.1080
  166SAPE   H8R18705   3.068   0.972   7.088 -0.6782  0.5491  1.3964
  166SAPE   C2918706   3.111   1.065   7.275  0.6402 -0.5369  0.4385
  166SAPE   H9R18707   3.059   0.988   7.334 -0.2948  0.0372  0.3917
  166SAPE  C21018708   3.172   1.174   7.365 -0.1867 -0.0973  0.2103
  166SAPE  H10R18709   3.170   1.269   7.309  3.3543 -1.4896 -2.6997
  166SAPE  H10S18710   3.283   1.162   7.363 -0.1119  0.4638  0.7660
  166SAPE  C21118711   3.110   1.199   7.503 -0.1509  0.5618 -0.0700
  166SAPE  H11R18712   3.029   1.132   7.536  0.3767 -0.0373  0.0257
  166SAPE  C21218713   3.142   1.302   7.590 -0.3546 -0.4569  0.5226
  166SAPE  H12R18714   3.083   1.306   7.683 -0.0743 -0.6902  0.7089
  166SAPE  C21318715   3.241   1.414   7.575 -0.9021  0.1413  0.5717
  166SAPE  H13R18716   3.221   1.488   7.655 -0.0392  0.3727  0.5822
  166SAPE  H13S18717   3.230   1.468   7.479  0.2659 -0.5521  0.0295
  166SAPE  C21418718   3.388   1.369   7.578 -0.3250  0.4951 -1.0353
  166SAPE  H14R18719   3.427   1.392   7.478  0.2018  0.5673 -0.8132
  166SAPE  C21518720   3.459   1.315   7.684  0.8755 -0.1208 -1.0185
  166SAPE  H15R18721   3.566   1.293   7.673  1.0857 -0.0337  0.7151
  166SAPE  C21618722   3.396   1.282   7.817  0.0836  0.1579  0.2517
  166SAPE  H16R18723   3.467   1.210   7.863 -0.4422  0.0145  0.8492
  166SAPE  H16S18724   3.299   1.229   7.808  0.7351 -0.6843 -3.1263
  166SAPE  C21718725   3.391   1.399   7.913  0.2911 -0.4112  0.9706
  166SAPE  H17R18726   3.306   1.382   7.983 -0.5500  1.0850  0.3649
  166SAPE  H17S18727   3.379   1.496   7.860  3.0586 -1.2102 -1.3380
  166SAPE  C21818728   3.514   1.413   8.006  0.3931  0.3832 -0.0192
  166SAPE  H18R18729   3.602   1.451   7.950 -0.2573  0.1548 -1.2278
  166SAPE  H18S18730   3.536   1.317   8.059 -1.3052  0.7012  1.3153
  166SAPE  C21918731   3.483   1.525   8.099 -1.0473 -0.4957 -0.5611
  166SAPE  H19R18732   3.380   1.523   8.141 -0.8528  1.8989  0.1910
  166SAPE  H19S18733   3.484   1.619   8.039 -0.2032 -0.2763 -0.2047
  166SAPE  C22018734   3.582   1.549   8.219 -0.0247 -0.0055  0.4776
  166SAPE  H20R18735   3.686   1.539   8.183 -0.2211 -0.1701 -0.0561
  166SAPE  H20S18736   3.569   1.469   8.295  2.2051 -2.5053 -1.5275
  166SAPE  H20T18737   3.575   1.647   8.270 -0.8379  0.3256 -0.2561
  166SAPE   C3318738   3.682   1.381   6.504 -0.4961 -0.0180  0.7857
  166SAPE   H3X18739   3.725   1.480   6.530  1.6903 -0.5365 -0.6072
  166SAPE   H3Y18740   3.769   1.316   6.528 -1.6542 -1.1679  2.0249
  166SAPE   C3418741   3.575   1.322   6.591 -0.4042 -0.3266 -0.4933
  166SAPE   H4X18742   3.566   1.213   6.568 -0.8340 -0.0159 -1.8915
  166SAPE   H4Y18743   3.473   1.363   6.578 -0.1528  0.3849 -0.2208
  166SAPE   C3518744   3.617   1.318   6.737 -0.1339 -0.4404  0.2177
  166SAPE   H5X18745   3.586   1.407   6.795  1.1281 -0.3745  0.8344
  166SAPE   H5Y18746   3.728   1.307   6.738 -0.0278 -0.0272 -1.8481
  166SAPE   C3618747   3.557   1.201   6.819  0.3117 -0.3266 -0.0678
  166SAPE   H6X18748   3.582   1.108   6.763  0.9596  1.4296 -2.9018
  166SAPE   H6Y18749   3.448   1.219   6.829  0.6846  4.8432 -2.2085
  166SAPE   C3718750   3.612   1.199   6.955 -0.1922  0.0317 -0.4341
  166SAPE   H7X18751   3.574   1.286   7.013 -0.6817 -0.1659 -0.4542
  166SAPE   H7Y18752   3.722   1.204   6.944  0.0309 -2.5279 -0.0401
  166SAPE   C3818753   3.585   1.076   7.036 -0.1268  0.3249  0.3738
  166SAPE   H8X18754   3.599   0.982   6.978 -1.2717 -0.2967  1.0614
  166SAPE   H8Y18755   3.478   1.083   7.064  0.4278  1.3604  2.4437
  166SAPE   C3918756   3.665   1.073   7.168  0.3350  0.2855 -0.0685
  166SAPE   H9X18757   3.673   1.173   7.215 -2.6489  0.5989 -0.0634
  166SAPE   H9Y18758   3.767   1.029   7.160 -0.0028 -0.8619  1.5515
  166SAPE  C31018759   3.591   0.984   7.265 -0.6397 -0.4786  0.1089
  166SAPE  H10X18760   3.597   0.883   7.218  1.7341 -1.6870  2.6934
  166SAPE  H10Y18761   3.487   1.021   7.276 -0.2367  0.6580  0.2145
  166SAPE  C31118762   3.655   0.993   7.406 -0.3145 -0.1200  0.0847
  166SAPE  H11X18763   3.649   1.097   7.445  3.0615  0.4078 -0.4330
  166SAPE  H11Y18764   3.762   0.964   7.402  0.7545  3.3167 -0.1392
  166SAPE  C31218765   3.589   0.903   7.512 -0.2121 -0.3812  0.3850
  166SAPE  H12X18766   3.606   0.795   7.497  0.8944 -0.1586 -0.0933
  166SAPE  H12Y18767   3.481   0.925   7.506 -0.5945 -1.6726  1.8678
  166SAPE  C31318768   3.630   0.931   7.657  0.3013 -0.4917 -0.7312
  166SAPE  H13X18769   3.595   1.034   7.680  0.8691 -0.5089  0.2396
  166SAPE  H13Y18770   3.741   0.932   7.663  0.2456 -1.8974  1.7257
  166SAPE  C31418771   3.558   0.839   7.763 -0.2719  0.3962  0.2716
  166SAPE  H14X18772   3.624   0.750   7.774 -1.3375 -0.2060  2.2816
  166SAPE  H14Y18773   3.457   0.811   7.725 -0.5963  0.9308  0.7413
  166SAPE  C31518774   3.539   0.913   7.894 -0.0525 -0.3603  1.0169
  166SAPE  H15X18775   3.469   0.996   7.872 -1.1363 -1.4093  0.3956
  166SAPE  H15Y18776   3.634   0.962   7.923 -0.3105  0.8759 -0.1267
  166SAPE  C31618777   3.485   0.819   7.998  0.3024  0.4837 -0.2334
  166SAPE  H16X18778   3.551   0.731   7.992 -1.6285 -1.1428  0.9882
  166SAPE  H16Y18779   3.387   0.778   7.963  0.6312 -1.8759  1.3912
  166SAPE  C31718780   3.485   0.874   8.141  0.4765  0.3144  0.0703
  166SAPE  H17X18781   3.437   0.803   8.212  1.1274 -0.0148  0.1837
  166SAPE  H17Y18782   3.421   0.965   8.144 -0.0780 -0.0765  0.4173
  166SAPE  C31818783   3.619   0.914   8.198  0.3312  0.1524 -0.9473
  166SAPE  H18X18784   3.701   0.843   8.173 -0.1406 -0.2668 -1.3243
  166SAPE  H18Y18785   3.612   0.911   8.309 -1.3644 -1.4221 -1.0446
  166SAPE  H18Z18786   3.651   1.010   8.152  1.4681 -0.2537 -1.0298
  167SAPE     N18787   4.075   5.759   6.030 -1.2564 -0.1007  0.6967
  167SAPE   HN118788   4.111   5.819   5.953  0.5927 -0.8436  0.9382
  167SAPE   HN218789   4.150   5.734   6.097 -1.7634  2.1153  2.2247
  167SAPE   HN318790   4.030   5.671   5.997  0.0045 -1.0793  1.5092
  167SAPE   C1218791   3.971   5.849   6.089  0.2424 -1.0474 -0.2329
  167SAPE  H12A18792   3.967   5.833   6.199  1.6214 -0.5789 -0.0872
  167SAPE  H12B18793   3.870   5.827   6.051 -0.3994 -0.5191  1.1021
  167SAPE   C1118794   4.003   6.005   6.073 -0.0144  0.3490 -0.0896
  167SAPE  H11A18795   3.940   6.070   6.137 -1.7927 -1.7228  0.3729
  167SAPE  H11B18796   3.987   6.025   5.965  2.2507 -3.4602 -1.3412
  167SAPE     P18797   4.205   6.084   6.220  0.1156 -0.0513  0.1654
  167SAPE   O1318798   4.351   6.082   6.209 -0.3441 -0.1714 -0.2224
  167SAPE   O1418799   4.142   6.216   6.256  0.5988  0.0643  0.2709
  167SAPE   O1218800   4.148   6.034   6.082  0.0450 -0.3116 -0.1793
  167SAPE   O1118801   4.157   5.981   6.325 -0.1244  0.4195  0.1559
  167SAPE    C118802   4.053   6.006   6.420 -0.7269  0.4432 -0.2892
  167SAPE    HA18803   4.038   6.113   6.444  1.4342  0.8610 -0.6497
  167SAPE    HB18804   3.958   5.969   6.376 -0.7743  0.2758 -0.0495
  167SAPE    C218805   4.084   5.937   6.558  0.4480  0.5130  0.0953
  167SAPE    HS18806   4.007   5.978   6.627 -0.1988  0.7804 -0.7650
  167SAPE   O2118807   4.216   5.978   6.596 -0.4456 -0.3710  0.8322
  167SAPE   C2118808   4.245   6.101   6.636  0.0017  0.4158 -0.5796
  167SAPE   O2218809   4.171   6.195   6.645 -0.0392 -0.3368 -0.9589
  167SAPE   C2218810   4.400   6.104   6.674  0.4704 -0.0213 -0.1410
  167SAPE   H2R18811   4.468   6.130   6.590 -0.3598  0.9904 -0.5280
  167SAPE   H2S18812   4.399   6.179   6.756 -1.0896 -0.3270  0.1666
  167SAPE    C318813   4.066   5.789   6.572  0.6065  0.4585 -0.5216
  167SAPE    HX18814   4.127   5.730   6.500 -0.5530 -0.6259 -0.6468
  167SAPE    HY18815   3.964   5.751   6.551  0.7681 -0.7724  0.8010
  167SAPE   O3118816   4.104   5.740   6.705  0.2272 -0.2596 -0.9758
  167SAPE   C3118817   4.000   5.747   6.790 -0.8000  0.8680  0.3140
  167SAPE   O3218818   3.889   5.798   6.780  0.2937 -0.0492 -0.3793
  167SAPE   C3218819   4.045   5.681   6.915 -0.0437  0.2602 -0.3986
  167SAPE   H2X18820   4.155   5.670   6.930 -0.3894 -3.2325  0.4245
  167SAPE   H2Y18821   4.010   5.578   6.935 -2.7312  1.3621  1.1126
  167SAPE   C2318822   4.456   5.981   6.754 -0.0081 -0.0880  0.2001
  167SAPE   H3R18823   4.565   5.982   6.775 -0.5678  1.3146  3.7866
  167SAPE   H3S18824   4.456   5.895   6.683 -0.0133  0.2322 -0.1893
  167SAPE   C2418825   4.383   5.973   6.889 -0.0385 -0.1793 -0.3619
  167SAPE   H4R18826   4.273   5.968   6.874 -0.6599  1.0095  2.9049
  167SAPE   H4S18827   4.406   6.067   6.944  0.6690  1.2486 -2.9296
  167SAPE   C2518828   4.420   5.845   6.964  0.7756 -0.2137  0.4621
  167SAPE   H5R18829   4.393   5.755   6.907 -0.3462 -1.8441  3.3418
  167SAPE   C2618830   4.456   5.828   7.091 -0.1685 -0.7574 -0.1560
  167SAPE   H6R18831   4.475   5.727   7.131 -1.9962 -1.0689 -0.0207
  167SAPE   C2718832   4.468   5.935   7.198 -0.4853 -0.0646  0.9052
  167SAPE   H7R18833   4.474   6.034   7.147 -2.1225  0.9548  2.5635
  167SAPE   H7S18834   4.566   5.908   7.242  0.9647  1.1162 -1.4312
  167SAPE   C2818835   4.359   5.955   7.305  0.1102  0.2404 -0.2991
  167SAPE   H8R18836   4.262   5.986   7.265  0.3699 -0.2549 -1.3678
  167SAPE   C2918837   4.373   5.943   7.437 -0.4099  0.3921 -0.8325
  167SAPE   H9R18838   4.281   5.954   7.495 -1.2618 -0.2779 -2.0090
  167SAPE  C21018839   4.497   5.895   7.510  0.2828  0.2182 -0.0961
  167SAPE  H10R18840   4.567   5.980   7.528  0.3116  0.6861 -2.1805
  167SAPE  H10S18841   4.548   5.815   7.453  0.9704  0.7370 -0.2240
  167SAPE  C21118842   4.443   5.827   7.638 -0.5820  0.1825 -0.4216
  167SAPE  H11R18843   4.396   5.729   7.622  0.0152 -0.2228  0.2594
  167SAPE  C21218844   4.455   5.876   7.767 -1.0089  0.1627  1.2205
  167SAPE  H12R18845   4.405   5.816   7.844 -0.1440 -2.0964  0.1185
  167SAPE  C21318846   4.533   6.000   7.808 -0.3124 -0.8527 -0.0614
  167SAPE  H13R18847   4.565   6.048   7.713  0.5260 -0.9244  0.1814
  167SAPE  H13S18848   4.624   5.963   7.859 -0.6831 -1.4222  0.2094
  167SAPE  C21418849   4.463   6.096   7.900 -0.1187 -0.3585  0.4932
  167SAPE  H14R18850   4.411   6.181   7.853  2.9628  1.0619 -0.6251
  167SAPE  C21518851   4.438   6.066   8.027 -0.5769 -0.1891  0.0019
  167SAPE  H15R18852   4.395   6.155   8.076  0.4823  0.8124 -0.8608
  167SAPE  C21618853   4.486   5.951   8.110 -0.6012  0.3119  0.4527
  167SAPE  H16R18854   4.529   5.869   8.049 -3.6185 -1.2904  0.2950
  167SAPE  H16S18855   4.399   5.898   8.154  1.1316 -1.2426  2.1874
  167SAPE  C21718856   4.579   5.984   8.235 -0.7295  0.4872 -0.7803
  167SAPE  H17R18857   4.528   6.066   8.290 -3.0469 -0.1485 -1.8418
  167SAPE  H17S18858   4.673   6.029   8.197  1.1658 -3.0851 -0.7687
  167SAPE  C21818859   4.622   5.872   8.324 -0.1750 -0.0651  0.4788
  167SAPE  H18R18860   4.671   5.791   8.266 -2.1646 -1.7182  0.9981
  167SAPE  H18S18861   4.530   5.827   8.366  1.3340 -1.5004  2.4362
  167SAPE  C21918862   4.716   5.916   8.436  0.0110  0.2382 -0.0070
  167SAPE  H19R18863   4.667   5.990   8.502 -0.4211  1.0754 -1.2319
  167SAPE  H19S18864   4.800   5.968   8.385 -0.4513  0.9215 -0.0879
  167SAPE  C22018865   4.765   5.793   8.524  0.4554 -0.2789 -0.2790
  167SAPE  H20R18866   4.827   5.728   8.458 -1.8640  0.7511 -3.7491
  167SAPE  H20S18867   4.678   5.749   8.576  1.1815  0.0087  1.2181
  167SAPE  H20T18868   4.829   5.825   8.609  0.1128 -0.9860  0.2514
  167SAPE   C3318869   4.007   5.773   7.037  0.2691  0.2804 -0.1773
  167SAPE   H3X18870   3.896   5.784   7.042  0.3184  2.1384 -1.9372
  167SAPE   H3Y18871   4.056   5.872   7.023  0.7670  0.2025  0.9113
  167SAPE   C3418872   4.062   5.720   7.173 -0.5217  0.3627 -0.1544
  167SAPE   H4X18873   4.171   5.702   7.180 -0.7075 -1.2293 -0.9990
  167SAPE   H4Y18874   4.023   5.616   7.181  0.1712  0.2101  1.7917
  167SAPE   C3518875   4.011   5.793   7.292 -0.0576 -0.4741  0.8466
  167SAPE   H5X18876   3.900   5.801   7.286 -0.0075 -0.4177 -0.0496
  167SAPE   H5Y18877   4.047   5.898   7.299  0.5238 -0.7184  1.7242
  167SAPE   C3618878   4.050   5.716   7.418  0.1458  0.3323 -0.7745
  167SAPE   H6X18879   4.159   5.722   7.434 -0.0457  0.3073  0.6377
  167SAPE   H6Y18880   4.012   5.612   7.429  1.6383  0.0253  2.5939
  167SAPE   C3718881   4.001   5.782   7.549  0.2832 -0.2853  0.3545
  167SAPE   H7X18882   3.892   5.793   7.567 -0.2111  0.0952 -2.4736
  167SAPE   H7Y18883   4.048   5.882   7.561  0.3823 -0.5643  2.7613
  167SAPE   C3818884   4.056   5.699   7.665  0.1644 -0.2968 -0.0463
  167SAPE   H8X18885   4.154   5.652   7.642 -0.5702 -2.5998  1.2038
  167SAPE   H8Y18886   3.984   5.615   7.675  1.0713 -1.0507  0.2867
  167SAPE   C3918887   4.073   5.775   7.797  0.8934 -0.7362  0.9982
  167SAPE   H9X18888   3.975   5.811   7.836 -0.5663 -1.9605 -1.3231
  167SAPE   H9Y18889   4.142   5.860   7.779 -0.4981  0.6160  1.8011
  167SAPE  C31018890   4.125   5.680   7.905  0.1312  0.4994  0.4466
  167SAPE  H10X18891   4.225   5.639   7.881 -0.0012 -0.6052  1.6821
  167SAPE  H10Y18892   4.060   5.590   7.915  2.9848 -1.7440  0.0719
  167SAPE  C31118893   4.151   5.743   8.036 -0.0396  0.4118  0.3495
  167SAPE  H11X18894   4.074   5.817   8.067 -1.8486 -1.8361  1.6381
  167SAPE  H11Y18895   4.254   5.783   8.034  0.6425 -1.2643  0.6763
  167SAPE  C31218896   4.151   5.642   8.154 -0.4718  0.2341 -0.5638
  167SAPE  H12X18897   4.197   5.545   8.127 -1.5578 -0.3846 -0.2555
  167SAPE  H12Y18898   4.045   5.614   8.172  0.2883 -1.9350  0.8329
  167SAPE  C31318899   4.210   5.704   8.276 -0.3371  0.5150 -0.3640
  167SAPE  H13X18900   4.171   5.809   8.275 -1.4076  0.1403  0.3661
  167SAPE  H13Y18901   4.320   5.713   8.274 -0.3566  1.0023 -2.4446
  167SAPE  C31418902   4.175   5.634   8.407  0.1786 -0.3474 -0.3594
  167SAPE  H14X18903   4.222   5.534   8.411 -1.3835 -1.0798  2.3642
  167SAPE  H14Y18904   4.064   5.627   8.409  0.2273 -1.1983 -0.5723
  167SAPE  C31518905   4.211   5.704   8.533  0.6929 -0.0124 -0.1328
  167SAPE  H15X18906   4.149   5.795   8.548 -1.7029 -1.6496  0.5128
  167SAPE  H15Y18907   4.316   5.734   8.515  0.7982 -0.7702 -0.8020
  167SAPE  C31618908   4.218   5.602   8.651 -0.2862 -0.6502  0.2433
  167SAPE  H16X18909   4.261   5.508   8.610  2.3165  0.7549 -0.4652
  167SAPE  H16Y18910   4.115   5.585   8.688 -0.9584  0.4664 -1.0332
  167SAPE  C31718911   4.304   5.658   8.766  0.1183 -0.2549 -0.1432
  167SAPE  H17X18912   4.406   5.696   8.741 -0.0206 -0.1040 -0.4802
  167SAPE  H17Y18913   4.300   5.572   8.836 -3.9252 -2.0890 -2.2860
  167SAPE  C31818914   4.244   5.780   8.840 -0.1855 -0.1517 -0.2596
  167SAPE  H18X18915   4.134   5.775   8.855 -0.0031 -0.5916  1.0941
  167SAPE  H18Y18916   4.245   5.868   8.773  0.3407  0.6979  0.8155
  167SAPE  H18Z18917   4.297   5.808   8.934 -0.7557  3.1141 -0.7956
  168SAPE     N18918   6.144   2.271   6.382 -0.8742  0.3462  0.3941
  168SAPE   HN118919   6.094   2.363   6.375  2.4183  2.2637  0.0678
  168SAPE   HN218920   6.221   2.264   6.314  0.3161  0.2285  1.7092
  168SAPE   HN318921   6.082   2.192   6.354  1.1295 -0.3859 -2.3305
  168SAPE   C1218922   6.210   2.255   6.514 -0.2211  0.2046 -0.1612
  168SAPE  H12A18923   6.263   2.157   6.511  0.9507  0.8303 -0.6945
  168SAPE  H12B18924   6.130   2.253   6.591 -1.6929  0.5331 -1.6246
  168SAPE   C1118925   6.319   2.369   6.524  0.2802  0.0565  0.1955
  168SAPE  H11A18926   6.385   2.363   6.613 -0.2507 -0.4452  0.5618
  168SAPE  H11B18927   6.256   2.460   6.541  0.1351  0.1746 -0.8953
  168SAPE     P18928   6.548   2.346   6.391 -0.4515  0.0902 -0.2382
  168SAPE   O1318929   6.567   2.264   6.271  0.4356  0.3595 -0.6764
  168SAPE   O1418930   6.628   2.470   6.407  0.4440  0.0880 -0.2158
  168SAPE   O1218931   6.392   2.382   6.400 -0.3558 -0.0498  0.1302
  168SAPE   O1118932   6.564   2.258   6.526  0.4773 -0.2293  0.4046
  168SAPE    C118933   6.567   2.108   6.515 -0.3055 -0.4281 -0.1500
  168SAPE    HA18934   6.479   2.068   6.460  0.8219 -2.1379 -0.7962
  168SAPE    HB18935   6.667   2.077   6.477  0.5606  1.9697  0.0312
  168SAPE    C218936   6.552   2.048   6.656 -0.0141 -0.1047  0.2451
  168SAPE    HS18937   6.446   2.051   6.690 -0.2742 -2.1630 -0.2206
  168SAPE   O2118938   6.642   2.105   6.757 -0.1292 -0.0943 -0.0688
  168SAPE   C2118939   6.599   2.201   6.832  0.1623 -0.7065  0.2227
  168SAPE   O2218940   6.486   2.252   6.837  0.2627  0.2000  0.6198
  168SAPE   C2218941   6.708   2.263   6.919  0.3043  0.3312  0.9728
  168SAPE   H2R18942   6.785   2.303   6.849 -0.4757 -0.5162 -0.4262
  168SAPE   H2S18943   6.666   2.349   6.975  0.8526  0.2082  1.5844
  168SAPE    C318944   6.582   1.891   6.655  0.1097 -0.6958 -0.2482
  168SAPE    HX18945   6.681   1.889   6.603 -1.1983 -2.5537 -2.8823
  168SAPE    HY18946   6.509   1.837   6.592  0.4967 -3.1729  1.2921
  168SAPE   O3118947   6.594   1.829   6.784  0.2728  0.6397 -0.5826
  168SAPE   C3118948   6.715   1.827   6.841 -0.1368 -0.6938 -0.0156
  168SAPE   O3218949   6.821   1.859   6.792  0.0640 -0.2229 -0.5831
  168SAPE   C3218950   6.700   1.760   6.975  0.0222 -0.7861 -0.5768
  168SAPE   H2X18951   6.662   1.658   6.954 -0.6706 -0.3470 -1.4922
  168SAPE   H2Y18952   6.631   1.811   7.045 -0.7726 -4.2830  1.4493
  168SAPE   C2318953   6.774   2.174   7.022 -0.0287  0.3143 -0.4593
  168SAPE   H3R18954   6.861   2.224   7.070 -0.7408 -0.6708  1.9774
  168SAPE   H3S18955   6.807   2.078   6.977  1.9765  0.5764  0.3569
  168SAPE   C2418956   6.680   2.139   7.142 -0.6667  0.1193  0.0358
  168SAPE   H4R18957   6.760   2.084   7.196 -1.0005 -1.3429 -0.8722
  168SAPE   H4S18958   6.631   2.043   7.116  1.6570 -0.5614 -2.3502
  168SAPE   C2518959   6.611   2.248   7.225  0.2570  0.4920 -0.4369
  168SAPE   H5R18960   6.545   2.323   7.179 -0.9409  1.1884  2.2109
  168SAPE   C2618961   6.626   2.247   7.364 -0.8932 -1.0282  0.6570
  168SAPE   H6R18962   6.581   2.322   7.430  1.1258  1.0258 -0.1892
  168SAPE   C2718963   6.702   2.144   7.444 -0.4365 -0.4466  0.1285
  168SAPE   H7R18964   6.736   2.050   7.395 -0.2355 -0.0721 -0.4555
  168SAPE   H7S18965   6.629   2.106   7.519  0.7820  0.3061  1.7394
  168SAPE   C2818966   6.812   2.207   7.517  0.5724 -0.0397  0.5392
  168SAPE   H8R18967   6.910   2.195   7.469  1.7335  2.3607  2.0795
  168SAPE   C2918968   6.813   2.265   7.637  0.0799  1.3006 -0.4300
  168SAPE   H9R18969   6.912   2.300   7.669 -0.5445  1.8619  0.9798
  168SAPE  C21018970   6.700   2.287   7.734  0.2045  0.5498 -0.2723
  168SAPE  H10R18971   6.617   2.213   7.724  2.0124 -1.3327 -2.6133
  168SAPE  H10S18972   6.655   2.387   7.715  0.1263  0.5317 -0.1817
  168SAPE  C21118973   6.752   2.277   7.874 -0.2812 -0.2683 -0.1499
  168SAPE  H11R18974   6.811   2.192   7.909  0.1293  0.8162  1.9231
  168SAPE  C21218975   6.730   2.362   7.973  0.2094  0.0990 -0.4488
  168SAPE  H12R18976   6.761   2.338   8.076 -0.0224 -0.4331 -0.4991
  168SAPE  C21318977   6.642   2.492   7.967 -0.2847  0.4881 -0.1595
  168SAPE  H13R18978   6.638   2.528   7.862  0.2239  0.4707 -0.1873
  168SAPE  H13S18979   6.684   2.572   8.032  0.6362 -0.4455  0.4308
  168SAPE  C21418980   6.499   2.455   7.996 -0.1595  0.0722  0.1411
  168SAPE  H14R18981   6.450   2.412   7.908  2.1211 -0.4106 -0.9764
  168SAPE  C21518982   6.432   2.463   8.111 -0.0979 -0.8943  0.7664
  168SAPE  H15R18983   6.326   2.438   8.105 -0.2596 -0.1562  0.3805
  168SAPE  C21618984   6.485   2.512   8.242 -0.0885 -0.0253  0.7341
  168SAPE  H16R18985   6.578   2.453   8.254  1.2129  1.8551  0.4499
  168SAPE  H16S18986   6.417   2.484   8.325 -0.6673 -1.8575 -0.3095
  168SAPE  C21718987   6.499   2.668   8.249  0.3245  0.5196  0.5584
  168SAPE  H17R18988   6.569   2.705   8.171 -1.1581  0.2651 -0.9649
  168SAPE  H17S18989   6.551   2.688   8.345 -0.3309 -0.0936  1.0543
  168SAPE  C21818990   6.363   2.742   8.253 -0.1172  0.6677  0.2563
  168SAPE  H18R18991   6.295   2.723   8.168  1.6406  0.5605 -1.1945
  168SAPE  H18S18992   6.378   2.851   8.234  3.3312  0.2190 -0.3202
  168SAPE  C21918993   6.270   2.714   8.369  0.6489 -0.4850 -0.1442
  168SAPE  H19R18994   6.326   2.709   8.464  0.2656  1.2426  0.2047
  168SAPE  H19S18995   6.229   2.611   8.352 -5.1795  1.0634  2.0231
  168SAPE  C22018996   6.154   2.821   8.383 -0.1796 -0.4802 -0.3676
  168SAPE  H20R18997   6.087   2.817   8.294  0.5228 -0.4518 -0.9068
  168SAPE  H20S18998   6.215   2.910   8.406 -1.6260 -0.0476  2.1975
  168SAPE  H20T18999   6.097   2.781   8.470  0.7975 -1.4711 -0.1567
  168SAPE   C3319000   6.831   1.746   7.047 -0.1590 -0.5949 -0.6069
  168SAPE   H3X19001   6.864   1.849   7.073  0.4759 -1.5285  2.7343
  168SAPE   H3Y19002   6.915   1.700   6.992 -0.4751 -1.7254 -0.1595
  168SAPE   C3419003   6.803   1.668   7.181  0.3704  0.0583  0.1978
  168SAPE   H4X19004   6.890   1.604   7.207  0.0318 -0.5053 -0.0372
  168SAPE   H4Y19005   6.724   1.592   7.163  1.2206 -0.2640 -2.9059
  168SAPE   C3519006   6.789   1.769   7.303  0.1342  0.0995 -0.4385
  168SAPE   H5X19007   6.715   1.849   7.280  0.0367  0.1682  0.1137
  168SAPE   H5Y19008   6.888   1.821   7.302  1.3202 -2.0612 -0.8068
  168SAPE   C3619009   6.777   1.693   7.438 -0.2592  0.8385 -0.0203
  168SAPE   H6X19010   6.866   1.631   7.462  0.7969  1.8829 -1.0744
  168SAPE   H6Y19011   6.688   1.627   7.434 -0.3303  0.9958 -2.2198
  168SAPE   C3719012   6.764   1.782   7.558 -0.5374  0.0813  0.4155
  168SAPE   H7X19013   6.659   1.810   7.579 -0.4080  1.7308 -0.9347
  168SAPE   H7Y19014   6.826   1.872   7.539 -1.1229 -0.2767 -4.4511
  168SAPE   C3819015   6.802   1.712   7.680  0.5360  1.0030 -0.4915
  168SAPE   H8X19016   6.907   1.678   7.672 -0.2837 -1.6528 -1.0843
  168SAPE   H8Y19017   6.728   1.628   7.686 -0.5896  1.8655 -1.6033
  168SAPE   C3919018   6.788   1.782   7.820 -0.8266 -0.2531 -0.4519
  168SAPE   H9X19019   6.683   1.819   7.827 -0.6818 -0.1447  2.0887
  168SAPE   H9Y19020   6.856   1.868   7.802 -1.3768  0.0985 -0.9035
  168SAPE  C31019021   6.818   1.691   7.932  0.2821 -0.5876 -0.4849
  168SAPE  H10X19022   6.929   1.690   7.940  0.3144  0.5025 -0.6844
  168SAPE  H10Y19023   6.788   1.586   7.916  1.9657 -1.0737 -0.6326
  168SAPE  C31119024   6.758   1.731   8.062 -0.1266 -0.3198  0.1261
  168SAPE  H11X19025   6.771   1.651   8.139  3.4782  0.9568  1.0404
  168SAPE  H11Y19026   6.650   1.734   8.035 -0.1686  0.8832  0.3525
  168SAPE  C31219027   6.811   1.874   8.108  0.1002 -0.1421  0.0480
  168SAPE  H12X19028   6.790   1.935   8.017 -0.1827 -2.6851 -1.7139
  168SAPE  H12Y19029   6.920   1.858   8.122 -0.3286 -0.7370  3.2253
  168SAPE  C31319030   6.747   1.930   8.239  0.6513  0.4089  0.5404
  168SAPE  H13X19031   6.775   1.858   8.318  0.0184 -1.8558 -1.1880
  168SAPE  H13Y19032   6.637   1.921   8.225  0.8040  0.0454 -0.5456
  168SAPE  C31419033   6.785   2.084   8.263 -0.2018  0.3907 -0.7025
  168SAPE  H14X19034   6.732   2.145   8.186 -0.2288 -0.6060 -1.4938
  168SAPE  H14Y19035   6.888   2.094   8.223 -0.7243  1.3171 -1.8953
  168SAPE  C31519036   6.762   2.136   8.406 -0.2622  0.0981  0.2628
  168SAPE  H15X19037   6.801   2.062   8.480  0.8207  0.0603 -0.3413
  168SAPE  H15Y19038   6.652   2.138   8.423 -0.1827 -1.2594  1.1540
  168SAPE  C31619039   6.802   2.287   8.437 -0.3371 -0.0331  0.4177
  168SAPE  H16X19040   6.732   2.347   8.375  0.4664 -0.3710 -0.8515
  168SAPE  H16Y19041   6.910   2.311   8.425 -0.1596 -1.4459 -1.2879
  168SAPE  C31719042   6.770   2.328   8.580  0.0425 -0.4454 -0.0170
  168SAPE  H17X19043   6.831   2.274   8.656  1.5886 -0.7243 -1.3733
  168SAPE  H17Y19044   6.669   2.287   8.600 -0.0486  0.2333  0.9515
  168SAPE  C31819045   6.778   2.476   8.602 -0.5582 -0.1816  1.1456
  168SAPE  H18X19046   6.702   2.533   8.545  0.8982  1.8887  1.1799
  168SAPE  H18Y19047   6.874   2.518   8.565 -1.4756  2.7435  1.8106
  168SAPE  H18Z19048   6.783   2.513   8.707 -0.2276  1.2162  0.6580
  169SAPE     N19049   5.223   3.047   6.403  0.0513 -0.0259 -0.2818
  169SAPE   HN119050   5.280   2.980   6.459  0.6485  0.1254 -0.6932
  169SAPE   HN219051   5.274   3.138   6.409 -1.7633  0.9485  1.0468
  169SAPE   HN319052   5.134   3.069   6.452  0.6241 -1.5322  1.5316
  169SAPE   C1219053   5.183   3.011   6.261  0.4324 -0.1666  0.7275
  169SAPE  H12A19054   5.132   2.913   6.250 -0.2735  0.2664 -0.0486
  169SAPE  H12B19055   5.268   2.998   6.191 -0.3119  1.8605 -0.6792
  169SAPE   C1119056   5.110   3.128   6.186 -0.4802  0.2953 -0.2394
  169SAPE  H11A19057   5.003   3.121   6.215  0.3121 -3.5647  2.4708
  169SAPE  H11B19058   5.120   3.105   6.078  1.0045 -0.2342 -0.0110
  169SAPE     P19059   5.079   3.387   6.200  0.1689 -0.1242 -0.3029
  169SAPE   O1319060   5.159   3.507   6.216 -0.5024 -0.3506 -0.5059
  169SAPE   O1419061   5.006   3.381   6.071 -0.2211  1.1454 -0.5812
  169SAPE   O1219062   5.173   3.262   6.210 -0.0711  0.2482  0.3712
  169SAPE   O1119063   4.978   3.365   6.321  0.5601  0.1704 -0.0423
  169SAPE    C119064   4.977   3.439   6.444 -1.1631 -0.1153  0.5600
  169SAPE    HA19065   5.058   3.515   6.452  0.2527 -1.4602 -0.5355
  169SAPE    HB19066   4.885   3.501   6.454 -1.1755  0.9583 -4.1823
  169SAPE    C219067   4.992   3.339   6.560 -0.2623 -0.0118  0.1201
  169SAPE    HS19068   5.079   3.276   6.532 -0.0836  0.0340  0.5542
  169SAPE   O2119069   4.877   3.264   6.587 -0.3040 -0.0171 -0.4379
  169SAPE   C2119070   4.874   3.145   6.548 -0.0724  0.7215 -0.5315
  169SAPE   O2219071   4.968   3.079   6.502 -0.0736  0.6773  0.0188
  169SAPE   C2219072   4.731   3.088   6.565 -0.1350 -0.1159  0.4967
  169SAPE   H2R19073   4.674   3.118   6.474 -0.4224  2.5234  1.4342
  169SAPE   H2S19074   4.741   2.979   6.577  1.7311  0.1643  1.9689
  169SAPE    C319075   5.029   3.420   6.688  0.7155 -0.4049  0.6205
  169SAPE    HX19076   4.953   3.498   6.707  1.0246  0.1492 -0.3340
  169SAPE    HY19077   5.118   3.483   6.667  0.5706  0.2446  1.8780
  169SAPE   O3119078   5.050   3.342   6.807  0.7650  0.0643  0.6343
  169SAPE   C3119079   5.179   3.297   6.832 -0.0010 -0.4642 -0.2645
  169SAPE   O3219080   5.267   3.292   6.747 -0.5125  0.1992 -0.0622
  169SAPE   C3219081   5.186   3.251   6.976 -0.2539  0.2293  0.3868
  169SAPE   H2X19082   5.114   3.169   6.999 -1.1016  0.7794 -0.2438
  169SAPE   H2Y19083   5.160   3.333   7.046 -6.4552  0.8572 -2.0049
  169SAPE   C2319084   4.660   3.128   6.686  0.2392  0.3323  0.1151
  169SAPE   H3R19085   4.623   3.232   6.668 -0.8162  0.1275  0.9923
  169SAPE   H3S19086   4.719   3.130   6.780 -0.5746  1.7945  0.6275
  169SAPE   C2419087   4.554   3.027   6.728  0.2876 -0.1967 -0.1326
  169SAPE   H4R19088   4.602   2.944   6.784  1.6023 -0.0118 -0.9581
  169SAPE   H4S19089   4.504   2.982   6.639 -1.2693  2.2963 -0.6297
  169SAPE   C2519090   4.434   3.091   6.804  0.0776 -0.5411  0.1326
  169SAPE   H5R19091   4.381   3.169   6.747  1.2438  0.5602  0.5168
  169SAPE   C2619092   4.397   3.073   6.928 -0.2036  0.4145 -0.0815
  169SAPE   H6R19093   4.313   3.136   6.961 -2.4394 -1.3997 -1.9311
  169SAPE   C2719094   4.471   2.984   7.029  0.1318  0.5766 -0.4070
  169SAPE   H7R19095   4.547   3.038   7.089  1.4487 -1.6749  0.0512
  169SAPE   H7S19096   4.521   2.905   6.970 -3.1363 -1.7181 -0.3754
  169SAPE   C2819097   4.375   2.922   7.133  0.0002  0.4332 -0.3467
  169SAPE   H8R19098   4.281   2.894   7.084 -0.2580  0.3281  0.2010
  169SAPE   C2919099   4.389   2.909   7.267  0.5721 -0.8595 -0.1331
  169SAPE   H9R19100   4.305   2.863   7.320 -0.2746  1.7752  0.9374
  169SAPE  C21019101   4.513   2.933   7.347 -0.0649  0.2237 -0.0764
  169SAPE  H10R19102   4.603   2.946   7.284  0.2353  1.2903  0.5578
  169SAPE  H10S19103   4.534   2.839   7.403  1.3662  0.4961 -0.1338
  169SAPE  C21119104   4.499   3.044   7.445 -0.5287  0.0002  0.0035
  169SAPE  H11R19105   4.425   3.119   7.413  0.8432  0.8707 -1.2933
  169SAPE  C21219106   4.558   3.073   7.565 -0.0416 -0.2257  0.2238
  169SAPE  H12R19107   4.525   3.158   7.627  0.0596 -0.4531  0.5892
  169SAPE  C21319108   4.655   2.975   7.631  0.0197  0.0034  0.1023
  169SAPE  H13R19109   4.736   3.024   7.690  0.4944 -1.5246  0.7731
  169SAPE  H13S19110   4.712   2.918   7.555 -0.4922  0.9088 -0.9823
  169SAPE  C21419111   4.583   2.869   7.702 -0.0019  0.9274  0.6336
  169SAPE  H14R19112   4.541   2.790   7.638 -0.3164  0.3737  1.4992
  169SAPE  C21519113   4.571   2.847   7.833 -0.0944 -0.5761 -0.4051
  169SAPE  H15R19114   4.505   2.768   7.872 -0.3417  0.3393  1.1422
  169SAPE  C21619115   4.624   2.929   7.950 -0.1268  0.7626  0.6515
  169SAPE  H16R19116   4.722   2.977   7.933  1.5158 -2.2670  0.9143
  169SAPE  H16S19117   4.634   2.855   8.032  0.6087 -0.1901 -0.2634
  169SAPE  C21719118   4.533   3.052   7.996 -0.1024  0.5724  0.0531
  169SAPE  H17R19119   4.441   3.019   8.049  0.7975 -1.1186  0.6737
  169SAPE  H17S19120   4.506   3.111   7.906  3.4122  0.7702 -1.0432
  169SAPE  C21819121   4.610   3.145   8.091 -0.0076  0.4520  0.4092
  169SAPE  H18R19122   4.557   3.242   8.100 -1.7430 -0.2751 -1.3271
  169SAPE  H18S19123   4.713   3.153   8.050  0.7480 -0.6074  1.9929
  169SAPE  C21919124   4.643   3.103   8.236  0.1145  0.2944 -0.1242
  169SAPE  H19R19125   4.692   3.004   8.229 -3.0436 -1.3196 -0.9849
  169SAPE  H19S19126   4.546   3.083   8.286 -0.6524 -0.2882 -1.7690
  169SAPE  C22019127   4.727   3.202   8.320 -0.3461  0.0014  0.4411
  169SAPE  H20R19128   4.835   3.194   8.293 -0.0641  0.3633  1.4447
  169SAPE  H20S19129   4.713   3.180   8.428  0.7638 -0.3942  0.5159
  169SAPE  H20T19130   4.695   3.308   8.307  0.6860  0.0474 -2.5476
  169SAPE   C3319131   5.319   3.172   7.003  0.0898  0.5429 -0.0926
  169SAPE   H3X19132   5.396   3.248   6.975  0.3413  0.6400  0.8283
  169SAPE   H3Y19133   5.322   3.089   6.929  0.3124  1.0577 -0.6659
  169SAPE   C3419134   5.337   3.124   7.145 -0.2815 -0.0311 -0.2036
  169SAPE   H4X19135   5.254   3.053   7.164 -1.5435  1.6264  0.8532
  169SAPE   H4Y19136   5.324   3.208   7.218 -1.3901 -0.8668  0.5976
  169SAPE   C3519137   5.474   3.065   7.178 -0.0348  0.4203 -0.0674
  169SAPE   H5X19138   5.545   3.148   7.199 -0.7853  1.3236 -1.0033
  169SAPE   H5Y19139   5.523   3.022   7.088  0.9300 -1.7137  1.3855
  169SAPE   C3619140   5.485   2.977   7.303  1.1539  0.5981 -0.3969
  169SAPE   H6X19141   5.397   2.909   7.306  0.3715  1.5574 -0.6627
  169SAPE   H6Y19142   5.478   3.041   7.394  0.3288 -1.2213  0.8689
  169SAPE   C3719143   5.616   2.897   7.309  0.3565 -0.8981 -0.7061
  169SAPE   H7X19144   5.709   2.957   7.312 -0.7697  0.8696  1.9911
  169SAPE   H7Y19145   5.627   2.844   7.211  2.1564 -0.8992 -0.5302
  169SAPE   C3819146   5.621   2.790   7.416  0.2485 -0.3446  0.1211
  169SAPE   H8X19147   5.717   2.740   7.391 -0.1825 -0.3606 -1.6744
  169SAPE   H8Y19148   5.536   2.721   7.395 -0.2311  0.4810 -0.7233
  169SAPE   C3919149   5.607   2.847   7.552  0.2448  0.0521 -0.1362
  169SAPE   H9X19150   5.514   2.905   7.566  0.7726  0.7193  0.7047
  169SAPE   H9Y19151   5.687   2.922   7.569  1.8367 -1.5423 -0.2276
  169SAPE  C31019152   5.627   2.746   7.664  0.5035 -0.4341  0.5174
  169SAPE  H10X19153   5.731   2.706   7.664  0.5783 -0.2518 -0.3231
  169SAPE  H10Y19154   5.571   2.653   7.642  0.7355 -0.5389  0.3648
  169SAPE  C31119155   5.602   2.796   7.808  0.0684 -0.3702 -0.3947
  169SAPE  H11X19156   5.494   2.820   7.819  0.6539  1.9907  0.9767
  169SAPE  H11Y19157   5.658   2.889   7.834 -0.2752 -0.6333  1.4112
  169SAPE  C31219158   5.614   2.680   7.899  0.5422  0.2908  0.5162
  169SAPE  H12X19159   5.715   2.635   7.901 -0.6887 -2.6833  0.5785
  169SAPE  H12Y19160   5.552   2.597   7.859 -1.2352  2.4482 -1.5533
  169SAPE  C31319161   5.576   2.702   8.045 -0.1778 -0.2240  0.2068
  169SAPE  H13X19162   5.592   2.604   8.095  0.8512 -0.1430  0.0557
  169SAPE  H13Y19163   5.466   2.721   8.052 -0.2852 -1.3552  1.9873
  169SAPE  C31419164   5.669   2.799   8.108 -0.2000 -0.7295  0.2350
  169SAPE  H14X19165   5.663   2.899   8.061 -2.2520  2.2508  5.9227
  169SAPE  H14Y19166   5.771   2.757   8.096  0.9049  1.5323  1.2639
  169SAPE  C31519167   5.651   2.826   8.260  0.8127 -0.5379 -0.4597
  169SAPE  H15X19168   5.566   2.898   8.263 -0.9015 -2.3882 -1.9879
  169SAPE  H15Y19169   5.737   2.887   8.294  1.7375 -0.9775 -1.9147
  169SAPE  C31619170   5.632   2.694   8.341  0.1694 -0.1366  0.4205
  169SAPE  H16X19171   5.704   2.618   8.304  0.0064 -0.4375  0.7249
  169SAPE  H16Y19172   5.529   2.659   8.320 -0.0346  0.3195  0.6398
  169SAPE  C31719173   5.649   2.718   8.493  0.2674  0.3578 -0.6092
  169SAPE  H17X19174   5.622   2.622   8.543  0.5098 -1.2353 -3.3630
  169SAPE  H17Y19175   5.582   2.798   8.532  0.9677  1.6140 -1.9103
  169SAPE  C31819176   5.789   2.771   8.519 -0.7312  0.1507 -0.0644
  169SAPE  H18X19177   5.861   2.718   8.453 -0.3587  1.1401 -0.4797
  169SAPE  H18Y19178   5.822   2.753   8.623  0.9675 -0.2919 -0.6391
  169SAPE  H18Z19179   5.796   2.879   8.494 -2.2150  0.3392  0.2899
  170SAPE     N19180   6.177   0.591   6.327 -0.5327  0.1062 -0.0118
  170SAPE   HN119181   6.161   0.503   6.379  0.0926 -0.8432 -1.3614
  170SAPE   HN219182   6.098   0.609   6.261 -0.0211  0.4153 -0.5494
  170SAPE   HN319183   6.265   0.596   6.272 -0.5969  4.0384 -0.0138
  170SAPE   C1219184   6.181   0.705   6.424 -0.7562 -0.3868  0.0769
  170SAPE  H12A19185   6.274   0.703   6.484 -1.7387  2.7384  1.9322
  170SAPE  H12B19186   6.091   0.701   6.489 -0.7444  0.3185  0.1470
  170SAPE   C1119187   6.184   0.839   6.350  0.1286 -0.4998 -0.1415
  170SAPE  H11A19188   6.154   0.915   6.425 -0.5343 -1.2892  0.4091
  170SAPE  H11B19189   6.103   0.852   6.274 -0.1282  1.1317  0.3640
  170SAPE     P19190   6.368   1.004   6.289  0.0857 -0.2552  0.1037
  170SAPE   O1319191   6.508   0.998   6.239  0.9004  0.7355  0.3453
  170SAPE   O1419192   6.281   1.100   6.226  0.2952  0.3637 -0.0581
  170SAPE   O1219193   6.307   0.856   6.276  0.4976 -0.2358 -0.1616
  170SAPE   O1119194   6.370   1.015   6.442 -0.4393 -0.3384  0.6435
  170SAPE    C119195   6.456   1.116   6.500 -0.0476 -0.1526 -1.1149
  170SAPE    HA19196   6.557   1.101   6.455  0.7712  0.8788  0.3377
  170SAPE    HB19197   6.430   1.222   6.481  0.0669 -0.1156 -1.0667
  170SAPE    C219198   6.462   1.093   6.656  0.5028 -0.1808 -0.0404
  170SAPE    HS19199   6.501   0.992   6.680 -2.1147 -0.9281  1.5163
  170SAPE   O2119200   6.328   1.123   6.703 -0.5288 -0.1101 -0.0496
  170SAPE   C2119201   6.271   1.028   6.768  0.2614  0.1882  0.0459
  170SAPE   O2219202   6.313   0.911   6.782  0.3575  1.0697 -0.6985
  170SAPE   C2219203   6.137   1.077   6.823 -0.2684 -0.3632 -0.4878
  170SAPE   H2R19204   6.124   1.023   6.919 -0.3604 -1.2818 -1.0143
  170SAPE   H2S19205   6.142   1.182   6.861  0.6387 -0.7717  0.5822
  170SAPE    C319206   6.555   1.198   6.728  0.1120 -0.1238  0.0594
  170SAPE    HX19207   6.504   1.297   6.729 -1.0954 -0.7067  2.0613
  170SAPE    HY19208   6.644   1.202   6.662 -2.5623 -1.5031 -3.9927
  170SAPE   O3119209   6.571   1.157   6.867 -0.2161  0.6934 -0.2704
  170SAPE   C3119210   6.684   1.218   6.919  0.4856 -0.5767  0.2235
  170SAPE   O3219211   6.758   1.292   6.859  0.0728 -0.4393  0.3369
  170SAPE   C3219212   6.696   1.201   7.066 -0.3672  1.1782  0.6473
  170SAPE   H2X19213   6.715   1.092   7.076  2.6548  1.5091 -0.4130
  170SAPE   H2Y19214   6.599   1.221   7.116 -0.5583 -0.5142  1.0220
  170SAPE   C2319215   6.023   1.048   6.726 -0.1927 -0.7307 -0.1848
  170SAPE   H3R19216   6.040   0.942   6.701  0.8636 -0.9258  1.2235
  170SAPE   H3S19217   6.038   1.125   6.647  2.9012  0.6062  1.5247
  170SAPE   C2419218   5.873   1.070   6.777  0.3838 -0.0755 -0.3727
  170SAPE   H4R19219   5.822   1.092   6.681 -1.2581 -1.4841  0.1267
  170SAPE   H4S19220   5.860   1.164   6.835  0.0683  0.0274 -0.6027
  170SAPE   C2519221   5.802   0.955   6.847 -0.1400 -0.2610  0.2117
  170SAPE   H5R19222   5.732   0.892   6.789  0.1997  0.3488 -0.8863
  170SAPE   C2619223   5.823   0.922   6.971  0.4039 -0.5180 -0.1177
  170SAPE   H6R19224   5.759   0.845   7.016 -1.5431 -0.1970 -2.1550
  170SAPE   C2719225   5.910   0.995   7.069 -0.4829  1.3092 -0.7905
  170SAPE   H7R19226   5.965   1.080   7.022  1.1265  0.2954 -0.8160
  170SAPE   H7S19227   5.984   0.920   7.106 -1.0343  1.9415  1.8155
  170SAPE   C2819228   5.821   1.048   7.175 -0.4973 -0.2523 -0.3763
  170SAPE   H8R19229   5.740   1.112   7.138 -0.6266  1.1285  2.0794
  170SAPE   C2919230   5.824   1.035   7.307 -0.1942  0.2740 -0.4077
  170SAPE   H9R19231   5.750   1.098   7.359  0.2456  1.6162 -1.3296
  170SAPE  C21019232   5.926   0.945   7.384 -0.0891 -0.1731  0.0052
  170SAPE  H10R19233   6.002   1.017   7.420  1.2773 -1.6112  0.0919
  170SAPE  H10S19234   5.987   0.880   7.317  1.3237  1.2554 -0.1433
  170SAPE  C21119235   5.866   0.859   7.497 -0.2232  0.0166  0.1367
  170SAPE  H11R19236   5.876   0.750   7.487 -0.3200 -0.3645  3.2998
  170SAPE  C21219237   5.822   0.900   7.613 -0.5512  0.2705 -0.0539
  170SAPE  H12R19238   5.778   0.823   7.679  0.8248  0.1142  0.7418
  170SAPE  C21319239   5.821   1.041   7.674 -0.6450  0.6984  0.2773
  170SAPE  H13R19240   5.748   1.037   7.758 -0.1436  0.1493  0.6865
  170SAPE  H13S19241   5.785   1.104   7.589 -0.0517 -0.1457 -0.6181
  170SAPE  C21419242   5.958   1.081   7.714  0.7201  0.0339 -0.4519
  170SAPE  H14R19243   6.000   1.150   7.639  2.6703  0.2348  0.7507
  170SAPE  C21519244   6.015   1.062   7.834  0.8617  0.4923  0.8166
  170SAPE  H15R19245   6.120   1.092   7.842  0.7851  0.6188  1.3740
  170SAPE  C21619246   5.964   0.980   7.955 -0.1533 -0.1306  0.2631
  170SAPE  H16R19247   6.045   0.918   7.998 -0.0267 -0.1952 -0.0612
  170SAPE  H16S19248   5.888   0.900   7.942 -0.3332 -0.0326  0.6909
  170SAPE  C21719249   5.922   1.074   8.069  0.3460 -0.1573 -0.6928
  170SAPE  H17R19250   5.836   1.137   8.037 -0.0631 -0.4205 -0.1133
  170SAPE  H17S19251   6.010   1.137   8.095 -3.0055  3.9156  2.3361
  170SAPE  C21819252   5.869   0.988   8.181 -0.4002 -0.5710 -0.7148
  170SAPE  H18R19253   5.936   0.902   8.199 -0.5306 -0.1220  2.5993
  170SAPE  H18S19254   5.775   0.944   8.142  0.5279 -1.3981 -2.1212
  170SAPE  C21919255   5.844   1.062   8.309 -0.2462 -0.6934  0.0231
  170SAPE  H19R19256   5.812   1.166   8.286 -2.2687 -0.3402  3.6872
  170SAPE  H19S19257   5.941   1.063   8.364  1.2218 -3.5530 -2.2152
  170SAPE  C22019258   5.739   0.986   8.383 -0.3777 -0.2085 -0.1089
  170SAPE  H20R19259   5.795   0.895   8.413  2.5854  1.1546 -1.1805
  170SAPE  H20S19260   5.660   0.964   8.309 -0.0706  0.3300 -0.6053
  170SAPE  H20T19261   5.702   1.042   8.472 -1.3764 -0.0492 -0.6060
  170SAPE   C3319262   6.806   1.280   7.133 -0.3270 -0.3291 -0.5265
  170SAPE   H3X19263   6.822   1.380   7.087 -0.3219  0.3497  0.8938
  170SAPE   H3Y19264   6.907   1.235   7.136 -0.0810  0.2221 -0.2654
  170SAPE   C3419265   6.780   1.312   7.287 -0.9342 -0.2007 -0.2741
  170SAPE   H4X19266   6.672   1.333   7.305 -0.2517  1.7458  2.0812
  170SAPE   H4Y19267   6.842   1.395   7.328 -0.9442 -0.9996  1.4716
  170SAPE   C3519268   6.825   1.193   7.368  0.3924  0.3999 -0.4738
  170SAPE   H5X19269   6.932   1.172   7.349  0.7878  1.4697  0.4650
  170SAPE   H5Y19270   6.768   1.099   7.351  0.5748  0.3245 -0.6623
  170SAPE   C3619271   6.825   1.220   7.525  0.4525  0.2486 -0.1517
  170SAPE   H6X19272   6.835   1.125   7.582  1.1797  0.6663  0.4296
  170SAPE   H6Y19273   6.727   1.265   7.554  1.5296  0.8017  2.9646
  170SAPE   C3719274   6.935   1.316   7.580  0.4341  1.0908  0.2168
  170SAPE   H7X19275   6.932   1.406   7.515  2.3427  0.2369 -1.1526
  170SAPE   H7Y19276   7.031   1.259   7.574 -0.8673 -1.3950  1.5076
  170SAPE   C3819277   6.897   1.355   7.719  0.2913 -0.6817  0.3605
  170SAPE   H8X19278   6.792   1.391   7.720 -0.1188 -1.8350  0.2922
  170SAPE   H8Y19279   6.977   1.429   7.739 -0.0260  0.7655 -3.1245
  170SAPE   C3919280   6.911   1.239   7.822 -0.0559 -0.5996  0.1162
  170SAPE   H9X19281   7.019   1.212   7.830 -0.1681 -1.4309 -0.9787
  170SAPE   H9Y19282   6.845   1.154   7.799 -1.6114 -0.0631  2.2489
  170SAPE  C31019283   6.884   1.286   7.962 -1.1326  0.2063 -0.1423
  170SAPE  H10X19284   6.931   1.385   7.977 -0.8692 -0.2511  2.6953
  170SAPE  H10Y19285   6.926   1.214   8.036  0.8400 -0.0045 -1.3877
  170SAPE  C31119286   6.734   1.310   7.987  0.7801 -0.3394 -0.7561
  170SAPE  H11X19287   6.692   1.209   7.970 -0.7964  0.0427  0.6271
  170SAPE  H11Y19288   6.683   1.378   7.915  0.5967 -0.4232 -0.7052
  170SAPE  C31219289   6.695   1.351   8.132 -0.3236  0.2382 -1.0601
  170SAPE  H12X19290   6.584   1.353   8.132 -0.3674 -1.2064 -0.4773
  170SAPE  H12Y19291   6.732   1.453   8.158  0.0181 -0.1349 -0.0270
  170SAPE  C31319292   6.752   1.253   8.238  0.0296  0.4478  0.1445
  170SAPE  H13X19293   6.861   1.260   8.258  0.3347 -0.1058 -1.2528
  170SAPE  H13Y19294   6.730   1.150   8.201  0.7712 -0.2223  1.4824
  170SAPE  C31419295   6.682   1.272   8.376 -0.2938 -0.4443 -0.5508
  170SAPE  H14X19296   6.572   1.256   8.368 -0.8384  1.8814  0.9945
  170SAPE  H14Y19297   6.703   1.375   8.414 -0.0608 -0.0334 -1.7600
  170SAPE  C31519298   6.702   1.172   8.495 -0.0907  0.3919 -0.5485
  170SAPE  H15X19299   6.696   1.067   8.460  2.6876 -0.0114 -0.0832
  170SAPE  H15Y19300   6.617   1.181   8.565 -0.7419 -0.6245 -1.1787
  170SAPE  C31619301   6.830   1.186   8.582 -0.0169 -0.0332  0.2388
  170SAPE  H16X19302   6.818   1.144   8.684  0.0742  1.3411  0.8299
  170SAPE  H16Y19303   6.857   1.293   8.586  0.4121 -0.1801  1.8890
  170SAPE  C31719304   6.955   1.130   8.505 -0.1257 -0.0293  0.0633
  170SAPE  H17X19305   6.958   1.179   8.406 -0.8856  1.0613  0.5614
  170SAPE  H17Y19306   6.952   1.019   8.495 -0.2235  0.1773 -3.2247
  170SAPE  C31819307   7.092   1.154   8.579  0.0335 -1.2959 -0.0698
  170SAPE  H18X19308   7.177   1.116   8.518 -0.9541  0.9163 -3.1119
  170SAPE  H18Y19309   7.093   1.096   8.673 -1.5467 -3.1265 -1.1000
  170SAPE  H18Z19310   7.112   1.259   8.606  0.8054 -1.4016 -0.2241
  171SAPE     N19311   1.156   3.235   6.318  0.3793  0.1118  0.0298
  171SAPE   HN119312   1.155   3.305   6.241 -1.6250  1.4569  1.1817
  171SAPE   HN219313   1.128   3.141   6.283 -1.0663 -0.3946  2.3655
  171SAPE   HN319314   1.087   3.279   6.381  0.6413  0.5908 -0.0134
  171SAPE   C1219315   1.296   3.236   6.374 -0.2168  0.3075 -0.1213
  171SAPE  H12A19316   1.291   3.176   6.468  0.1133  0.2055 -0.1682
  171SAPE  H12B19317   1.313   3.341   6.405 -1.1162  0.0910  1.1742
  171SAPE   C1119318   1.406   3.185   6.280  0.7353  0.6579 -0.6808
  171SAPE  H11A19319   1.499   3.164   6.336 -0.0376 -0.7283  0.1682
  171SAPE  H11B19320   1.426   3.264   6.205  1.4630  0.9763 -0.1519
  171SAPE     P19321   1.381   2.920   6.273 -0.2733 -0.5393 -0.7480
  171SAPE   O1319322   1.333   2.817   6.177 -0.3353  0.0448 -0.6549
  171SAPE   O1419323   1.526   2.917   6.299  0.6524  0.3863  0.0921
  171SAPE   O1219324   1.361   3.066   6.211  0.0709  0.5856 -0.3716
  171SAPE   O1119325   1.302   2.926   6.410  0.4579  0.1528 -0.2379
  171SAPE    C119326   1.227   2.821   6.462 -0.3251  0.4831  0.0670
  171SAPE    HA19327   1.140   2.861   6.519  0.2334 -1.0149  2.0643
  171SAPE    HB19328   1.190   2.754   6.382  0.2578 -0.7815  0.8361
  171SAPE    C219329   1.325   2.745   6.560 -0.0013  1.1147 -0.2471
  171SAPE    HS19330   1.409   2.704   6.500 -0.4987  1.7984 -1.4419
  171SAPE   O2119331   1.256   2.650   6.649  0.9267  0.2396  0.3031
  171SAPE   C2119332   1.222   2.534   6.595  0.2265  0.7165 -0.9462
  171SAPE   O2219333   1.260   2.495   6.485  0.0925 -0.1328 -0.5901
  171SAPE   C2219334   1.144   2.436   6.700 -0.1930 -0.2276  0.0731
  171SAPE   H2R19335   1.204   2.447   6.792  0.9014 -0.1449 -0.6275
  171SAPE   H2S19336   1.047   2.488   6.719 -0.5960 -0.2080 -1.7614
  171SAPE    C319337   1.403   2.843   6.649 -0.0303  0.2917 -0.3212
  171SAPE    HX19338   1.341   2.893   6.726  0.7928  4.1690 -1.9263
  171SAPE    HY19339   1.460   2.923   6.597  0.1831 -0.0793 -0.6638
  171SAPE   O3119340   1.507   2.770   6.719 -0.0525  0.4799 -0.1725
  171SAPE   C3119341   1.571   2.837   6.815 -0.2906 -0.1949 -0.6379
  171SAPE   O3219342   1.588   2.958   6.820  0.5128 -0.6055  0.2383
  171SAPE   C3219343   1.620   2.734   6.928 -0.7998  0.1454  0.3722
  171SAPE   H2X19344   1.725   2.769   6.934 -0.7904  0.1201  0.3549
  171SAPE   H2Y19345   1.620   2.635   6.877  3.5114 -0.0970  0.4691
  171SAPE   C2319346   1.127   2.298   6.647  0.4493  1.0048 -0.9179
  171SAPE   H3R19347   1.110   2.308   6.538  2.7697  1.9085 -1.2526
  171SAPE   H3S19348   1.041   2.239   6.687  0.2352 -0.2327 -3.0651
  171SAPE   C2419349   1.256   2.208   6.687 -0.1801 -0.1527  0.4411
  171SAPE   H4R19350   1.259   2.204   6.798  1.1818  0.2219  0.4430
  171SAPE   H4S19351   1.343   2.261   6.642  0.6052 -3.0473 -1.7657
  171SAPE   C2519352   1.246   2.074   6.623 -0.5777  0.3050 -0.2888
  171SAPE   H5R19353   1.190   2.075   6.528 -0.4564  0.6297 -0.3588
  171SAPE   C2619354   1.286   1.953   6.676  0.7118  0.4327  0.1589
  171SAPE   H6R19355   1.274   1.864   6.614  0.7319  1.6930 -1.7213
  171SAPE   C2719356   1.355   1.943   6.810  0.2247  0.5294  1.0735
  171SAPE   H7R19357   1.325   2.032   6.869 -1.0006  1.3642 -0.7232
  171SAPE   H7S19358   1.465   1.937   6.793 -0.0758 -2.9074 -0.4754
  171SAPE   C2819359   1.296   1.818   6.878 -0.2677 -0.0884  0.5290
  171SAPE   H8R19360   1.186   1.811   6.869 -0.4553 -0.2429  2.4501
  171SAPE   C2919361   1.361   1.724   6.952  0.3917 -0.3625 -0.3038
  171SAPE   H9R19362   1.302   1.655   7.013 -0.0641 -0.6332 -1.0379
  171SAPE  C21019363   1.503   1.734   6.992 -0.9533 -0.1627  0.4282
  171SAPE  H10R19364   1.521   1.837   7.030 -1.1154  0.3747 -0.8964
  171SAPE  H10S19365   1.567   1.719   6.901 -2.1152 -0.6221 -0.3328
  171SAPE  C21119366   1.546   1.627   7.092  0.2948 -0.1965 -0.2805
  171SAPE  H11R19367   1.604   1.538   7.063  1.1482  0.2938 -0.1269
  171SAPE  C21219368   1.516   1.633   7.228  0.2118 -0.0324 -0.4055
  171SAPE  H12R19369   1.541   1.556   7.303 -1.7433 -1.3228 -0.9946
  171SAPE  C21319370   1.434   1.748   7.288 -0.6022  0.5599 -0.2710
  171SAPE  H13R19371   1.326   1.721   7.288 -0.1631 -1.4229 -2.0693
  171SAPE  H13S19372   1.435   1.841   7.228  0.2979  0.3367 -0.6181
  171SAPE  C21419373   1.489   1.782   7.429 -0.0534  0.2064  0.8201
  171SAPE  H14R19374   1.580   1.844   7.426 -0.1819  0.3602 -0.2083
  171SAPE  C21519375   1.444   1.738   7.551 -0.4362 -0.0791 -0.4286
  171SAPE  H15R19376   1.502   1.778   7.636 -0.0163  1.1494 -1.2668
  171SAPE  C21619377   1.328   1.635   7.581  0.0815 -0.2189  0.6212
  171SAPE  H16R19378   1.259   1.631   7.494  0.9755 -0.4293 -0.0932
  171SAPE  H16S19379   1.275   1.679   7.668  0.6801  0.5768  0.5967
  171SAPE  C21719380   1.367   1.487   7.625  0.0924 -0.4618  0.0664
  171SAPE  H17R19381   1.420   1.446   7.536  0.6123  0.1453  0.0985
  171SAPE  H17S19382   1.273   1.428   7.636 -0.6200  0.8993  1.5334
  171SAPE  C21819383   1.438   1.465   7.756  0.2880  0.0136  0.1273
  171SAPE  H18R19384   1.536   1.517   7.758  0.1975  0.1557  1.0659
  171SAPE  H18S19385   1.459   1.356   7.761 -0.3461 -0.1387 -0.4537
  171SAPE  C21919386   1.376   1.528   7.876  0.2459 -0.4643  0.3141
  171SAPE  H19R19387   1.270   1.497   7.879  0.3512 -0.8891 -0.1651
  171SAPE  H19S19388   1.383   1.639   7.865  2.0208 -0.5464  0.2280
  171SAPE  C22019389   1.437   1.481   8.012 -0.1002  0.0927  0.1434
  171SAPE  H20R19390   1.387   1.516   8.105 -3.8909 -2.2544 -0.8232
  171SAPE  H20S19391   1.548   1.478   8.020 -0.1352 -1.5638  0.2463
  171SAPE  H20T19392   1.411   1.373   8.010 -1.1700  0.3355  0.5411
  171SAPE   C3319393   1.542   2.755   7.048 -0.2874 -0.5049 -0.6610
  171SAPE   H3X19394   1.437   2.727   7.024 -0.7430 -0.4995  1.1739
  171SAPE   H3Y19395   1.551   2.860   7.082  0.5173 -0.7477 -0.0984
  171SAPE   C3419396   1.581   2.674   7.175 -0.0222  0.3015  0.2852
  171SAPE   H4X19397   1.686   2.702   7.198  0.0593  0.4067 -0.1941
  171SAPE   H4Y19398   1.579   2.565   7.152  0.8214  0.1230  0.9963
  171SAPE   C3519399   1.507   2.710   7.305  0.6052  0.1096 -0.8622
  171SAPE   H5X19400   1.400   2.685   7.295 -0.5280  2.2028  3.6418
  171SAPE   H5Y19401   1.519   2.818   7.323  2.1051 -0.1567 -0.0488
  171SAPE   C3619402   1.553   2.632   7.431  0.0342 -0.2921 -0.9607
  171SAPE   H6X19403   1.659   2.663   7.450 -0.2637 -0.5682  1.5041
  171SAPE   H6Y19404   1.561   2.523   7.411 -0.1649 -0.4786 -0.0758
  171SAPE   C3719405   1.475   2.662   7.558 -0.3099 -0.4984  0.9118
  171SAPE   H7X19406   1.373   2.620   7.546  0.4661 -2.8500  2.0313
  171SAPE   H7Y19407   1.464   2.770   7.580 -1.4856 -0.6238  0.9975
  171SAPE   C3819408   1.529   2.596   7.687 -1.0842  0.0896 -0.5306
  171SAPE   H8X19409   1.634   2.631   7.698 -0.4018 -1.6609 -1.1442
  171SAPE   H8Y19410   1.542   2.488   7.666 -2.6104  0.2678 -2.7913
  171SAPE   C3919411   1.428   2.631   7.808  0.0671  0.4381 -0.5992
  171SAPE   H9X19412   1.330   2.592   7.771  0.3540  1.9096 -3.1599
  171SAPE   H9Y19413   1.425   2.740   7.827  0.9214  0.1288  1.5119
  171SAPE  C31019414   1.464   2.571   7.946  0.0318  0.0482 -0.6115
  171SAPE  H10X19415   1.567   2.606   7.969  0.5612 -1.6342 -0.3360
  171SAPE  H10Y19416   1.470   2.460   7.941  0.0556  0.0923 -2.2382
  171SAPE  C31119417   1.378   2.630   8.060  0.5718 -0.7799 -0.2786
  171SAPE  H11X19418   1.273   2.633   8.024  0.8303 -0.6596 -1.0312
  171SAPE  H11Y19419   1.403   2.738   8.056 -2.6031  0.0704 -0.0621
  171SAPE  C31219420   1.395   2.576   8.202  0.3670 -0.2406  0.1381
  171SAPE  H12X19421   1.498   2.537   8.216 -0.8469 -3.8886 -0.0564
  171SAPE  H12Y19422   1.323   2.495   8.228 -0.6870  0.2881 -1.0593
  171SAPE  C31319423   1.381   2.684   8.316  0.2341 -0.5731 -0.3918
  171SAPE  H13X19424   1.275   2.710   8.334  0.4854 -0.5991  1.3216
  171SAPE  H13Y19425   1.426   2.779   8.281  1.2210 -1.6597 -2.2972
  171SAPE  C31419426   1.450   2.649   8.446  0.0230  0.3505  0.0800
  171SAPE  H14X19427   1.561   2.659   8.446 -0.0681  1.5930  0.6803
  171SAPE  H14Y19428   1.435   2.543   8.473  4.3363 -0.3860  0.2759
  171SAPE  C31519429   1.396   2.728   8.567  0.1298  0.0597  0.1039
  171SAPE  H15X19430   1.431   2.676   8.659 -1.3844 -0.3828  0.4670
  171SAPE  H15Y19431   1.285   2.729   8.564  0.0547 -0.5446  1.6019
  171SAPE  C31619432   1.446   2.882   8.575  0.2747  0.0771 -0.8224
  171SAPE  H16X19433   1.391   2.951   8.507 -0.1387  1.4867  0.8579
  171SAPE  H16Y19434   1.553   2.879   8.545  0.7058 -0.1753  0.6414
  171SAPE  C31719435   1.455   2.938   8.722  0.9175  0.2722  0.3959
  171SAPE  H17X19436   1.471   2.851   8.789 -3.7738 -0.8784  0.3588
  171SAPE  H17Y19437   1.362   2.995   8.739  1.1381  1.0326 -0.8301
  171SAPE  C31819438   1.566   3.041   8.743 -0.2241  0.1562  0.0817
  171SAPE  H18X19439   1.548   3.129   8.678  1.1246  0.1540 -0.3326
  171SAPE  H18Y19440   1.656   2.980   8.718  0.5083  1.1612  0.2186
  171SAPE  H18Z19441   1.566   3.076   8.848  0.7467  1.2215 -0.2587
  172SAPE     N19442   0.937   1.343   5.997 -0.2419  0.2382 -0.3879
  172SAPE   HN119443   0.955   1.443   6.017  2.7574 -0.4691  0.8986
  172SAPE   HN219444   0.898   1.335   5.900 -1.4640 -1.7870  0.2142
  172SAPE   HN319445   0.867   1.302   6.062 -0.8382 -2.1204 -2.3506
  172SAPE   C1219446   1.067   1.259   6.006 -0.2940  0.0325  0.2562
  172SAPE  H12A19447   1.093   1.222   5.904  1.2147  0.3225  0.5104
  172SAPE  H12B19448   1.047   1.168   6.067  3.4353 -1.9336 -1.0792
  172SAPE   C1119449   1.186   1.325   6.075 -0.2158  0.8220  0.4636
  172SAPE  H11A19450   1.222   1.399   5.999  0.4603  0.2310  0.1875
  172SAPE  H11B19451   1.274   1.258   6.086 -1.1903 -0.2392  2.1126
  172SAPE     P19452   1.137   1.540   6.214 -0.2274  0.1570  0.1078
  172SAPE   O1319453   1.266   1.600   6.185 -0.0202  0.4252  0.1957
  172SAPE   O1419454   1.029   1.568   6.117  0.4392 -0.2697  0.1272
  172SAPE   O1219455   1.150   1.381   6.204 -0.3657 -0.1428  0.4068
  172SAPE   O1119456   1.092   1.561   6.363  1.0853 -0.4623  0.4453
  172SAPE    C119457   1.117   1.459   6.461 -0.3684 -0.0025  0.2066
  172SAPE    HA19458   1.052   1.369   6.455  0.5605 -0.7468  0.9089
  172SAPE    HB19459   1.223   1.424   6.461 -0.0106  0.7988  3.1071
  172SAPE    C219460   1.106   1.511   6.612  0.8185  0.5722 -0.1369
  172SAPE    HS19461   1.165   1.605   6.622 -3.0872  3.2942 -0.4406
  172SAPE   O2119462   1.131   1.410   6.713  0.5408  0.7598  0.5085
  172SAPE   C2119463   1.253   1.410   6.760 -0.0506 -0.4989 -0.0412
  172SAPE   O2219464   1.346   1.476   6.713  0.1632  0.0601  0.2649
  172SAPE   C2219465   1.261   1.302   6.872 -0.1967 -0.5550 -0.6332
  172SAPE   H2R19466   1.161   1.288   6.919 -0.6432  1.6501 -0.8086
  172SAPE   H2S19467   1.294   1.205   6.830  0.6620 -1.9270  2.8461
  172SAPE    C319468   0.963   1.567   6.639  0.3637  0.2358 -0.4516
  172SAPE    HX19469   0.900   1.480   6.609 -1.2636  0.6619  1.5351
  172SAPE    HY19470   0.944   1.653   6.571 -1.1803  0.3510  0.0816
  172SAPE   O3119471   0.956   1.612   6.772  0.1153 -0.5401  0.0944
  172SAPE   C3119472   0.859   1.554   6.842 -0.1990 -0.3760  0.5193
  172SAPE   O3219473   0.789   1.457   6.818  0.0280 -0.1822  0.0062
  172SAPE   C3219474   0.862   1.608   6.983 -0.6958 -0.2545 -0.8172
  172SAPE   H2X19475   0.758   1.639   7.008 -1.0441  0.1213 -2.5944
  172SAPE   H2Y19476   0.915   1.702   7.006 -1.3622 -0.1869  0.5533
  172SAPE   C2319477   1.360   1.331   6.992  0.6027  0.5461  0.4992
  172SAPE   H3R19478   1.328   1.418   7.053  2.0092 -0.7388  3.1963
  172SAPE   H3S19479   1.459   1.352   6.946  0.6327 -0.0985  0.2528
  172SAPE   C2419480   1.369   1.206   7.088 -0.2350 -0.4462 -0.7335
  172SAPE   H4R19481   1.394   1.113   7.033  1.1281 -0.0535 -0.8214
  172SAPE   H4S19482   1.269   1.200   7.137 -0.6376 -1.0146 -1.5922
  172SAPE   C2519483   1.474   1.244   7.197 -0.1729 -0.0620  0.7418
  172SAPE   H5R19484   1.579   1.258   7.167 -0.5367 -2.5224 -2.2203
  172SAPE   C2619485   1.454   1.236   7.328  0.6696  0.2718 -0.2224
  172SAPE   H6R19486   1.545   1.253   7.387  0.9362  0.8266 -0.7795
  172SAPE   C2719487   1.331   1.196   7.406  0.5988  0.2998  0.3657
  172SAPE   H7R19488   1.242   1.236   7.352  0.5637  2.2305  1.7359
  172SAPE   H7S19489   1.336   1.237   7.510  0.1596  0.1723  0.4399
  172SAPE   C2819490   1.316   1.047   7.415 -0.9285  0.0288  0.7044
  172SAPE   H8R19491   1.344   0.994   7.323 -1.5421  1.7340 -0.5289
  172SAPE   C2919492   1.257   0.989   7.517 -0.4586 -0.1136  0.0821
  172SAPE   H9R19493   1.270   0.881   7.526 -0.7584 -0.3078 -1.4933
  172SAPE  C21019494   1.201   1.048   7.649  0.1893  0.2262 -0.7995
  172SAPE  H10R19495   1.214   1.158   7.644 -0.7023  0.2912 -2.6277
  172SAPE  H10S19496   1.262   1.000   7.728 -1.7600  3.5816  3.0969
  172SAPE  C21119497   1.060   1.012   7.667 -0.3964  0.1865 -0.5898
  172SAPE  H11R19498   0.985   1.053   7.597 -1.6060 -0.1684  0.4629
  172SAPE  C21219499   1.015   0.928   7.761  0.3074  0.1075 -0.3957
  172SAPE  H12R19500   0.906   0.922   7.774  0.6187 -1.0842  2.2423
  172SAPE  C21319501   1.092   0.848   7.868  0.4762 -0.0808  0.0022
  172SAPE  H13R19502   1.131   0.909   7.952  0.0720 -1.0877  0.9420
  172SAPE  H13S19503   1.173   0.793   7.816 -1.0654 -1.8671 -0.6144
  172SAPE  C21419504   1.010   0.734   7.934 -0.4985  0.2485 -0.2985
  172SAPE  H14R19505   0.939   0.683   7.868  0.1427 -1.8912  0.5595
  172SAPE  C21519506   1.014   0.706   8.066 -0.1823  0.1476 -0.2427
  172SAPE  H15R19507   0.935   0.642   8.109  0.5712  0.4139  1.6016
  172SAPE  C21619508   1.105   0.776   8.170 -0.1358  0.1260  0.1987
  172SAPE  H16R19509   1.086   0.886   8.174  0.2053  0.1701  0.7289
  172SAPE  H16S19510   1.214   0.770   8.148  1.2600  2.9296  4.8685
  172SAPE  C21719511   1.099   0.748   8.325  0.5055  0.0105  0.2042
  172SAPE  H17R19512   1.108   0.638   8.343  1.1888  0.2006  1.0870
  172SAPE  H17S19513   0.999   0.781   8.360 -0.1184 -0.6523 -0.8711
  172SAPE  C21819514   1.202   0.821   8.407 -0.4157 -0.3990 -0.0766
  172SAPE  H18R19515   1.191   0.930   8.391  1.5185 -0.1789 -0.1495
  172SAPE  H18S19516   1.300   0.792   8.363 -2.3485 -2.5659 -3.3909
  172SAPE  C21919517   1.197   0.796   8.561 -0.3321  0.5225 -0.2466
  172SAPE  H19R19518   1.284   0.813   8.629 -1.6663  0.0036  1.6838
  172SAPE  H19S19519   1.166   0.693   8.589  2.8792 -0.6326 -0.5288
  172SAPE  C22019520   1.090   0.889   8.626 -0.6661 -0.6284 -0.4034
  172SAPE  H20R19521   0.993   0.835   8.630 -0.0797 -1.8740 -1.7582
  172SAPE  H20S19522   1.087   0.986   8.571  0.1396 -1.3554 -1.8114
  172SAPE  H20T19523   1.123   0.907   8.730 -0.1440  1.2538 -0.8458
  172SAPE   C3319524   0.904   1.500   7.085 -0.0575  0.0381 -0.5674
  172SAPE   H3X19525   1.011   1.469   7.076 -0.1281 -1.7301  2.7735
  172SAPE   H3Y19526   0.843   1.407   7.090  0.8295 -0.7269 -2.6369
  172SAPE   C3419527   0.898   1.560   7.227  0.2297  0.0290 -0.9468
  172SAPE   H4X19528   0.789   1.550   7.249  0.5156 -1.5210 -0.0623
  172SAPE   H4Y19529   0.925   1.668   7.225 -1.1004  0.5628  2.5109
  172SAPE   C3519530   0.981   1.497   7.337  0.2988 -0.1827 -0.3959
  172SAPE   H5X19531   1.087   1.528   7.343  0.3510 -0.5084  0.6360
  172SAPE   H5Y19532   0.977   1.386   7.324 -0.0393 -0.1165 -0.9015
  172SAPE   C3619533   0.919   1.509   7.476 -1.0469 -0.1839 -0.0631
  172SAPE   H6X19534   0.809   1.504   7.467 -1.1947 -0.8164  1.6572
  172SAPE   H6Y19535   0.937   1.609   7.520 -1.0935 -1.0181  1.9714
  172SAPE   C3719536   0.970   1.401   7.566 -0.0945  0.2735  0.6724
  172SAPE   H7X19537   1.079   1.379   7.557 -0.1059  0.2570  0.5667
  172SAPE   H7Y19538   0.909   1.310   7.546  1.1760 -0.5874  0.5884
  172SAPE   C3819539   0.949   1.437   7.716  0.1151  0.6878 -0.0227
  172SAPE   H8X19540   0.841   1.460   7.723 -0.2102 -0.9083  0.5900
  172SAPE   H8Y19541   0.992   1.536   7.744  1.8761  0.1452 -0.6724
  172SAPE   C3919542   1.002   1.331   7.817  0.2193 -0.2911 -0.2650
  172SAPE   H9X19543   1.108   1.302   7.796  0.9203  0.2756  2.2430
  172SAPE   H9Y19544   0.945   1.241   7.788 -0.8782  0.9079 -2.0386
  172SAPE  C31019545   0.973   1.354   7.965 -0.5443  0.1769  0.4146
  172SAPE  H10X19546   0.880   1.412   7.982 -0.0714  0.4617  2.3193
  172SAPE  H10Y19547   1.056   1.399   8.024  0.1743 -0.8713  0.2306
  172SAPE  C31119548   0.962   1.220   8.044 -0.2870 -0.2208 -0.2518
  172SAPE  H11X19549   1.064   1.185   8.069 -0.3278 -0.1257  0.0548
  172SAPE  H11Y19550   0.910   1.153   7.972 -1.1568  1.8565 -1.6684
  172SAPE  C31219551   0.894   1.233   8.187  0.3419 -0.0378  1.0346
  172SAPE  H12X19552   0.789   1.258   8.159  0.9272 -0.5206 -1.9589
  172SAPE  H12Y19553   0.940   1.320   8.237  0.6843  1.0930 -1.1052
  172SAPE  C31319554   0.903   1.102   8.261  0.7476 -0.2285 -0.4128
  172SAPE  H13X19555   1.006   1.094   8.302 -0.0600 -2.0760  1.4551
  172SAPE  H13Y19556   0.891   1.015   8.193 -0.8849  0.8298 -1.5476
  172SAPE  C31419557   0.806   1.089   8.385 -0.0678 -0.5994  0.7756
  172SAPE  H14X19558   0.843   1.007   8.451  2.5860 -1.9663 -2.2024
  172SAPE  H14Y19559   0.704   1.064   8.349 -0.0109  1.1603 -0.7444
  172SAPE  C31519560   0.789   1.223   8.454  0.0144 -0.9751  0.6394
  172SAPE  H15X19561   0.748   1.290   8.376  1.2761  1.1259  1.6864
  172SAPE  H15Y19562   0.886   1.266   8.487  0.6629 -2.4436  0.7229
  172SAPE  C31619563   0.682   1.228   8.559  0.4521  0.2251  0.0351
  172SAPE  H16X19564   0.595   1.162   8.540  0.2751 -0.7537  3.5011
  172SAPE  H16Y19565   0.639   1.330   8.572 -2.9600 -1.2322  1.3936
  172SAPE  C31719566   0.751   1.186   8.689  0.1986  0.7906  0.7182
  172SAPE  H17X19567   0.816   1.269   8.723 -0.9878  1.5591  1.1793
  172SAPE  H17Y19568   0.808   1.091   8.689 -1.2866 -0.3184 -3.2985
  172SAPE  C31819569   0.646   1.187   8.804  0.1822  0.7112  0.0734
  172SAPE  H18X19570   0.584   1.096   8.797 -2.0293  2.2728 -4.6155
  172SAPE  H18Y19571   0.578   1.275   8.803 -0.4094  0.2556 -0.3344
  172SAPE  H18Z19572   0.693   1.167   8.903 -0.0148 -0.5803 -0.0846
  173SOPE     N19573   6.073   3.534  10.541 -0.2297  0.0825  0.1779
  173SOPE   HN119574   6.111   3.587  10.622  0.5599  0.6045 -0.5167
  173SOPE   HN219575   6.156   3.521  10.481 -0.2312 -4.8212  0.8479
  173SOPE   HN319576   5.998   3.592  10.498 -0.5917  1.2754  2.2544
  173SOPE   C1219577   6.007   3.403  10.592 -0.0957 -0.1882 -0.6945
  173SOPE  H12A19578   6.086   3.340  10.638 -1.0430 -2.2207 -1.7166
  173SOPE  H12B19579   5.952   3.355  10.508  1.4348 -2.0291 -0.7095
  173SOPE   C1119580   5.912   3.433  10.709 -0.1979 -0.5972  0.3640
  173SOPE  H11A19581   5.862   3.340  10.745 -1.1802 -0.3695 -0.3610
  173SOPE  H11B19582   5.821   3.479  10.663  0.3680 -0.3783 -0.5602
  173SOPE     P19583   5.984   3.634  10.869  0.0329  0.0333  0.4001
  173SOPE   O1319584   6.046   3.650  11.002 -0.2135 -0.4285  0.5224
  173SOPE   O1419585   5.846   3.677  10.852  0.5680  0.0150 -0.1658
  173SOPE   O1219586   5.983   3.484  10.819 -0.6014  0.0782  0.1153
  173SOPE   O1119587   6.070   3.700  10.762  0.1403 -0.3724 -0.4581
  173SOPE    C119588   6.100   3.843  10.774  0.6833  0.8579 -0.3917
  173SOPE    HA19589   6.209   3.855  10.756  1.1373 -1.5418  0.3982
  173SOPE    HB19590   6.078   3.886  10.874  1.2278  2.2461 -0.8502
  173SOPE    C219591   6.018   3.936  10.680  0.0669 -0.0954  0.0571
  173SOPE    HS19592   5.912   3.913  10.703 -0.4666  1.3343 -0.8926
  173SOPE   O2119593   6.067   3.902  10.549 -0.2290 -0.3442  0.0286
  173SOPE   C2119594   5.987   3.953  10.447  0.2905 -0.0708 -0.7282
  173SOPE   O2219595   5.879   4.007  10.472  0.5667 -0.0403  0.2882
  173SOPE   C2219596   6.059   3.931  10.319 -0.1009  0.0484 -0.4071
  173SOPE   H2R19597   6.059   3.826  10.282 -0.8372  0.1971 -0.8599
  173SOPE   H2S19598   6.165   3.954  10.341 -0.3518 -0.4751  1.5444
  173SOPE    C319599   6.025   4.089  10.708  0.1426  0.4003 -0.1453
  173SOPE    HX19600   6.008   4.107  10.816  1.3581  0.9470 -0.0207
  173SOPE    HY19601   5.941   4.147  10.665 -1.4799  0.8426  3.3401
  173SOPE   O3119602   6.152   4.149  10.681 -0.1120 -0.1264  0.4386
  173SOPE   C3119603   6.160   4.233  10.575 -0.4403  0.1257 -1.0829
  173SOPE   O3219604   6.066   4.272  10.509 -0.0627 -0.0651 -0.1559
  173SOPE   C3219605   6.307   4.267  10.552 -0.6321 -0.7515 -0.2563
  173SOPE   H2X19606   6.362   4.247  10.647 -0.9269 -1.5310 -0.2471
  173SOPE   H2Y19607   6.308   4.378  10.550  1.1174 -0.7389 -1.2445
  173SOPE   C2319608   6.006   4.026  10.218 -0.9504 -0.1967  0.4196
  173SOPE   H3R19609   6.081   4.027  10.136 -0.9904 -3.2008  0.2112
  173SOPE   H3S19610   6.001   4.127  10.263 -1.8114  0.4221 -1.0029
  173SOPE   C2419611   5.875   3.977  10.149 -0.8043  0.2793 -0.0056
  173SOPE   H4R19612   5.800   3.979  10.231  0.7619 -1.1571  1.5469
  173SOPE   H4S19613   5.844   4.051  10.072 -1.7996  0.6561  0.7402
  173SOPE   C2519614   5.878   3.841  10.076  0.1049 -0.2262  0.4495
  173SOPE   H5R19615   5.919   3.763  10.144  0.5202  0.0261  0.4932
  173SOPE   H5S19616   5.775   3.815  10.044  0.0519  0.4522  0.0677
  173SOPE   C2619617   5.957   3.867   9.944  0.7356  0.3082  0.2450
  173SOPE   H6R19618   5.889   3.927   9.879  0.3786 -1.5196 -1.1606
  173SOPE   H6S19619   6.051   3.924   9.957  0.9461  1.0664 -3.4577
  173SOPE   C2719620   5.989   3.737   9.876 -0.6550  0.2796  1.2490
  173SOPE   H7R19621   6.024   3.667   9.955 -0.8111  0.5888  1.5985
  173SOPE   H7S19622   5.901   3.688   9.828 -0.1654  0.6935 -0.1253
  173SOPE   C2819623   6.096   3.739   9.769  0.0054  0.0891  0.0874
  173SOPE   H8R19624   6.187   3.791   9.806  2.3794 -3.7779  0.2500
  173SOPE   H8S19625   6.131   3.638   9.739  0.9283  0.4019  0.1030
  173SOPE   C2919626   6.048   3.810   9.650  0.1760  0.3285 -0.3847
  173SOPE   H9119627   6.041   3.918   9.669  0.0343 -0.0505  1.9932
  173SOPE  C21019628   6.013   3.753   9.535  0.0158  0.9844  0.8353
  173SOPE  H10119629   5.989   3.812   9.445 -1.6338 -1.8303 -0.7334
  173SOPE  C21119630   6.017   3.609   9.499  0.1983  1.1594 -0.1789
  173SOPE  H11R19631   5.923   3.589   9.444 -0.1074  1.3721  0.2509
  173SOPE  H11S19632   6.011   3.548   9.592  3.5964  0.0490 -0.5636
  173SOPE  C21219633   6.142   3.585   9.419 -0.6316  0.0611 -0.1427
  173SOPE  H12R19634   6.152   3.475   9.403 -1.5486  0.0693 -0.8141
  173SOPE  H12S19635   6.222   3.632   9.480 -0.9891 -0.1719  0.5267
  173SOPE  C21319636   6.149   3.650   9.279 -0.3669 -0.8890 -0.9988
  173SOPE  H13R19637   6.143   3.760   9.291  1.2480 -0.7499 -1.3060
  173SOPE  H13S19638   6.066   3.605   9.219 -1.1399 -0.8719  0.0357
  173SOPE  C21419639   6.282   3.626   9.221  0.2325 -0.3256  0.1619
  173SOPE  H14R19640   6.290   3.515   9.223 -1.2938 -0.4692 -0.1335
  173SOPE  H14S19641   6.363   3.674   9.279  0.0317 -0.7996  0.8480
  173SOPE  C21519642   6.283   3.660   9.068 -0.0910  0.1762 -0.5457
  173SOPE  H15R19643   6.211   3.597   9.013 -0.4618  1.5647 -1.7272
  173SOPE  H15S19644   6.384   3.643   9.024 -1.3670 -3.0242 -2.5754
  173SOPE  C21619645   6.237   3.800   9.041  0.0558  0.4857  0.7558
  173SOPE  H16R19646   6.288   3.874   9.106  0.6166 -0.5131  1.4964
  173SOPE  H16S19647   6.129   3.811   9.064 -0.7717 -2.4857 -1.1582
  173SOPE  C21719648   6.265   3.837   8.894  0.6561  0.3462  0.4950
  173SOPE  H17R19649   6.203   3.926   8.871 -0.4426 -0.2533  1.0326
  173SOPE  H17S19650   6.216   3.761   8.829 -0.2615  0.6498  0.8167
  173SOPE  C21819651   6.408   3.861   8.850  0.2876 -0.1897 -0.0578
  173SOPE  H18R19652   6.430   3.836   8.744  1.2002  0.8071 -0.1166
  173SOPE  H18S19653   6.484   3.802   8.904  1.0052 -0.3975 -1.2597
  173SOPE  H18T19654   6.429   3.969   8.859  1.4532 -0.4343  0.2702
  173SOPE   C3319655   6.368   4.203  10.430  0.3425 -1.1159 -0.1434
  173SOPE   H3X19656   6.362   4.092  10.434 -2.9611 -0.9860  1.4134
  173SOPE   H3Y19657   6.473   4.239  10.437  0.5449 -1.8196  0.5471
  173SOPE   C3419658   6.302   4.247  10.296 -0.2458  0.0920  0.0573
  173SOPE   H4X19659   6.293   4.358  10.288  1.8689  0.2078 -1.7356
  173SOPE   H4Y19660   6.202   4.202  10.283  0.3999 -2.2306  2.2030
  173SOPE   C3519661   6.386   4.203  10.172  0.1496 -0.1962 -0.3847
  173SOPE   H5X19662   6.317   4.195  10.084  1.7253  0.9582 -1.7932
  173SOPE   H5Y19663   6.419   4.098  10.188 -3.4275 -1.2636  1.0097
  173SOPE   C3619664   6.491   4.301  10.128 -0.5723 -0.3234 -0.5126
  173SOPE   H6X19665   6.560   4.302  10.215  0.1352  1.1114 -1.0509
  173SOPE   H6Y19666   6.461   4.408  10.127 -0.3695 -0.2489  0.3378
  173SOPE   C3719667   6.567   4.271  10.002 -0.5627 -0.2708  0.8703
  173SOPE   H7X19668   6.587   4.161  10.007  0.0383 -0.2848 -1.0486
  173SOPE   H7Y19669   6.668   4.318   9.996 -0.0606 -1.1875  1.7544
  173SOPE   C3819670   6.493   4.298   9.874  0.1035  0.2109 -0.3442
  173SOPE   H8X19671   6.470   4.407   9.863 -1.4056 -0.0221  0.2874
  173SOPE   H8Y19672   6.401   4.237   9.874  0.6182 -0.5696 -0.2196
  173SOPE   C3919673   6.559   4.246   9.745 -0.3975 -0.4755 -0.5249
  173SOPE   H9X19674   6.602   4.147   9.771  0.4636 -0.0127 -0.1266
  173SOPE   H9Y19675   6.645   4.312   9.720 -0.0191 -0.6482  0.2962
  173SOPE  C31019676   6.460   4.252   9.627 -0.0388  0.4523  0.0763
  173SOPE  H10X19677   6.401   4.346   9.630 -0.2511  0.3010  1.0841
  173SOPE  H10Y19678   6.400   4.159   9.630  2.7949 -1.4996  0.4944
  173SOPE  C31119679   6.538   4.241   9.489  0.1378 -0.1412  0.6294
  173SOPE  H11X19680   6.601   4.149   9.489  0.1973 -0.1004  0.6104
  173SOPE  H11Y19681   6.595   4.334   9.474  0.7558 -0.5278  0.5538
  173SOPE  C31219682   6.434   4.226   9.377 -0.0831  0.2005 -1.1327
  173SOPE  H12X19683   6.372   4.317   9.370  1.4933  1.3871 -0.3280
  173SOPE  H12Y19684   6.368   4.137   9.390  0.6709 -0.4092 -1.3499
  173SOPE  C31319685   6.493   4.205   9.241 -0.1248 -0.2487  1.6365
  173SOPE  H13X19686   6.419   4.188   9.160  2.8158  3.0283 -2.0938
  173SOPE  H13Y19687   6.565   4.122   9.229  0.6400  0.7626 -1.7455
  173SOPE  C31419688   6.569   4.329   9.192 -0.3956 -0.1566 -0.1276
  173SOPE  H14X19689   6.663   4.343   9.250 -1.5733  1.2956  1.5447
  173SOPE  H14Y19690   6.504   4.418   9.209  0.6712  0.4844  0.7418
  173SOPE  C31519691   6.611   4.311   9.045 -1.1340 -0.8090 -0.6090
  173SOPE  H15X19692   6.513   4.289   8.998 -1.9423 -0.0939  0.6782
  173SOPE  H15Y19693   6.672   4.219   9.029 -0.9433 -0.7762 -0.0771
  173SOPE  C31619694   6.680   4.431   8.986 -0.3410  0.0370 -0.0378
  173SOPE  H16X19695   6.782   4.431   9.030 -0.4170 -1.4326  0.1725
  173SOPE  H16Y19696   6.617   4.522   8.999 -0.1568 -0.2298  3.6129
  173SOPE  C31719697   6.694   4.433   8.831 -1.1491 -0.2138  0.4301
  173SOPE  H17X19698   6.732   4.531   8.794  1.1894 -1.6087 -1.0735
  173SOPE  H17Y19699   6.596   4.416   8.782 -0.9524 -0.1129 -0.0030
  173SOPE  C31819700   6.790   4.329   8.782  0.2369  0.5985 -0.5014
  173SOPE  H18X19701   6.753   4.227   8.810  1.2313 -0.3557 -2.4849
  173SOPE  H18Y19702   6.889   4.349   8.829 -1.2963  0.6703  3.0133
  173SOPE  H18Z19703   6.793   4.328   8.671 -1.4701 -0.2519 -0.5787
  174SOPE     N19704   4.374   3.992  11.188 -0.3512  0.1792 -0.3975
  174SOPE   HN119705   4.337   4.027  11.097  1.5194  0.0687 -1.2518
  174SOPE   HN219706   4.326   4.039  11.267  0.3745 -1.4734  1.1117
  174SOPE   HN319707   4.475   4.012  11.202 -0.1456 -0.6624 -0.6023
  174SOPE   C1219708   4.342   3.844  11.210 -0.2954  0.1684 -0.7247
  174SOPE  H12A19709   4.232   3.832  11.220 -0.5087 -0.0535 -2.8426
  174SOPE  H12B19710   4.398   3.815  11.301 -0.4891  0.8161 -0.3896
  174SOPE   C1119711   4.379   3.745  11.097 -0.5064 -0.0834 -0.4248
  174SOPE  H11A19712   4.332   3.646  11.116 -0.2300  0.0880  1.3646
  174SOPE  H11B19713   4.489   3.730  11.095 -0.0626  2.5266  0.6654
  174SOPE     P19714   4.193   3.773  10.918  0.3907 -0.4199  0.1680
  174SOPE   O1319715   4.105   3.891  10.946 -0.0637 -0.1428 -0.3255
  174SOPE   O1419716   4.146   3.642  10.965 -0.9218 -0.3634 -0.4166
  174SOPE   O1219717   4.334   3.805  10.974 -0.2079  0.1611  0.7679
  174SOPE   O1119718   4.236   3.774  10.770  0.4558  0.4776 -0.1918
  174SOPE    C119719   4.320   3.676  10.709  0.1256  0.6107 -0.0492
  174SOPE    HA19720   4.296   3.580  10.759  1.8596  0.3070  0.2611
  174SOPE    HB19721   4.427   3.697  10.730  0.3029 -1.5912  1.6245
  174SOPE    C219722   4.286   3.663  10.557 -0.4483 -0.9378 -0.4532
  174SOPE    HS19723   4.340   3.577  10.512  2.4583  0.7626 -0.4883
  174SOPE   O2119724   4.322   3.781  10.487  0.1476  0.2395 -0.0903
  174SOPE   C2119725   4.447   3.779  10.452 -0.2249 -0.3302  0.4585
  174SOPE   O2219726   4.531   3.692  10.474  0.0407 -0.4313  0.6617
  174SOPE   C2219727   4.466   3.918  10.392  0.0765 -0.3461  0.3756
  174SOPE   H2R19728   4.488   3.985  10.478 -0.6212 -0.4069  0.6092
  174SOPE   H2S19729   4.368   3.957  10.358 -0.7640  0.6128  3.5622
  174SOPE    C319730   4.128   3.647  10.533 -0.6082  0.1700  0.0317
  174SOPE    HX19731   4.075   3.729  10.586 -0.0100 -0.6491  1.9752
  174SOPE    HY19732   4.089   3.559  10.588 -1.9224  0.1528 -0.9000
  174SOPE   O3119733   4.095   3.645  10.394 -0.4174 -0.3579 -0.7107
  174SOPE   C3119734   3.995   3.723  10.345  0.3120  1.1166 -0.1267
  174SOPE   O3219735   3.934   3.810  10.406 -0.1530  0.8280 -0.9270
  174SOPE   C3219736   3.998   3.693  10.195  0.1946 -0.4224 -0.0401
  174SOPE   H2X19737   3.962   3.590  10.173  0.2317 -0.4383 -0.0268
  174SOPE   H2Y19738   4.104   3.705  10.164 -0.3794 -0.8051 -2.3622
  174SOPE   C2319739   4.565   3.916  10.278 -0.6564 -0.6218 -0.4370
  174SOPE   H3R19740   4.662   3.869  10.303 -0.5860  0.1395  0.7955
  174SOPE   H3S19741   4.588   4.020  10.247 -0.9084 -0.8494 -1.4395
  174SOPE   C2419742   4.501   3.840  10.157  0.3172 -0.2091 -0.1433
  174SOPE   H4R19743   4.480   3.734  10.182  1.2257 -0.5413 -0.7319
  174SOPE   H4S19744   4.403   3.888  10.137  1.3947  2.1995 -0.0217
  174SOPE   C2519745   4.584   3.847  10.026 -0.2635  0.2416 -0.4835
  174SOPE   H5R19746   4.588   3.957  10.009 -2.8294  0.5492  0.4262
  174SOPE   H5S19747   4.689   3.823  10.053 -0.2873  0.1961 -0.4309
  174SOPE   C2619748   4.524   3.768   9.918 -0.2563  0.0142 -0.0832
  174SOPE   H6R19749   4.508   3.662   9.948 -1.3344 -0.3403 -1.7980
  174SOPE   H6S19750   4.425   3.814   9.901  0.0549  0.7797  0.1297
  174SOPE   C2719751   4.603   3.770   9.781  1.0286 -0.0062  0.3822
  174SOPE   H7R19752   4.706   3.737   9.808  0.8694 -2.5502 -1.7448
  174SOPE   H7S19753   4.547   3.697   9.719 -2.6781  1.7193  1.3869
  174SOPE   C2819754   4.607   3.914   9.723  0.0772  0.5186  0.5407
  174SOPE   H8R19755   4.513   3.973   9.728 -0.2453  0.3324 -1.9943
  174SOPE   H8S19756   4.685   3.979   9.769 -0.6906  1.4275  0.5966
  174SOPE   C2919757   4.648   3.899   9.575 -0.4307  0.4656  0.2005
  174SOPE   H9119758   4.747   3.856   9.556 -0.7567  0.5395 -1.8299
  174SOPE  C21019759   4.573   3.946   9.471  0.1299 -0.2611  0.0805
  174SOPE  H10119760   4.626   3.936   9.375 -1.5720 -1.1320 -0.8167
  174SOPE  C21119761   4.444   4.019   9.464  0.4071  0.7477  0.4231
  174SOPE  H11R19762   4.448   4.122   9.424 -3.1153  0.8134 -0.0799
  174SOPE  H11S19763   4.424   4.033   9.573  2.0192 -0.0541  0.8558
  174SOPE  C21219764   4.331   3.937   9.397 -0.0448 -0.1584  0.1160
  174SOPE  H12R19765   4.232   3.984   9.414  0.5612  1.3273 -0.3131
  174SOPE  H12S19766   4.321   3.838   9.446  1.6899 -0.1283  0.5956
  174SOPE  C21319767   4.359   3.895   9.247  0.1929 -0.3275  0.1903
  174SOPE  H13R19768   4.458   3.845   9.232  0.0638  0.0560 -2.3249
  174SOPE  H13S19769   4.365   3.991   9.193  0.8960  1.1780  2.7637
  174SOPE  C21419770   4.250   3.806   9.189  0.0532 -0.2999  0.2775
  174SOPE  H14R19771   4.156   3.855   9.222 -1.2226 -0.4817 -2.7519
  174SOPE  H14S19772   4.254   3.706   9.238  0.3439 -0.2493  0.3573
  174SOPE  C21519773   4.239   3.811   9.039  0.0778  0.0870  0.3198
  174SOPE  H15R19774   4.321   3.757   8.987 -0.0246 -0.0155  0.2641
  174SOPE  H15S19775   4.247   3.919   9.014  2.0645 -0.3139 -0.9947
  174SOPE  C21619776   4.100   3.757   8.982 -0.6871  0.9116 -0.5684
  174SOPE  H16R19777   4.019   3.823   9.021 -1.0680  0.3683 -0.4342
  174SOPE  H16S19778   4.101   3.656   9.028  1.1255  1.2776  0.2900
  174SOPE  C21719779   4.101   3.738   8.832  0.7743  0.2080  0.1718
  174SOPE  H17R19780   4.007   3.685   8.806  0.9260 -0.5579  1.1155
  174SOPE  H17S19781   4.180   3.663   8.809  0.3406 -1.1522  2.7164
  174SOPE  C21819782   4.125   3.864   8.751 -0.3394 -0.2337 -0.0237
  174SOPE  H18R19783   4.114   3.837   8.643  3.6490 -0.2943 -0.5657
  174SOPE  H18S19784   4.228   3.895   8.779  0.4098 -0.8725 -1.8907
  174SOPE  H18T19785   4.051   3.941   8.780 -2.6595 -1.6135 -1.8924
  174SOPE   C3319786   3.923   3.791  10.107 -0.0441 -0.7443 -0.3104
  174SOPE   H3X19787   3.976   3.888  10.122  0.3215 -0.6712 -1.8536
  174SOPE   H3Y19788   3.818   3.792  10.142  0.2383  0.6621  0.6205
  174SOPE   C3419789   3.926   3.756   9.957 -0.3978  1.0549  0.1583
  174SOPE   H4X19790   3.900   3.648   9.944  2.6155  0.3682 -0.8458
  174SOPE   H4Y19791   4.029   3.777   9.923 -0.7203  2.4389 -0.0153
  174SOPE   C3519792   3.823   3.846   9.875  0.0928 -0.3988 -0.0486
  174SOPE   H5X19793   3.858   3.949   9.896  1.1626 -1.2763  2.9630
  174SOPE   H5Y19794   3.728   3.834   9.931 -0.4491  0.6294 -0.7271
  174SOPE   C3619795   3.818   3.805   9.730  0.0616 -0.8666 -0.1560
  174SOPE   H6X19796   3.728   3.856   9.688  0.7400  1.1023  0.6477
  174SOPE   H6Y19797   3.805   3.695   9.736  1.0440 -0.9070  2.5208
  174SOPE   C3719798   3.946   3.836   9.655 -0.8105  0.2909 -0.0546
  174SOPE   H7X19799   4.030   3.787   9.708 -0.7290  0.2429 -0.2245
  174SOPE   H7Y19800   3.977   3.941   9.639  2.7144 -0.6182 -0.0845
  174SOPE   C3819801   3.942   3.781   9.511 -0.1346 -0.0384  0.4871
  174SOPE   H8X19802   3.899   3.679   9.505 -0.6444  0.1546  0.7315
  174SOPE   H8Y19803   4.040   3.767   9.462 -0.7338  2.2388 -1.5749
  174SOPE   C3919804   3.851   3.875   9.425 -0.3246 -0.1715 -0.3484
  174SOPE   H9X19805   3.895   3.975   9.405 -1.1003  0.3913  0.6799
  174SOPE   H9Y19806   3.761   3.910   9.480  0.0718  1.2264 -0.5508
  174SOPE  C31019807   3.802   3.814   9.294 -0.0938 -0.1726 -0.0228
  174SOPE  H10X19808   3.753   3.715   9.307 -1.3572  0.3678 -0.5146
  174SOPE  H10Y19809   3.894   3.793   9.236 -0.4908 -1.0316 -0.3574
  174SOPE  C31119810   3.686   3.892   9.234  0.1855 -0.3728  0.4038
  174SOPE  H11X19811   3.727   3.995   9.227 -1.8533  0.5709  1.5308
  174SOPE  H11Y19812   3.607   3.896   9.312  0.1414 -2.0743  0.4716
  174SOPE  C31219813   3.639   3.843   9.100 -0.6733  0.5373 -0.2881
  174SOPE  H12X19814   3.602   3.739   9.111 -0.3066  0.6208  2.4537
  174SOPE  H12Y19815   3.731   3.836   9.039 -0.6165  0.2773 -0.1722
  174SOPE  C31319816   3.539   3.937   9.037 -0.2474 -0.5244 -0.0590
  174SOPE  H13X19817   3.523   4.032   9.092 -1.1543 -0.8723  0.3033
  174SOPE  H13Y19818   3.450   3.876   9.010 -0.7319 -0.6996  1.7748
  174SOPE  C31419819   3.595   3.969   8.897  0.2966  0.7737 -0.3559
  174SOPE  H14X19820   3.702   3.997   8.889  0.6596 -1.0537 -3.5862
  174SOPE  H14Y19821   3.533   4.055   8.864 -0.9550  0.1041  0.1879
  174SOPE  C31519822   3.572   3.852   8.804 -0.0136  0.2780 -0.6754
  174SOPE  H15X19823   3.502   3.775   8.842  0.3691 -0.1827 -0.8937
  174SOPE  H15Y19824   3.662   3.791   8.785 -0.5937 -0.4702 -1.0695
  174SOPE  C31619825   3.536   3.893   8.660 -0.1684  0.4274 -0.6964
  174SOPE  H16X19826   3.624   3.948   8.621  0.9881  0.6282  2.0057
  174SOPE  H16Y19827   3.456   3.969   8.671 -1.2023 -0.7606  0.3248
  174SOPE  C31719828   3.494   3.762   8.583  0.8713  0.1382  0.4614
  174SOPE  H17X19829   3.579   3.691   8.586 -1.4357 -2.7468  1.5767
  174SOPE  H17Y19830   3.471   3.776   8.475  2.0747 -1.8978 -0.1138
  174SOPE  C31819831   3.359   3.699   8.622 -0.2064 -0.3162 -0.5495
  174SOPE  H18X19832   3.339   3.607   8.563  0.1917 -1.0770  0.4628
  174SOPE  H18Y19833   3.281   3.772   8.592  1.4437  1.7328 -0.1414
  174SOPE  H18Z19834   3.355   3.669   8.729 -3.9211 -0.4029 -0.5963
  175SOPE     N19835   1.911   6.127  10.626 -0.4474  0.3195  0.4658
  175SOPE   HN119836   2.015   6.124  10.620 -0.5442 -1.2388 -1.7480
  175SOPE   HN219837   1.882   6.178  10.712  0.1750 -0.6528  1.2803
  175SOPE   HN319838   1.871   6.032  10.639  0.3888 -0.3482 -1.4268
  175SOPE   C1219839   1.865   6.184  10.492 -0.1086  0.7738 -0.9681
  175SOPE  H12A19840   1.891   6.097  10.428 -2.2937 -1.0400  0.4521
  175SOPE  H12B19841   1.922   6.277  10.472  1.9922  0.0271  0.9774
  175SOPE   C1119842   1.713   6.219  10.503  0.2649 -0.6316  0.1183
  175SOPE  H11A19843   1.661   6.122  10.522 -0.4181 -0.3943 -0.5077
  175SOPE  H11B19844   1.680   6.264  10.407  1.8695 -0.0970 -0.2154
  175SOPE     P19845   1.573   6.405  10.609  0.5157  0.1305 -0.1374
  175SOPE   O1319846   1.578   6.489  10.726  0.3650  0.2762 -0.2869
  175SOPE   O1419847   1.443   6.345  10.575  0.5102  0.4339 -0.4638
  175SOPE   O1219848   1.683   6.299  10.616  0.2495 -0.3382 -0.4745
  175SOPE   O1119849   1.617   6.492  10.488 -0.1212  0.3956  0.7127
  175SOPE    C119850   1.614   6.639  10.474  0.2919  0.3393 -0.6069
  175SOPE    HA19851   1.695   6.685  10.535 -0.2384  0.4104  0.0526
  175SOPE    HB19852   1.520   6.671  10.524 -0.3589 -4.3248  1.6390
  175SOPE    C219853   1.631   6.678  10.321  0.7424  0.5188 -0.2407
  175SOPE    HS19854   1.587   6.779  10.310 -1.2049 -0.3547 -1.0250
  175SOPE   O2119855   1.554   6.585  10.238 -0.6306  0.2529  0.2388
  175SOPE   C2119856   1.423   6.593  10.247 -0.3899 -0.0892  0.2186
  175SOPE   O2219857   1.355   6.671  10.308  0.4443 -0.2586 -0.6718
  175SOPE   C2219858   1.369   6.467  10.177  0.1558 -0.5779  0.4052
  175SOPE   H2R19859   1.330   6.398  10.256 -0.0502 -2.5185 -1.3119
  175SOPE   H2S19860   1.450   6.425  10.114  0.5224  0.9673 -0.1906
  175SOPE    C319861   1.781   6.685  10.279 -0.2901 -0.2599  0.2275
  175SOPE    HX19862   1.825   6.583  10.268  0.7530 -0.0409  2.0683
  175SOPE    HY19863   1.840   6.742  10.353 -1.0105  2.3467 -1.0784
  175SOPE   O3119864   1.805   6.751  10.150  0.5904  0.5141 -1.2393
  175SOPE   C3119865   1.793   6.885  10.153 -0.0029 -0.3863  0.3690
  175SOPE   O3219866   1.757   6.946  10.248  0.5263  0.7919 -0.1470
  175SOPE   C3219867   1.853   6.950  10.034  0.7925  0.8257 -0.3105
  175SOPE   H2X19868   1.947   6.900  10.002 -0.0670 -4.5836  4.1881
  175SOPE   H2Y19869   1.878   7.056  10.055  5.0218  0.1169 -0.9591
  175SOPE   C2319870   1.245   6.492  10.086 -0.6879  0.2013  0.7196
  175SOPE   H3R19871   1.259   6.546   9.990 -0.7965 -0.7092  0.1748
  175SOPE   H3S19872   1.163   6.548  10.137 -1.8092 -1.0314  0.3409
  175SOPE   C2419873   1.194   6.356  10.026  0.2476  0.7117  0.3254
  175SOPE   H4R19874   1.159   6.293  10.110 -0.9959  3.9218  2.3856
  175SOPE   H4S19875   1.108   6.382   9.960 -1.4702  0.4919  2.3590
  175SOPE   C2519876   1.299   6.278   9.933 -0.8391 -0.6357  0.2497
  175SOPE   H5R19877   1.401   6.276   9.977 -0.6512  0.3369 -0.1199
  175SOPE   H5S19878   1.264   6.172   9.939 -1.2012 -0.5361 -0.0308
  175SOPE   C2619879   1.306   6.323   9.784 -0.2078  0.3051  0.2809
  175SOPE   H6R19880   1.205   6.297   9.745  0.4905 -0.9161 -0.7904
  175SOPE   H6S19881   1.315   6.433   9.770 -1.1210  0.5143  1.2152
  175SOPE   C2719882   1.418   6.237   9.718 -1.0008  0.2045 -0.7110
  175SOPE   H7R19883   1.522   6.264   9.741 -0.4485 -3.0189  1.2012
  175SOPE   H7S19884   1.393   6.137   9.761 -1.2721  0.6558  0.1936
  175SOPE   C2819885   1.412   6.219   9.567  0.3668  0.3789 -0.2719
  175SOPE   H8R19886   1.498   6.160   9.529 -0.5361 -0.5032 -1.0142
  175SOPE   H8S19887   1.316   6.179   9.527  1.1205  0.7408 -2.6062
  175SOPE   C2919888   1.439   6.358   9.510 -0.0661 -0.0719  0.0930
  175SOPE   H9119889   1.541   6.397   9.519  0.8283 -0.1152 -5.8605
  175SOPE  C21019890   1.367   6.422   9.411 -0.1929  0.1290 -0.2737
  175SOPE  H10119891   1.401   6.523   9.382 -1.2270  0.3819 -0.6591
  175SOPE  C21119892   1.240   6.384   9.341  0.0126  0.2107  0.0410
  175SOPE  H11R19893   1.159   6.454   9.370 -2.5789 -1.9025 -1.6094
  175SOPE  H11S19894   1.205   6.279   9.353 -1.3011  0.5593 -0.5383
  175SOPE  C21219895   1.257   6.397   9.192 -0.1086 -0.1102  0.3058
  175SOPE  H12R19896   1.277   6.504   9.167  0.1103 -0.2908 -0.3299
  175SOPE  H12S19897   1.159   6.374   9.145 -0.2619  0.4513  0.3454
  175SOPE  C21319898   1.367   6.310   9.123  0.7565 -0.3644  0.5024
  175SOPE  H13R19899   1.338   6.205   9.145  1.3149 -0.8382 -0.8926
  175SOPE  H13S19900   1.465   6.339   9.166  0.7384 -1.1226  1.0698
  175SOPE  C21419901   1.378   6.337   8.965  0.1629 -0.1958  0.1494
  175SOPE  H14R19902   1.437   6.251   8.927 -2.2420 -2.5840  1.4733
  175SOPE  H14S19903   1.427   6.436   8.952  0.3750  0.0651  2.5420
  175SOPE  C21519904   1.241   6.350   8.896 -0.4771  0.1419 -0.3813
  175SOPE  H15R19905   1.182   6.440   8.924  1.1230  1.0538  0.1885
  175SOPE  H15S19906   1.188   6.261   8.939 -0.3767  1.0000  1.6413
  175SOPE  C21619907   1.248   6.362   8.745 -0.1714  0.2729  0.5128
  175SOPE  H16R19908   1.334   6.426   8.715 -1.3182  1.5791 -0.0936
  175SOPE  H16S19909   1.156   6.408   8.703 -0.2958 -1.8278 -1.7325
  175SOPE  C21719910   1.264   6.223   8.669 -0.4537  0.2088  0.1193
  175SOPE  H17R19911   1.183   6.157   8.707 -0.1502 -0.5167 -0.4759
  175SOPE  H17S19912   1.356   6.173   8.706 -1.8957 -1.7987  1.1645
  175SOPE  C21819913   1.259   6.240   8.516  0.0578 -0.0726 -0.1693
  175SOPE  H18R19914   1.163   6.284   8.482 -1.0284 -2.9053 -1.0287
  175SOPE  H18S19915   1.279   6.142   8.467  2.8169 -0.6827  1.9388
  175SOPE  H18T19916   1.338   6.314   8.489  2.6487 -2.4699  0.4439
  175SOPE   C3319917   1.753   6.934   9.912 -0.2527 -0.4364 -0.5152
  175SOPE   H3X19918   1.666   7.000   9.932  0.5324 -0.0922  2.0444
  175SOPE   H3Y19919   1.725   6.826   9.913  1.9331 -1.0571 -0.4772
  175SOPE   C3419920   1.812   6.969   9.777  0.1831  0.2345 -0.4535
  175SOPE   H4X19921   1.910   6.919   9.762 -0.9296 -2.2826  0.1397
  175SOPE   H4Y19922   1.816   7.080   9.774 -0.2553  0.2505 -0.5750
  175SOPE   C3519923   1.710   6.923   9.669 -0.2784  0.7994 -0.1325
  175SOPE   H5X19924   1.615   6.980   9.681 -1.2373 -0.7054 -0.4094
  175SOPE   H5Y19925   1.679   6.816   9.673 -1.7558  1.2136  0.3084
  175SOPE   C3619926   1.759   6.945   9.525 -0.9581 -0.0641 -0.3223
  175SOPE   H6X19927   1.681   6.891   9.467 -1.6230  1.2672 -0.7083
  175SOPE   H6Y19928   1.854   6.889   9.508 -1.0489 -0.4586  0.4305
  175SOPE   C3719929   1.777   7.097   9.490  0.3340  0.3469 -0.9562
  175SOPE   H7X19930   1.867   7.134   9.543 -0.4466  1.3402 -0.2938
  175SOPE   H7Y19931   1.695   7.160   9.529  0.1510 -0.6288  0.3099
  175SOPE   C3819932   1.776   7.115   9.341  0.7570 -0.2944 -0.5605
  175SOPE   H8X19933   1.821   7.036   9.278  2.0671  0.9702 -1.2598
  175SOPE   H8Y19934   1.832   7.204   9.306  0.9869 -0.5751 -0.9076
  175SOPE   C3919935   1.630   7.134   9.292 -0.6713 -0.2912  0.1266
  175SOPE   H9X19936   1.596   7.224   9.348  1.9919  0.7574  0.2365
  175SOPE   H9Y19937   1.569   7.047   9.323 -2.0411  0.5630 -0.0905
  175SOPE  C31019938   1.612   7.177   9.142  0.3663 -0.2583 -0.4932
  175SOPE  H10X19939   1.671   7.112   9.074  1.0146  1.5874 -1.7852
  175SOPE  H10Y19940   1.660   7.276   9.128  3.3223 -1.2128  1.7901
  175SOPE  C31119941   1.466   7.181   9.111  0.3990  0.2614 -0.4989
  175SOPE  H11X19942   1.437   7.260   9.183 -0.5019 -0.3791 -0.1429
  175SOPE  H11Y19943   1.420   7.082   9.132 -0.5787  0.7746 -0.1333
  175SOPE  C31219944   1.430   7.204   8.960 -0.4800 -0.5325 -0.3061
  175SOPE  H12X19945   1.496   7.134   8.904  0.7287  0.5463 -0.2839
  175SOPE  H12Y19946   1.459   7.309   8.938 -2.2778  0.2140  0.7141
  175SOPE  C31319947   1.289   7.183   8.923  0.3865  0.2928  0.5032
  175SOPE  H13X19948   1.217   7.229   8.994 -0.2120 -0.0698  0.1299
  175SOPE  H13Y19949   1.270   7.074   8.918 -2.0418  0.7114 -0.3356
  175SOPE  C31419950   1.259   7.239   8.775  0.1812  0.2122 -0.2168
  175SOPE  H14X19951   1.336   7.198   8.705 -0.1663 -1.0569  0.1291
  175SOPE  H14Y19952   1.285   7.347   8.781  3.2583 -0.3496 -1.3073
  175SOPE  C31519953   1.129   7.202   8.704  0.1962 -0.2665  0.5528
  175SOPE  H15X19954   1.106   7.094   8.715 -0.1967 -0.2563 -0.1167
  175SOPE  H15Y19955   1.136   7.231   8.597  2.8180  3.3918  1.4815
  175SOPE  C31619956   1.007   7.281   8.760 -0.6043 -0.0199 -0.6662
  175SOPE  H16X19957   1.050   7.383   8.762  2.2469 -1.1142 -0.2827
  175SOPE  H16Y19958   0.976   7.234   8.856 -2.2444  0.6620 -0.8327
  175SOPE  C31719959   0.878   7.257   8.673 -0.7610  0.3282 -0.6019
  175SOPE  H17X19960   0.780   7.269   8.723 -0.5504  0.8675 -0.3144
  175SOPE  H17Y19961   0.879   7.155   8.629 -0.7488 -0.6988  1.6678
  175SOPE  C31819962   0.880   7.372   8.571  0.0160 -0.3735  0.0372
  175SOPE  H18X19963   0.976   7.367   8.514 -1.3196 -3.2473 -2.2684
  175SOPE  H18Y19964   0.863   7.473   8.615 -1.3458 -1.2868  1.6900
  175SOPE  H18Z19965   0.805   7.364   8.489  0.0774  1.6040 -0.2628
  176SOPE     N19966   6.553   5.605  10.905  0.0107  0.0173  0.2638
  176SOPE   HN119967   6.542   5.535  10.829  0.7726 -0.1967  0.3453
  176SOPE   HN219968   6.493   5.681  10.867  0.8646  0.9585  0.7744
  176SOPE   HN319969   6.652   5.634  10.911  0.1302 -0.3147 -0.0740
  176SOPE   C1219970   6.504   5.550  11.035  0.0777  1.0730 -0.1647
  176SOPE  H12A19971   6.536   5.612  11.122  0.2716 -0.3751  0.8298
  176SOPE  H12B19972   6.557   5.454  11.048  1.5059  1.9384  0.6815
  176SOPE   C1119973   6.350   5.524  11.038  0.2989  0.0861  0.8353
  176SOPE  H11A19974   6.299   5.621  11.053 -2.3348 -1.2644  1.2666
  176SOPE  H11B19975   6.328   5.465  11.130 -0.2790  1.1310  1.3808
  176SOPE     P19976   6.323   5.314  10.886  0.3272 -0.0886  0.1298
  176SOPE   O1319977   6.195   5.239  10.893 -0.0082 -0.4863  0.3158
  176SOPE   O1419978   6.437   5.259  10.957  0.0386  0.1105 -0.2853
  176SOPE   O1219979   6.296   5.465  10.923  0.1466  0.1832  0.1274
  176SOPE   O1119980   6.349   5.335  10.732  0.5790 -0.4952  0.4378
  176SOPE    C119981   6.296   5.438  10.650 -0.1823 -0.3425  0.3273
  176SOPE    HA19982   6.376   5.442  10.574  0.7814  0.2067  1.3519
  176SOPE    HB19983   6.297   5.538  10.697  0.7286  0.4620 -1.3400
  176SOPE    C219984   6.163   5.390  10.588  1.0852 -0.9829  0.6628
  176SOPE    HS19985   6.096   5.379  10.677  0.5378  0.9926  0.5515
  176SOPE   O2119986   6.194   5.264  10.527  0.0908  0.5535 -0.0811
  176SOPE   C2119987   6.094   5.192  10.478 -0.3869  0.2439 -0.0928
  176SOPE   O2219988   5.972   5.210  10.500  0.4176 -0.5022  0.0102
  176SOPE   C2219989   6.154   5.079  10.392 -0.0952  0.5703 -0.7254
  176SOPE   H2R19990   6.131   4.988  10.452 -0.8263 -0.4792 -2.5091
  176SOPE   H2S19991   6.265   5.090  10.395 -0.1490  1.1420 -0.7126
  176SOPE    C319992   6.093   5.487  10.495 -0.0312 -0.3300  0.4173
  176SOPE    HX19993   6.062   5.572  10.560  3.3002  1.2008  0.2165
  176SOPE    HY19994   6.007   5.439  10.446 -0.2412  0.2678  0.1899
  176SOPE   O3119995   6.176   5.539  10.396  0.3123 -0.1307 -0.0429
  176SOPE   C3119996   6.111   5.648  10.337 -0.0400 -0.5319 -0.6739
  176SOPE   O3219997   5.996   5.680  10.361  0.0782 -0.4572 -1.2382
  176SOPE   C3219998   6.202   5.714  10.234 -0.1241 -0.0616 -0.2879
  176SOPE   H2X19999   6.307   5.683  10.256  0.2099  0.9126 -0.4507
  176SOPE   H2Y20000   6.193   5.822  10.257 -2.7354 -0.2959  0.1299
  176SOPE   C2320001   6.107   5.070  10.247  0.3602 -0.1708 -0.6681
  176SOPE   H3R20002   6.002   5.101  10.230  0.3590 -0.1643 -0.6488
  176SOPE   H3S20003   6.103   4.962  10.220 -3.2377 -0.7106  1.3795
  176SOPE   C2420004   6.199   5.142  10.150 -0.2587 -0.3429  0.4893
  176SOPE   H4R20005   6.225   5.244  10.186 -0.3599 -0.1521  0.0293
  176SOPE   H4S20006   6.284   5.074  10.132 -0.3138  0.1549 -1.9346
  176SOPE   C2520007   6.127   5.173  10.014 -0.2178 -0.0780 -0.0597
  176SOPE   H5R20008   6.037   5.236  10.031 -1.3011 -1.5549 -0.1757
  176SOPE   H5S20009   6.203   5.226   9.952  0.2684  1.2809  1.6167
  176SOPE   C2620010   6.068   5.051   9.949  0.1230  0.6303  0.5397
  176SOPE   H6R20011   6.125   4.958   9.973  0.2878 -0.1007 -2.2328
  176SOPE   H6S20012   5.965   5.033   9.985 -0.2396 -0.4051 -0.9329
  176SOPE   C2720013   6.068   5.063   9.793 -0.4167 -0.0532  0.0711
  176SOPE   H7R20014   6.010   5.155   9.769  0.8173  0.3879 -1.4332
  176SOPE   H7S20015   6.176   5.083   9.777  0.7149 -2.0006  4.1094
  176SOPE   C2820016   6.024   4.936   9.729  0.5241  0.0234 -0.0800
  176SOPE   H8R20017   6.083   4.847   9.763  1.4162  0.9749  0.9297
  176SOPE   H8S20018   5.917   4.918   9.750 -0.1856  2.3708 -1.3786
  176SOPE   C2920019   6.058   4.954   9.580  0.3869 -0.0182  0.3909
  176SOPE   H9120020   6.167   4.939   9.568  0.0818 -4.2547  1.4391
  176SOPE  C21020021   5.973   4.988   9.479 -0.4890 -0.6150  0.3677
  176SOPE  H10120022   6.011   5.004   9.377 -2.5173 -0.8039 -0.4657
  176SOPE  C21120023   5.832   5.018   9.496 -0.1710 -0.1873  0.0344
  176SOPE  H11R20024   5.835   5.128   9.513  0.7374  0.4592 -3.4160
  176SOPE  H11S20025   5.781   4.965   9.579 -0.7572 -1.6484 -1.2038
  176SOPE  C21220026   5.748   4.982   9.377  0.1469  0.2295  0.5212
  176SOPE  H12R20027   5.806   5.007   9.285  2.3926  1.4777  2.1829
  176SOPE  H12S20028   5.657   5.043   9.392 -0.8435 -1.6280  2.5955
  176SOPE  C21320029   5.702   4.843   9.363 -0.2128  0.0230 -0.4369
  176SOPE  H13R20030   5.662   4.807   9.460 -0.4197  1.1546 -0.0800
  176SOPE  H13S20031   5.793   4.781   9.353 -0.0488  0.1312  0.3229
  176SOPE  C21420032   5.600   4.816   9.253  0.1617  0.2398  0.3174
  176SOPE  H14R20033   5.509   4.874   9.280 -0.6425 -0.8187 -0.0260
  176SOPE  H14S20034   5.586   4.706   9.267  0.5578  0.0057 -0.9945
  176SOPE  C21520035   5.638   4.856   9.112 -0.1794  0.5903 -0.6226
  176SOPE  H15R20036   5.741   4.820   9.094 -1.3970 -2.5656 -1.9487
  176SOPE  H15S20037   5.636   4.967   9.106  2.7802  0.6699 -1.4766
  176SOPE  C21620038   5.554   4.777   9.002 -0.3451 -1.5546 -0.2603
  176SOPE  H16R20039   5.577   4.825   8.905 -3.0767  0.4416 -0.0398
  176SOPE  H16S20040   5.446   4.802   9.011 -0.4491 -1.4692 -1.5572
  176SOPE  C21720041   5.556   4.627   8.999  0.3812 -0.3191  0.2633
  176SOPE  H17R20042   5.486   4.599   9.081 -1.2520 -0.2146 -1.0304
  176SOPE  H17S20043   5.653   4.587   9.036  0.7531  0.6076  0.3308
  176SOPE  C21820044   5.533   4.570   8.860  0.2279  0.0965  0.0414
  176SOPE  H18R20045   5.427   4.584   8.828  0.6594 -0.4590 -1.7321
  176SOPE  H18S20046   5.537   4.459   8.866  0.0555  0.1413  1.1947
  176SOPE  H18T20047   5.606   4.609   8.786  0.2308  1.6587  0.8334
  176SOPE   C3320048   6.172   5.701  10.085 -0.0039  0.6600 -0.7055
  176SOPE   H3X20049   6.065   5.725  10.066 -0.1867 -1.1875 -2.4208
  176SOPE   H3Y20050   6.181   5.596  10.051  2.1333  0.9013 -1.0235
  176SOPE   C3420051   6.264   5.774   9.993 -0.2605 -0.5251 -0.0801
  176SOPE   H4X20052   6.365   5.769  10.040  0.1305  0.4832 -0.7871
  176SOPE   H4Y20053   6.230   5.880   9.991 -3.9635 -1.4426  2.6065
  176SOPE   C3520054   6.273   5.717   9.854  1.1597  0.0352  0.2721
  176SOPE   H5X20055   6.317   5.616   9.865  0.0635 -0.3917  0.8205
  176SOPE   H5Y20056   6.342   5.793   9.809  1.0243  0.5536  0.9259
  176SOPE   C3620057   6.135   5.723   9.768  0.0758  0.5265  0.2658
  176SOPE   H6X20058   6.109   5.831   9.771 -0.8438  0.2935  2.4571
  176SOPE   H6Y20059   6.050   5.668   9.815  1.2779 -0.0229  1.8978
  176SOPE   C3720060   6.152   5.675   9.625  0.0706 -0.1458  0.2714
  176SOPE   H7X20061   6.235   5.721   9.567 -0.4361  0.6102  0.1312
  176SOPE   H7Y20062   6.060   5.695   9.565  0.4820 -1.3945 -0.8409
  176SOPE   C3820063   6.160   5.521   9.620  0.5666  0.9076 -0.5639
  176SOPE   H8X20064   6.084   5.473   9.686  1.1883  0.0171 -0.4802
  176SOPE   H8Y20065   6.253   5.482   9.667 -0.6799 -1.8516 -0.1866
  176SOPE   C3920066   6.139   5.480   9.476 -0.4667  0.5353  0.5049
  176SOPE   H9X20067   6.231   5.515   9.426 -0.2214 -1.7716 -0.7916
  176SOPE   H9Y20068   6.044   5.522   9.436  0.6882 -0.4813 -3.8131
  176SOPE  C31020069   6.143   5.324   9.463 -0.3877  0.0348 -0.4313
  176SOPE  H10X20070   6.063   5.279   9.525 -0.4743 -1.4785 -1.5677
  176SOPE  H10Y20071   6.240   5.293   9.505 -0.7304  0.2356  0.5285
  176SOPE  C31120072   6.140   5.257   9.323 -0.2279  0.8119 -0.0383
  176SOPE  H11X20073   6.173   5.151   9.334  2.7048  1.5278 -0.9724
  176SOPE  H11Y20074   6.221   5.297   9.259 -0.6661  0.7657 -0.6275
  176SOPE  C31220075   6.012   5.285   9.251  0.4739  0.1925  0.0080
  176SOPE  H12X20076   5.983   5.391   9.271  2.5039  0.6280  0.9195
  176SOPE  H12Y20077   5.940   5.212   9.293 -0.2476  0.0722 -1.3637
  176SOPE  C31320078   5.996   5.258   9.104  0.0555  0.1577 -0.3706
  176SOPE  H13X20079   6.018   5.149   9.095 -0.1392  0.0310  0.5521
  176SOPE  H13Y20080   6.059   5.312   9.030 -1.2749 -2.8750 -4.0420
  176SOPE  C31420081   5.845   5.294   9.056  0.7851 -0.2357 -0.9414
  176SOPE  H14X20082   5.831   5.404   9.057  0.8516 -0.2023  1.4884
  176SOPE  H14Y20083   5.775   5.259   9.135  0.0506 -0.0829 -1.5127
  176SOPE  C31520084   5.807   5.225   8.924  0.1391  0.4483 -0.2280
  176SOPE  H15X20085   5.696   5.228   8.926  0.0952 -0.9122  0.5962
  176SOPE  H15Y20086   5.821   5.116   8.941 -3.3518 -0.2051 -0.8308
  176SOPE  C31620087   5.853   5.292   8.791  0.1605  0.0183 -0.3679
  176SOPE  H16X20088   5.946   5.353   8.792  0.4594 -0.3012 -2.7010
  176SOPE  H16Y20089   5.773   5.366   8.769 -0.7339 -0.8048  0.0197
  176SOPE  C31720090   5.853   5.181   8.680 -0.1248  0.3178 -0.4453
  176SOPE  H17X20091   5.750   5.138   8.674 -0.5219  1.4628 -2.5148
  176SOPE  H17Y20092   5.915   5.102   8.727  1.7816  1.5181 -0.8588
  176SOPE  C31820093   5.905   5.241   8.547  0.3841  0.5583 -0.2611
  176SOPE  H18X20094   5.826   5.285   8.483  1.4358 -0.5487 -2.4521
  176SOPE  H18Y20095   5.953   5.161   8.487  0.7440 -0.8329  1.7878
  176SOPE  H18Z20096   5.978   5.320   8.575 -0.1021  0.4360  1.4395
  177SOPE     N20097   6.171   3.127  11.038  0.0084 -0.4842  0.9585
  177SOPE   HN120098   6.159   3.094  10.940  1.2415 -1.0533  0.9772
  177SOPE   HN220099   6.093   3.084  11.091 -0.0578 -0.4586  0.8793
  177SOPE   HN320100   6.170   3.230  11.028  2.7447 -0.5827 -2.8182
  177SOPE   C1220101   6.303   3.088  11.093 -0.0326 -0.0164 -0.8817
  177SOPE  H12A20102   6.286   3.007  11.166 -1.1863 -2.0785 -3.2789
  177SOPE  H12B20103   6.348   3.171  11.151 -0.5256 -0.6178  0.3914
  177SOPE   C1120104   6.394   3.039  10.981  0.3903 -0.5280 -0.4414
  177SOPE  H11A20105   6.340   2.950  10.941 -1.8296  0.1115  0.9355
  177SOPE  H11B20106   6.486   3.003  11.030  0.4097  0.7020  0.4789
  177SOPE     P20107   6.540   3.229  10.870  0.0379  0.0469 -0.1551
  177SOPE   O1320108   6.621   3.208  10.992 -0.0390 -0.1020  0.4086
  177SOPE   O1420109   6.504   3.368  10.844  0.2441 -0.1063 -0.9055
  177SOPE   O1220110   6.406   3.142  10.877  0.4189 -0.7584 -0.5153
  177SOPE   O1120111   6.605   3.170  10.748 -0.5866 -0.4422 -0.4745
  177SOPE    C120112   6.583   3.229  10.617  0.4998 -0.1832 -0.0130
  177SOPE    HA20113   6.662   3.178  10.557  1.6561  0.1119  1.2094
  177SOPE    HB20114   6.602   3.338  10.612  0.9916 -0.2414  0.5421
  177SOPE    C220115   6.441   3.217  10.555 -0.1144  0.4741  0.1544
  177SOPE    HS20116   6.372   3.267  10.626  0.1332 -0.8367  1.3949
  177SOPE   O2120117   6.421   3.075  10.550  0.0353  0.3939 -0.0294
  177SOPE   C2120118   6.288   3.047  10.567 -0.1922  0.6241  0.4125
  177SOPE   O2220119   6.201   3.132  10.577 -0.3887  0.3407 -0.2995
  177SOPE   C2220120   6.281   2.901  10.560  0.4016 -0.5505 -0.4650
  177SOPE   H2R20121   6.177   2.868  10.538 -1.3028  2.5920  1.9501
  177SOPE   H2S20122   6.299   2.859  10.661  0.4732 -1.8804 -1.0119
  177SOPE    C320123   6.438   3.270  10.411  0.2350  0.8383 -0.2745
  177SOPE    HX20124   6.336   3.263  10.366  0.3903 -1.2522 -0.3915
  177SOPE    HY20125   6.500   3.202  10.350 -1.5063 -0.4818 -0.6478
  177SOPE   O3120126   6.504   3.399  10.402 -0.5813  0.0117  0.3792
  177SOPE   C3120127   6.421   3.495  10.389 -0.0833 -1.1325  0.3664
  177SOPE   O3220128   6.300   3.491  10.387 -0.1654  0.2906 -0.1136
  177SOPE   C3220129   6.504   3.624  10.374  0.0848  0.1547  0.1165
  177SOPE   H2X20130   6.587   3.606  10.302 -0.5193  0.0638 -0.5664
  177SOPE   H2Y20131   6.553   3.651  10.471 -1.1743  3.0044  0.0403
  177SOPE   C2320132   6.373   2.851  10.454 -0.2955  0.4370  0.7985
  177SOPE   H3R20133   6.479   2.859  10.484  0.7550  2.1311 -2.8999
  177SOPE   H3S20134   6.346   2.904  10.361 -1.6852 -0.5818  0.5849
  177SOPE   C2420135   6.340   2.711  10.406  0.3564  0.3090  0.4289
  177SOPE   H4R20136   6.333   2.632  10.484  0.6021  1.1734  1.3492
  177SOPE   H4S20137   6.240   2.718  10.359  0.8937 -1.4236 -1.0716
  177SOPE   C2520138   6.446   2.655  10.312 -0.2419 -0.2091  0.4786
  177SOPE   H5R20139   6.485   2.737  10.249 -3.6345  0.2687 -1.1733
  177SOPE   H5S20140   6.527   2.617  10.379  0.5994  1.0132  0.1979
  177SOPE   C2620141   6.381   2.547  10.221  0.3852 -0.5862 -0.2399
  177SOPE   H6R20142   6.343   2.459  10.277  0.8829  0.0539  1.1590
  177SOPE   H6S20143   6.297   2.591  10.163 -1.4594 -1.9053  1.2549
  177SOPE   C2720144   6.472   2.489  10.114  0.0632 -0.4199 -0.1426
  177SOPE   H7R20145   6.525   2.576  10.068  1.2272  0.3670  2.5425
  177SOPE   H7S20146   6.551   2.426  10.159  0.6519  0.5369  0.1793
  177SOPE   C2820147   6.390   2.415  10.005  0.2791  0.4216  0.4686
  177SOPE   H8R20148   6.323   2.346  10.061  0.9081 -0.9423 -0.3879
  177SOPE   H8S20149   6.325   2.479   9.942 -0.7985 -1.4694 -0.4662
  177SOPE   C2920150   6.484   2.333   9.921 -0.3486 -0.4815 -0.5400
  177SOPE   H9120151   6.577   2.313   9.976 -1.6613 -1.6949  1.3435
  177SOPE  C21020152   6.471   2.310   9.791  0.1169  0.1239  0.9069
  177SOPE  H10120153   6.559   2.263   9.745  0.4273  2.8712 -1.5618
  177SOPE  C21120154   6.361   2.353   9.701  0.1854  0.1728  0.1245
  177SOPE  H11R20155   6.393   2.447   9.652  1.6587  0.3800  1.4111
  177SOPE  H11S20156   6.262   2.371   9.750 -0.4735  0.6807 -1.3469
  177SOPE  C21220157   6.321   2.245   9.598 -0.1979 -0.5840  0.2618
  177SOPE  H12R20158   6.303   2.143   9.639 -1.6331  0.0201  1.2008
  177SOPE  H12S20159   6.401   2.238   9.521 -0.0021 -2.8254  0.5906
  177SOPE  C21320160   6.201   2.284   9.510  1.3106 -0.2194 -0.2086
  177SOPE  H13R20161   6.239   2.361   9.440 -1.5216  1.9083  0.4331
  177SOPE  H13S20162   6.109   2.321   9.559  1.2158 -3.7095  2.6884
  177SOPE  C21420163   6.161   2.173   9.409 -0.7820 -0.7952 -0.3288
  177SOPE  H14R20164   6.051   2.179   9.402 -0.9103  1.7888  2.0643
  177SOPE  H14S20165   6.189   2.072   9.444  0.4619  0.3275  2.2442
  177SOPE  C21520166   6.226   2.185   9.270  0.0319 -0.1372 -0.1455
  177SOPE  H15R20167   6.335   2.192   9.288 -0.2723  3.2863  1.1485
  177SOPE  H15S20168   6.193   2.285   9.234  2.3369  0.2521 -1.3031
  177SOPE  C21620169   6.183   2.088   9.160  0.0238 -0.3629 -0.4932
  177SOPE  H16R20170   6.072   2.089   9.158 -0.1198 -3.1206  1.0218
  177SOPE  H16S20171   6.218   1.983   9.174 -0.9835 -0.8904 -1.7214
  177SOPE  C21720172   6.236   2.128   9.020 -0.5654 -0.9481 -0.1884
  177SOPE  H17R20173   6.346   2.114   9.014 -0.5973 -1.5843  0.5329
  177SOPE  H17S20174   6.220   2.237   9.008  2.3892 -0.3683  0.4915
  177SOPE  C21820175   6.179   2.056   8.899  0.0613  0.2092  0.7970
  177SOPE  H18R20176   6.068   2.060   8.895 -0.0353 -1.9532 -0.0008
  177SOPE  H18S20177   6.200   1.947   8.900 -4.1909 -0.7802  2.5592
  177SOPE  H18T20178   6.221   2.091   8.802 -2.1546 -1.1125 -0.7238
  177SOPE   C3320179   6.429   3.754  10.333  0.2524 -0.5992  0.3207
  177SOPE   H3X20180   6.497   3.839  10.356 -0.7302  0.1563  0.4667
  177SOPE   H3Y20181   6.341   3.764  10.400  1.1481  1.2815  1.2929
  177SOPE   C3420182   6.391   3.752  10.174 -0.3361 -0.1890 -0.8049
  177SOPE   H4X20183   6.354   3.856  10.159  3.3398  1.4671  0.4383
  177SOPE   H4Y20184   6.310   3.679  10.155  0.8652 -1.5688 -0.7941
  177SOPE   C3520185   6.502   3.730  10.071  0.3530  0.3696 -0.2734
  177SOPE   H5X20186   6.545   3.628  10.081 -1.5358 -0.2101  3.0941
  177SOPE   H5Y20187   6.588   3.800  10.080 -1.1199  2.1712  0.4175
  177SOPE   C3620188   6.448   3.749   9.930 -0.7962  0.4200 -0.4455
  177SOPE   H6X20189   6.417   3.855   9.915 -0.5146  0.7881  1.3677
  177SOPE   H6Y20190   6.355   3.693   9.906  1.2506 -2.0652 -3.5684
  177SOPE   C3720191   6.553   3.708   9.822  0.6061 -0.1496  1.0465
  177SOPE   H7X20192   6.566   3.598   9.835 -0.6898 -0.4586 -0.1055
  177SOPE   H7Y20193   6.646   3.766   9.842 -0.7882  1.9918  1.5615
  177SOPE   C3820194   6.503   3.735   9.679 -0.3498 -0.3688 -0.0110
  177SOPE   H8X20195   6.439   3.825   9.678 -0.0285 -0.1362 -0.9359
  177SOPE   H8Y20196   6.449   3.644   9.644 -0.9242  0.1265 -0.4411
  177SOPE   C3920197   6.624   3.765   9.589  0.3431  0.6886  0.0739
  177SOPE   H9X20198   6.706   3.692   9.606  0.1955  0.7076  0.8886
  177SOPE   H9Y20199   6.657   3.869   9.614  0.6551  0.4623  0.6135
  177SOPE  C31020200   6.588   3.751   9.438 -0.3723  0.0631 -0.0660
  177SOPE  H10X20201   6.513   3.828   9.410 -1.3170 -0.6299  0.5009
  177SOPE  H10Y20202   6.537   3.653   9.423 -0.7524  0.6585 -3.3903
  177SOPE  C31120203   6.702   3.745   9.335  0.3630  1.0975  0.3870
  177SOPE  H11X20204   6.744   3.642   9.347 -3.1007 -0.5443 -0.2461
  177SOPE  H11Y20205   6.781   3.818   9.359 -1.3192  3.1401 -0.0150
  177SOPE  C31220206   6.657   3.750   9.187 -0.1482 -0.4319 -0.6017
  177SOPE  H12X20207   6.583   3.832   9.179  0.5972  0.2594 -0.4111
  177SOPE  H12Y20208   6.595   3.661   9.159 -0.2117 -1.2393  1.8755
  177SOPE  C31320209   6.769   3.762   9.085 -0.0826  0.0154  0.5475
  177SOPE  H13X20210   6.743   3.695   9.000  1.9271 -0.5508  0.3324
  177SOPE  H13Y20211   6.865   3.719   9.120 -0.8844 -0.8738  1.7454
  177SOPE  C31420212   6.789   3.904   9.018 -0.1937  0.8049 -0.3442
  177SOPE  H14X20213   6.829   3.979   9.090 -1.1287  1.1829 -0.1981
  177SOPE  H14Y20214   6.685   3.943   9.009 -1.4936 -1.7345  1.9067
  177SOPE  C31520215   6.870   3.887   8.888 -0.7876  0.7635 -0.8694
  177SOPE  H15X20216   6.950   3.811   8.901  0.3877  2.0655 -0.2318
  177SOPE  H15Y20217   6.931   3.976   8.864  1.1872 -0.7893 -1.9021
  177SOPE  C31620218   6.786   3.848   8.769  0.5269  0.7672  0.5920
  177SOPE  H16X20219   6.710   3.925   8.745 -1.0228 -1.6541 -3.2885
  177SOPE  H16Y20220   6.728   3.758   8.801  1.3896  0.7742  2.2919
  177SOPE  C31720221   6.864   3.813   8.639 -0.4536  0.1509 -0.3551
  177SOPE  H17X20222   6.787   3.778   8.567  0.9680  0.4132 -2.0842
  177SOPE  H17Y20223   6.937   3.736   8.671 -1.1338 -0.5991 -0.5617
  177SOPE  C31820224   6.946   3.930   8.586 -0.3354  0.1080  0.8682
  177SOPE  H18X20225   6.881   4.020   8.577  0.3464  0.6010  0.8233
  177SOPE  H18Y20226   6.993   3.920   8.486 -0.1010  0.9991  0.8871
  177SOPE  H18Z20227   7.020   3.971   8.658 -1.3219  0.3520  1.7832
  178SOPE     N20228   1.106   1.610  10.483  0.1666  0.7660  0.3446
  178SOPE   HN120229   1.086   1.526  10.425 -0.0512  1.5424 -0.7515
  178SOPE   HN220230   1.103   1.559  10.573  1.0478 -0.2112 -0.1677
  178SOPE   HN320231   1.041   1.691  10.473 -0.6531  0.0599 -0.2125
  178SOPE   C1220232   1.248   1.655  10.455 -0.3994  0.6018  0.2582
  178SOPE  H12A20233   1.250   1.727  10.370 -0.3856  0.7397  0.3751
  178SOPE  H12B20234   1.305   1.566  10.421 -0.6281  0.2383  0.8202
  178SOPE   C1120235   1.319   1.724  10.577 -0.1944  0.4531  0.3813
  178SOPE  H11A20236   1.270   1.822  10.595 -1.4161  0.3292 -1.8603
  178SOPE  H11B20237   1.418   1.760  10.541  0.7666 -1.4655  0.9562
  178SOPE     P20238   1.445   1.610  10.768 -0.2201 -0.0711  0.0875
  178SOPE   O1320239   1.411   1.518  10.878  0.5246  0.3814 -0.7153
  178SOPE   O1420240   1.519   1.729  10.807 -0.3915 -0.5786  0.2054
  178SOPE   O1220241   1.309   1.651  10.699 -0.3565 -0.4028 -0.2379
  178SOPE   O1120242   1.526   1.527  10.650 -0.0679 -0.0983  0.2043
  178SOPE    C120243   1.646   1.458  10.696 -0.5491 -0.6876 -0.0325
  178SOPE    HA20244   1.669   1.381  10.619  1.6616  0.3811 -0.5323
  178SOPE    HB20245   1.627   1.407  10.792 -2.8863  0.6338  0.2784
  178SOPE    C220246   1.773   1.556  10.694 -0.2182  0.4140  0.3749
  178SOPE    HS20247   1.769   1.621  10.784 -2.5039 -0.6581  1.1196
  178SOPE   O2120248   1.760   1.639  10.574 -0.1826 -0.0026  0.2652
  178SOPE   C2120249   1.834   1.750  10.575 -0.4523  0.9683 -0.4595
  178SOPE   O2220250   1.909   1.787  10.661 -0.3782  0.1821  0.1308
  178SOPE   C2220251   1.812   1.801  10.435 -0.1973  0.4881 -0.1892
  178SOPE   H2R20252   1.710   1.846  10.427  0.4850  2.4107  1.0977
  178SOPE   H2S20253   1.817   1.711  10.370 -2.1929 -0.6393  1.1194
  178SOPE    C320254   1.909   1.481  10.705  0.0019  0.5183  0.2624
  178SOPE    HX20255   1.886   1.420  10.795 -0.4372  0.8346  0.3697
  178SOPE    HY20256   1.994   1.547  10.733  0.1363  0.3940  0.1476
  178SOPE   O3120257   1.942   1.383  10.601  0.3048 -0.3418 -0.2715
  178SOPE   C3120258   2.049   1.406  10.523  0.1886 -0.0545 -0.0300
  178SOPE   O3220259   2.133   1.494  10.540 -0.2846  0.1113 -0.4191
  178SOPE   C3220260   2.059   1.292  10.425 -0.7566  0.0271 -0.2768
  178SOPE   H2X20261   2.021   1.202  10.478 -0.6982  0.7192  0.9708
  178SOPE   H2Y20262   2.164   1.275  10.393 -0.4172  4.1304 -1.9738
  178SOPE   C2320263   1.909   1.906  10.398  0.0290  0.5456  0.2287
  178SOPE   H3R20264   1.931   1.980  10.478  1.1481  0.5928 -0.1103
  178SOPE   H3S20265   1.863   1.967  10.318  0.0015 -2.3402 -2.1161
  178SOPE   C2420266   2.041   1.848  10.335 -0.0054 -0.0802  0.1567
  178SOPE   H4R20267   2.088   1.776  10.406 -0.7047 -1.6143 -0.9001
  178SOPE   H4S20268   1.998   1.792  10.250 -0.5677  0.1961  0.2581
  178SOPE   C2520269   2.139   1.955  10.288 -0.5587  0.2884 -0.6249
  178SOPE   H5R20270   2.077   2.024  10.227 -0.8096 -1.4694 -2.4892
  178SOPE   H5S20271   2.164   2.015  10.378  0.9567  2.1276 -2.1878
  178SOPE   C2620272   2.253   1.909  10.211 -1.2157 -0.0340  0.6425
  178SOPE   H6R20273   2.336   1.982  10.205  0.2736 -1.7212 -0.6093
  178SOPE   H6S20274   2.304   1.815  10.241  1.3490  0.5304 -1.5483
  178SOPE   C2720275   2.220   1.887  10.059  0.1235 -0.0365  0.0379
  178SOPE   H7R20276   2.143   1.808  10.047  0.3481 -0.6520  2.1944
  178SOPE   H7S20277   2.182   1.983  10.019 -0.6650 -0.5630 -0.5145
  178SOPE   C2820278   2.339   1.841   9.980 -0.3433  0.0083 -0.0421
  178SOPE   H8R20279   2.428   1.907   9.993 -1.1234  1.3013 -1.0689
  178SOPE   H8S20280   2.361   1.739  10.019  0.5229  0.4734  0.7502
  178SOPE   C2920281   2.296   1.832   9.832 -0.2242  0.2848 -0.5714
  178SOPE   H9120282   2.286   1.727   9.799 -2.4594  0.4035 -0.4087
  178SOPE  C21020283   2.277   1.937   9.746  0.4400  0.7121 -0.9502
  178SOPE  H10120284   2.242   1.916   9.643 -1.2946 -3.2101  0.2591
  178SOPE  C21120285   2.314   2.080   9.785  0.2456  0.1437  0.0956
  178SOPE  H11R20286   2.366   2.083   9.883  0.2504  0.3870  0.0849
  178SOPE  H11S20287   2.222   2.141   9.797 -0.4807 -1.1313  1.4828
  178SOPE  C21220288   2.405   2.152   9.687  0.3509 -0.1614 -0.3972
  178SOPE  H12R20289   2.497   2.097   9.657  0.5118 -0.1119 -0.0072
  178SOPE  H12S20290   2.441   2.242   9.741 -0.3445  0.3167 -0.7094
  178SOPE  C21320291   2.329   2.214   9.564 -0.6358  0.1339  0.1939
  178SOPE  H13R20292   2.371   2.317   9.557 -0.1400 -0.0185  0.8031
  178SOPE  H13S20293   2.224   2.237   9.593 -0.4328  1.2481  0.0871
  178SOPE  C21420294   2.351   2.139   9.432 -0.0359 -0.2536  0.0036
  178SOPE  H14R20295   2.338   2.030   9.450  1.1543 -0.1765  1.5571
  178SOPE  H14S20296   2.454   2.165   9.399  0.1198  2.5432  2.2599
  178SOPE  C21520297   2.268   2.199   9.316  0.0618  0.0350  0.6894
  178SOPE  H15R20298   2.299   2.306   9.319 -3.0774  1.0500  0.3972
  178SOPE  H15S20299   2.158   2.198   9.333 -0.4896 -0.1387 -2.4293
  178SOPE  C21620300   2.304   2.140   9.174  0.2961  0.0431  0.8692
  178SOPE  H16R20301   2.270   2.035   9.171 -0.5374  0.1914  3.0924
  178SOPE  H16S20302   2.413   2.132   9.157  0.1851 -0.2562  0.2872
  178SOPE  C21720303   2.244   2.228   9.069 -0.1514  0.1115  0.2442
  178SOPE  H17R20304   2.299   2.325   9.068 -0.2914  0.1955  0.4605
  178SOPE  H17S20305   2.140   2.239   9.105  0.0507  1.4271  0.4708
  178SOPE  C21820306   2.247   2.176   8.931  0.3316 -0.4959 -0.5386
  178SOPE  H18R20307   2.353   2.165   8.899  0.0913 -3.6182 -0.6018
  178SOPE  H18S20308   2.198   2.240   8.855  0.5476 -0.1835 -0.4149
  178SOPE  H18T20309   2.196   2.077   8.924  2.0688 -1.6014  1.3652
  178SOPE   C3320310   1.968   1.303  10.296  0.6781  0.3255  0.1183
  178SOPE   H3X20311   1.859   1.300  10.316  0.4909  1.5987 -0.5494
  178SOPE   H3Y20312   1.992   1.216  10.232 -0.2451  0.6418 -0.6864
  178SOPE   C3420313   1.995   1.431  10.216 -0.0787 -0.2974  0.9772
  178SOPE   H4X20314   2.101   1.427  10.184 -0.7974 -1.0057 -1.5121
  178SOPE   H4Y20315   1.978   1.525  10.273  2.0880  1.9302 -1.7717
  178SOPE   C3520316   1.913   1.444  10.089 -0.0179  0.2539  0.1503
  178SOPE   H5X20317   1.806   1.426  10.114  0.1661 -0.9811  0.1355
  178SOPE   H5Y20318   1.930   1.358  10.021 -1.5807  1.0826 -1.3665
  178SOPE   C3620319   1.946   1.568  10.006  0.3308 -0.2023  0.2107
  178SOPE   H6X20320   2.057   1.581  10.006  0.5348 -1.7195  0.1162
  178SOPE   H6Y20321   1.913   1.656  10.065  0.1156  0.5818 -1.0247
  178SOPE   C3720322   1.898   1.561   9.857 -0.1432 -0.6746 -0.0992
  178SOPE   H7X20323   1.787   1.556   9.851 -0.1360  0.5452 -2.9969
  178SOPE   H7Y20324   1.929   1.467   9.808 -1.9829 -0.8890 -0.9508
  178SOPE   C3820325   1.943   1.680   9.770 -0.0994  0.3470  0.1687
  178SOPE   H8X20326   2.054   1.681   9.778 -0.2055  0.8196  1.8928
  178SOPE   H8Y20327   1.907   1.774   9.816  2.1011  0.3417  2.0751
  178SOPE   C3920328   1.883   1.675   9.630 -0.4990  0.1696  0.0052
  178SOPE   H9X20329   1.774   1.655   9.635 -0.3279 -1.0668 -0.6941
  178SOPE   H9Y20330   1.926   1.585   9.580 -0.1175  0.7472 -0.7238
  178SOPE  C31020331   1.922   1.790   9.541  0.3594 -0.3729 -0.1051
  178SOPE  H10X20332   2.031   1.812   9.549  0.1256  0.8466 -0.0165
  178SOPE  H10Y20333   1.874   1.882   9.581  2.2792  0.6598 -0.0404
  178SOPE  C31120334   1.881   1.770   9.400  0.0172 -0.1848  0.0092
  178SOPE  H11X20335   1.770   1.759   9.396 -0.2162  1.1413  1.7511
  178SOPE  H11Y20336   1.917   1.675   9.355 -3.5795 -0.8444 -1.9069
  178SOPE  C31220337   1.926   1.887   9.315 -0.3694  0.7560  0.0964
  178SOPE  H12X20338   2.034   1.900   9.336  0.0030 -3.1666  1.5781
  178SOPE  H12Y20339   1.859   1.970   9.347 -2.3802 -1.8046  3.2755
  178SOPE  C31320340   1.909   1.846   9.164 -0.0044 -0.0053  0.5979
  178SOPE  H13X20341   1.805   1.867   9.129 -0.4379 -2.5725  0.1964
  178SOPE  H13Y20342   1.915   1.736   9.160 -1.0504 -0.1005  1.3054
  178SOPE  C31420343   2.017   1.909   9.081  0.4300 -0.1125 -0.3374
  178SOPE  H14X20344   2.106   1.921   9.146  0.4716  0.8174 -0.5478
  178SOPE  H14Y20345   1.993   2.009   9.039  0.3475  0.2297  0.5140
  178SOPE  C31520346   2.048   1.817   8.968 -0.4989 -0.0672  0.2323
  178SOPE  H15X20347   2.033   1.709   8.990  1.0699 -0.5718 -0.9239
  178SOPE  H15Y20348   2.154   1.830   8.936 -1.0977 -1.1656 -2.4858
  178SOPE  C31620349   1.962   1.851   8.848  0.6075 -0.0232  0.9854
  178SOPE  H16X20350   2.000   1.950   8.815 -0.4372  0.3566  0.8612
  178SOPE  H16Y20351   1.855   1.842   8.877  0.2514 -1.5054 -0.5628
  178SOPE  C31720352   1.979   1.757   8.727 -1.1089 -0.0246 -0.2425
  178SOPE  H17X20353   2.085   1.735   8.703 -1.8733 -2.9263 -1.4228
  178SOPE  H17Y20354   1.933   1.813   8.643 -0.6703  2.1553  0.9094
  178SOPE  C31820355   1.912   1.618   8.746  0.2773  0.0529 -0.6730
  178SOPE  H18X20356   1.943   1.549   8.665 -0.2185  0.9644 -1.6720
  178SOPE  H18Y20357   1.801   1.631   8.744  0.2319  0.2945  1.2474
  178SOPE  H18Z20358   1.949   1.573   8.840  0.2815  1.4547  0.0222
  179SOPE     N20359   4.003   2.639   6.432 -0.4470  0.3768  0.3764
  179SOPE   HN120360   3.954   2.730   6.431  2.5823  2.1329 -0.7720
  179SOPE   HN220361   4.097   2.650   6.389  0.7820  1.0411  2.9869
  179SOPE   HN320362   3.947   2.566   6.384 -0.8154  0.4989  0.6145
  179SOPE   C1220363   4.011   2.596   6.577  0.2771  0.0739  0.9809
  179SOPE  H12A20364   4.040   2.691   6.629 -0.7136  0.8502  0.1596
  179SOPE  H12B20365   4.079   2.508   6.577 -0.0797 -0.4596 -3.9768
  179SOPE   C1120366   3.872   2.551   6.630  0.0011 -0.8077  0.4052
  179SOPE  H11A20367   3.881   2.531   6.739  2.0569 -2.6662 -0.0460
  179SOPE  H11B20368   3.846   2.455   6.581 -1.3697 -1.1326  1.6887
  179SOPE     P20369   3.648   2.616   6.497  0.2079 -0.0538 -0.5223
  179SOPE   O1320370   3.701   2.600   6.359  0.1244  0.0601  0.6066
  179SOPE   O1420371   3.556   2.724   6.522 -0.1633  0.0850  0.9388
  179SOPE   O1220372   3.772   2.650   6.601  0.0377  0.7748  0.9077
  179SOPE   O1120373   3.580   2.477   6.548  0.0293 -0.1468  0.2138
  179SOPE    C120374   3.460   2.468   6.612  0.0685 -0.1025  0.7748
  179SOPE    HA20375   3.412   2.374   6.578  0.5296  0.5142 -1.8520
  179SOPE    HB20376   3.395   2.558   6.603 -0.8779 -0.7752  0.7550
  179SOPE    C220377   3.480   2.437   6.765  0.4765 -0.2189  0.5334
  179SOPE    HS20378   3.375   2.415   6.794  0.5735 -2.7507 -0.8384
  179SOPE   O2120379   3.532   2.557   6.813  0.1166 -0.4037  0.9187
  179SOPE   C2120380   3.494   2.594   6.937  0.0356 -0.0772  0.0043
  179SOPE   O2220381   3.427   2.531   7.016  0.1613 -0.2652 -0.3523
  179SOPE   C2220382   3.556   2.739   6.960  0.4962  0.0342 -0.1519
  179SOPE   H2R20383   3.523   2.820   6.892  0.4402  1.5221  1.6057
  179SOPE   H2S20384   3.665   2.726   6.944  0.4989 -0.7453  0.4279
  179SOPE    C320385   3.566   2.311   6.795  0.4634 -0.4302 -0.1100
  179SOPE    HX20386   3.663   2.334   6.746 -0.3521 -1.6112 -2.4249
  179SOPE    HY20387   3.518   2.229   6.738 -0.9200  0.2316  0.0680
  179SOPE   O3120388   3.562   2.291   6.939 -0.1646 -0.1874 -0.6237
  179SOPE   C3120389   3.678   2.297   7.005  0.0008  0.8814  1.1933
  179SOPE   O3220390   3.789   2.304   6.955  0.0328 -0.0634  0.7077
  179SOPE   C3220391   3.655   2.294   7.152 -0.1765  0.3855 -0.2006
  179SOPE   H2X20392   3.552   2.261   7.179  0.2160 -0.3448  0.4607
  179SOPE   H2Y20393   3.665   2.397   7.193  0.4573  0.3324 -0.2190
  179SOPE   C2320394   3.528   2.784   7.104  0.4577 -1.1858  0.0739
  179SOPE   H3R20395   3.420   2.779   7.131  0.6209 -1.5808  0.6868
  179SOPE   H3S20396   3.551   2.892   7.113  1.3357 -1.1192 -2.2576
  179SOPE   C2420397   3.598   2.698   7.214  0.1395  0.5178 -0.9145
  179SOPE   H4R20398   3.551   2.598   7.204 -0.3991  0.6154  0.4772
  179SOPE   H4S20399   3.706   2.694   7.188 -0.4635 -0.0885 -3.6213
  179SOPE   C2520400   3.577   2.752   7.352  0.6272  0.2011 -0.4833
  179SOPE   H5R20401   3.655   2.828   7.377 -0.7296  1.3051  0.5521
  179SOPE   H5S20402   3.481   2.807   7.345  0.9616  1.1302  1.3382
  179SOPE   C2620403   3.585   2.657   7.475 -0.5116  0.1887 -0.0367
  179SOPE   H6R20404   3.491   2.599   7.487  0.5625 -0.9519  5.2593
  179SOPE   H6S20405   3.668   2.585   7.455  0.4221  0.1394  3.3721
  179SOPE   C2720406   3.615   2.717   7.611  0.3453  0.3852  0.5736
  179SOPE   H7R20407   3.636   2.636   7.683 -2.0839 -0.0284  0.9145
  179SOPE   H7S20408   3.711   2.772   7.615  1.7427 -1.8938 -0.2463
  179SOPE   C2820409   3.499   2.798   7.675  0.5557 -0.0255  0.2782
  179SOPE   H8R20410   3.558   2.860   7.747  0.8447  0.0596 -0.0274
  179SOPE   H8S20411   3.452   2.867   7.601 -0.4601 -2.0627 -1.0560
  179SOPE   C2920412   3.392   2.696   7.727  0.1340 -0.0572  0.4833
  179SOPE   H9120413   3.374   2.619   7.651  1.4389  0.0025  0.1011
  179SOPE  C21020414   3.334   2.694   7.851 -0.2764  0.3421  0.6969
  179SOPE  H10120415   3.254   2.623   7.875 -0.9531  0.6866 -0.4495
  179SOPE  C21120416   3.365   2.790   7.966 -0.5950 -0.6326  0.4018
  179SOPE  H11R20417   3.457   2.847   7.942 -1.3592  0.0059 -1.1381
  179SOPE  H11S20418   3.394   2.728   8.054 -1.5590 -2.2552 -0.3791
  179SOPE  C21220419   3.257   2.898   7.997  0.4274  0.3696  0.3992
  179SOPE  H12R20420   3.160   2.862   7.958  1.4523 -0.7453 -1.2226
  179SOPE  H12S20421   3.285   2.988   7.939 -1.4200  0.6111 -0.1959
  179SOPE  C21320422   3.250   2.940   8.143  0.3271  0.3097  0.2975
  179SOPE  H13R20423   3.351   2.974   8.173 -0.1376  1.6800  0.3552
  179SOPE  H13S20424   3.220   2.864   8.218 -1.6631  2.1702  1.4958
  179SOPE  C21420425   3.159   3.063   8.163  0.3670  0.0982 -0.4549
  179SOPE  H14R20426   3.065   3.043   8.107  2.2260 -1.2459 -3.3431
  179SOPE  H14S20427   3.206   3.151   8.114  2.6404  0.7500  2.6294
  179SOPE  C21520428   3.144   3.083   8.311  0.0107 -0.8715 -0.5508
  179SOPE  H15R20429   3.094   2.993   8.353 -0.8605 -0.4013 -0.5618
  179SOPE  H15S20430   3.079   3.168   8.339  1.5905 -0.4237  2.0711
  179SOPE  C21620431   3.271   3.109   8.391 -0.2609 -0.1715 -0.1516
  179SOPE  H16R20432   3.351   3.168   8.342  1.4714 -0.9986  1.5049
  179SOPE  H16S20433   3.324   3.014   8.416 -0.2356 -0.1074  0.0409
  179SOPE  C21720434   3.248   3.193   8.522  0.1286 -0.4510 -0.1032
  179SOPE  H17R20435   3.223   3.298   8.496  2.1662  0.9775  3.1278
  179SOPE  H17S20436   3.335   3.192   8.590 -1.0652 -0.0476  1.5039
  179SOPE  C21820437   3.127   3.145   8.595  0.3849 -0.3381  0.2376
  179SOPE  H18R20438   3.029   3.181   8.558 -0.1803 -0.0433  1.9487
  179SOPE  H18S20439   3.129   3.172   8.703  0.0934  1.1183 -0.0975
  179SOPE  H18T20440   3.117   3.035   8.584  2.2367 -0.4231 -1.1286
  179SOPE   C3320441   3.753   2.196   7.220 -0.5724  0.2331 -0.3590
  179SOPE   H3X20442   3.854   2.238   7.200  0.2794 -1.7707 -0.5196
  179SOPE   H3Y20443   3.745   2.100   7.164 -1.2223 -0.1706  0.4017
  179SOPE   C3420444   3.722   2.167   7.368 -0.0460  0.1732 -0.8434
  179SOPE   H4X20445   3.793   2.089   7.403 -1.0079  0.5831  2.3183
  179SOPE   H4Y20446   3.616   2.136   7.380  0.2612 -0.0814  1.7738
  179SOPE   C3520447   3.745   2.283   7.466  0.1291 -0.4683 -0.3114
  179SOPE   H5X20448   3.682   2.371   7.440 -0.8436 -0.6951  1.1195
  179SOPE   H5Y20449   3.851   2.315   7.467  0.6445 -2.0672  0.9670
  179SOPE   C3620450   3.703   2.242   7.606 -0.2871 -0.2182 -0.5694
  179SOPE   H6X20451   3.784   2.183   7.654 -1.2219  0.1834  1.6559
  179SOPE   H6Y20452   3.617   2.173   7.614  0.3065 -0.7903  1.6868
  179SOPE   C3720453   3.665   2.353   7.703 -0.4738 -0.4416 -0.3621
  179SOPE   H7X20454   3.567   2.395   7.670 -1.6869 -1.4329  1.7535
  179SOPE   H7Y20455   3.725   2.446   7.712 -1.0608 -0.1891  1.4428
  179SOPE   C3820456   3.638   2.315   7.854 -0.3657 -0.4060 -0.4118
  179SOPE   H8X20457   3.725   2.261   7.896 -1.5948 -0.5578  2.1162
  179SOPE   H8Y20458   3.553   2.243   7.850 -0.7155  0.0087 -0.5249
  179SOPE   C3920459   3.587   2.434   7.942  0.6012 -0.0810  0.1998
  179SOPE   H9X20460   3.515   2.479   7.871 -0.3335 -2.9060 -0.7896
  179SOPE   H9Y20461   3.666   2.510   7.957  0.3091  0.3977 -0.6273
  179SOPE  C31020462   3.522   2.388   8.072 -0.2366 -0.8133 -0.7108
  179SOPE  H10X20463   3.505   2.473   8.141 -1.4372 -1.5643 -0.0421
  179SOPE  H10Y20464   3.588   2.321   8.131 -1.6935 -0.7327  1.1264
  179SOPE  C31120465   3.385   2.310   8.058  0.5118  0.0544  0.0957
  179SOPE  H11X20466   3.405   2.221   7.995 -0.7201  0.0002 -0.2408
  179SOPE  H11Y20467   3.307   2.375   8.013 -0.9388 -0.7229  1.3863
  179SOPE  C31220468   3.337   2.257   8.199  0.3085 -0.2978  0.2526
  179SOPE  H12X20469   3.418   2.196   8.244  1.1209  0.6268  0.0582
  179SOPE  H12Y20470   3.245   2.197   8.178 -0.1947  0.7129 -0.5244
  179SOPE  C31320471   3.295   2.374   8.288  0.4260 -0.1222  0.4192
  179SOPE  H13X20472   3.244   2.444   8.218 -1.4696 -2.7004 -0.9360
  179SOPE  H13Y20473   3.386   2.430   8.320  1.0142  1.4094 -3.4232
  179SOPE  C31420474   3.220   2.330   8.412  0.2313  0.1241 -0.0727
  179SOPE  H14X20475   3.233   2.223   8.439 -2.5592  0.7040  4.7745
  179SOPE  H14Y20476   3.112   2.332   8.386 -0.1905 -1.3916  1.4235
  179SOPE  C31520477   3.261   2.406   8.537  0.2592  0.0100  0.4474
  179SOPE  H15X20478   3.355   2.361   8.576  0.4424 -2.0105 -2.1113
  179SOPE  H15Y20479   3.189   2.381   8.618  0.7145  0.3533  0.9724
  179SOPE  C31620480   3.272   2.557   8.522  0.8378 -0.2045 -0.3991
  179SOPE  H16X20481   3.362   2.593   8.469 -0.2717  3.4916 -0.1066
  179SOPE  H16Y20482   3.279   2.585   8.629  1.4170 -2.0740  0.0768
  179SOPE  C31720483   3.140   2.621   8.473  0.1225  0.4867 -0.3601
  179SOPE  H17X20484   3.057   2.569   8.525  1.4362  0.2695  1.6028
  179SOPE  H17Y20485   3.129   2.601   8.364  1.0473  3.1607 -1.0239
  179SOPE  C31820486   3.120   2.760   8.506 -0.9683  0.2982 -0.5918
  179SOPE  H18X20487   3.199   2.825   8.463 -0.4388  1.3254  1.8151
  179SOPE  H18Y20488   3.132   2.778   8.615  0.3616 -0.0698 -0.6637
  179SOPE  H18Z20489   3.019   2.790   8.468 -0.4270  0.2607 -2.1459
  180SOPE     N20490   1.704   3.843   6.159 -0.4774  0.0376 -0.4225
  180SOPE   HN120491   1.697   3.741   6.143 -1.5636 -0.5460  2.9370
  180SOPE   HN220492   1.615   3.894   6.141  0.3683  1.9474  0.4984
  180SOPE   HN320493   1.785   3.881   6.106  0.9311 -2.3453 -0.1159
  180SOPE   C1220494   1.746   3.881   6.299  0.0092 -0.4253 -0.5199
  180SOPE  H12A20495   1.665   3.848   6.368  2.0700 -0.6105  1.9880
  180SOPE  H12B20496   1.745   3.992   6.301  2.0386 -0.3836 -0.3377
  180SOPE   C1120497   1.876   3.807   6.336  0.1880 -0.0757 -0.3431
  180SOPE  H11A20498   1.845   3.701   6.324 -0.4536  0.1033 -0.2643
  180SOPE  H11B20499   1.908   3.815   6.442  0.6402  0.4413 -0.5122
  180SOPE     P20500   2.121   3.785   6.239 -0.2854 -0.6312 -0.3212
  180SOPE   O1320501   2.215   3.876   6.309  0.1128  0.6438  0.4976
  180SOPE   O1420502   2.136   3.756   6.091 -0.4414  0.0312 -0.2549
  180SOPE   O1220503   1.976   3.855   6.254  0.0352 -0.1400 -0.2905
  180SOPE   O1120504   2.112   3.654   6.319  0.5367  0.0046  0.0852
  180SOPE    C120505   2.194   3.591   6.412 -0.6857 -0.0549 -0.5980
  180SOPE    HA20506   2.300   3.624   6.399 -0.2963 -1.2513 -0.5534
  180SOPE    HB20507   2.201   3.481   6.401 -1.1307 -0.2848  1.1973
  180SOPE    C220508   2.150   3.622   6.555  0.1155  0.3756  0.5187
  180SOPE    HS20509   2.205   3.547   6.617  0.1587 -0.6524 -0.7190
  180SOPE   O2120510   2.009   3.594   6.567  0.0089  0.1917 -0.4741
  180SOPE   C2120511   1.980   3.484   6.648 -0.0645 -0.6370  0.7017
  180SOPE   O2220512   2.057   3.396   6.684  0.1474 -0.3582 -0.2899
  180SOPE   C2220513   1.834   3.489   6.672  0.3760 -0.1221  0.9513
  180SOPE   H2R20514   1.787   3.448   6.580  2.7058 -0.2148 -0.2801
  180SOPE   H2S20515   1.797   3.593   6.678  2.9546  0.8935  0.3077
  180SOPE    C320516   2.191   3.767   6.597 -0.1244  0.7950  0.6882
  180SOPE    HX20517   2.131   3.845   6.546 -0.5965  1.3056  1.9884
  180SOPE    HY20518   2.296   3.777   6.560 -0.4981  0.0077 -0.6617
  180SOPE   O3120519   2.192   3.797   6.738 -0.1970 -0.4599 -0.3352
  180SOPE   C3120520   2.073   3.817   6.788  0.2423 -0.1155 -0.4364
  180SOPE   O3220521   1.967   3.821   6.725  0.4625  0.1911  0.5157
  180SOPE   C3220522   2.082   3.841   6.939 -0.3504  0.3523 -0.4157
  180SOPE   H2X20523   1.981   3.868   6.977 -1.7153  1.2174 -4.1677
  180SOPE   H2Y20524   2.142   3.934   6.949 -0.2756  0.2091  0.5538
  180SOPE   C2320525   1.785   3.401   6.781 -0.3801 -0.4980  0.4652
  180SOPE   H3R20526   1.832   3.301   6.769  0.6517  0.0233  0.0559
  180SOPE   H3S20527   1.676   3.378   6.782 -0.1741 -1.5243  0.5223
  180SOPE   C2420528   1.816   3.459   6.923  0.6512 -0.0172  0.5846
  180SOPE   H4R20529   1.927   3.468   6.929  0.7023 -0.5323  0.5255
  180SOPE   H4S20530   1.775   3.562   6.919  1.4339  0.3699  1.9013
  180SOPE   C2520531   1.754   3.372   7.026  0.2589 -0.7299 -0.0870
  180SOPE   H5R20532   1.644   3.368   7.009  0.4617 -1.3616 -1.3630
  180SOPE   H5S20533   1.799   3.271   7.016 -0.3763 -0.8088 -3.4715
  180SOPE   C2620534   1.788   3.432   7.161  0.2717 -0.0954  0.3869
  180SOPE   H6R20535   1.770   3.344   7.227 -0.0974  0.2585  0.7663
  180SOPE   H6S20536   1.898   3.446   7.161  0.2112  0.4339  1.1997
  180SOPE   C2720537   1.702   3.549   7.193  0.2587  0.0320  0.0726
  180SOPE   H7R20538   1.732   3.626   7.119  2.8677 -1.0778 -0.1476
  180SOPE   H7S20539   1.594   3.543   7.170  0.5717  0.2787 -1.5914
  180SOPE   C2820540   1.717   3.603   7.335  0.1871  1.0031 -0.2358
  180SOPE   H8R20541   1.827   3.608   7.350  0.1263 -0.9529  1.3876
  180SOPE   H8S20542   1.675   3.705   7.333 -2.6194 -0.0376  0.2719
  180SOPE   C2920543   1.652   3.521   7.448  0.1611 -0.5615 -0.3230
  180SOPE   H9120544   1.546   3.544   7.470  0.4723 -0.2456  0.9781
  180SOPE  C21020545   1.706   3.425   7.519  0.3117  0.3339 -0.0112
  180SOPE  H10120546   1.651   3.387   7.607  1.1937  0.3143  0.5434
  180SOPE  C21120547   1.840   3.364   7.511 -0.8891 -0.0749 -0.4529
  180SOPE  H11R20548   1.878   3.348   7.408  2.0097  1.6407  0.2203
  180SOPE  H11S20549   1.833   3.256   7.540  0.9738 -0.9767 -2.9750
  180SOPE  C21220550   1.949   3.444   7.584 -0.4790 -0.2512 -0.7080
  180SOPE  H12R20551   1.942   3.553   7.560  1.9664 -0.5838 -3.4375
  180SOPE  H12S20552   2.046   3.409   7.543  1.0784  3.3159 -0.4420
  180SOPE  C21320553   1.952   3.418   7.735 -1.2374 -0.0789 -0.3158
  180SOPE  H13R20554   2.041   3.469   7.777 -1.5865  0.2890 -0.0126
  180SOPE  H13S20555   1.969   3.311   7.760 -1.3075 -0.5528 -2.1784
  180SOPE  C21420556   1.832   3.466   7.821 -0.4639  0.3216  0.0824
  180SOPE  H14R20557   1.740   3.428   7.771 -0.9080  0.3029  0.9012
  180SOPE  H14S20558   1.833   3.577   7.820  1.3724  0.3422  0.0431
  180SOPE  C21520559   1.833   3.412   7.961 -0.8388 -0.6729  0.0855
  180SOPE  H15R20560   1.797   3.307   7.969  0.0508 -1.1320 -1.5308
  180SOPE  H15S20561   1.752   3.465   8.015 -0.1481  0.4875  0.0031
  180SOPE  C21620562   1.956   3.440   8.041 -0.1953 -0.1175 -0.1981
  180SOPE  H16R20563   1.963   3.551   8.041 -0.5408 -0.0447 -2.6329
  180SOPE  H16S20564   2.045   3.388   8.002 -0.6067 -0.7137 -0.3548
  180SOPE  C21720565   1.931   3.396   8.192  0.6340 -0.2072  0.4431
  180SOPE  H17R20566   2.034   3.361   8.215  0.7910 -0.1411 -0.1380
  180SOPE  H17S20567   1.854   3.316   8.203 -0.3849  0.6863 -0.0038
  180SOPE  C21820568   1.903   3.514   8.281 -0.4732  0.1473 -0.4288
  180SOPE  H18R20569   1.971   3.597   8.253  0.2919  0.7526  2.8121
  180SOPE  H18S20570   1.924   3.487   8.387 -2.7378 -2.0953 -0.4376
  180SOPE  H18T20571   1.798   3.545   8.265 -0.8611 -0.6089  0.5446
  180SOPE   C3320572   2.155   3.732   7.015 -0.1617  0.3286  1.1239
  180SOPE   H3X20573   2.262   3.762   7.022 -0.2452  0.2562  4.5547
  180SOPE   H3Y20574   2.147   3.632   6.969 -2.1899  0.4353  1.1636
  180SOPE   C3420575   2.102   3.716   7.160 -0.7281  0.2104  0.5314
  180SOPE   H4X20576   2.145   3.624   7.206  2.3895  0.6164 -1.2743
  180SOPE   H4Y20577   1.993   3.703   7.148 -0.7056  0.0380  0.5151
  180SOPE   C3520578   2.138   3.832   7.256 -1.0276  0.4559  0.4150
  180SOPE   H5X20579   2.114   3.920   7.193 -1.1140  0.8914  1.0490
  180SOPE   H5Y20580   2.246   3.833   7.283 -1.1644 -2.3459  1.3874
  180SOPE   C3620581   2.066   3.799   7.386  0.3445  0.1310  0.2812
  180SOPE   H6X20582   2.087   3.696   7.422  0.4326 -0.5445 -1.5974
  180SOPE   H6Y20583   1.959   3.809   7.359  0.3224  3.6488  1.1932
  180SOPE   C3720584   2.113   3.901   7.485 -0.4622 -0.0278 -0.4262
  180SOPE   H7X20585   2.060   3.994   7.456  0.1009  0.2927 -0.4246
  180SOPE   H7Y20586   2.221   3.927   7.489 -0.7223  0.9687  0.5861
  180SOPE   C3820587   2.072   3.870   7.629  0.0184 -0.4927 -0.2043
  180SOPE   H8X20588   2.117   3.954   7.687  0.7930  0.1897 -1.7225
  180SOPE   H8Y20589   2.116   3.772   7.654  0.3701  0.0431  1.3718
  180SOPE   C3920590   1.924   3.860   7.648  0.4433 -0.4215  0.0749
  180SOPE   H9X20591   1.873   3.767   7.615 -1.5965  0.4154  0.7092
  180SOPE   H9Y20592   1.884   3.941   7.583 -0.1548 -1.9727 -1.5716
  180SOPE  C31020593   1.883   3.875   7.796  0.0765  0.2330  0.1376
  180SOPE  H10X20594   1.902   3.981   7.826  0.7674 -0.1683  1.1880
  180SOPE  H10Y20595   1.951   3.814   7.859 -0.5011  1.0178  1.5603
  180SOPE  C31120596   1.736   3.840   7.827  0.2560 -0.0096 -0.2656
  180SOPE  H11X20597   1.711   3.740   7.787 -0.4893 -0.3381  0.9660
  180SOPE  H11Y20598   1.669   3.917   7.783 -0.3157 -1.3819 -1.9178
  180SOPE  C31220599   1.720   3.819   7.976  0.2008 -0.6685  0.0290
  180SOPE  H12X20600   1.745   3.905   8.042 -1.5011 -0.1957  0.0964
  180SOPE  H12Y20601   1.789   3.747   8.025  2.4261  3.0251  2.8948
  180SOPE  C31320602   1.582   3.765   8.017  0.9635  0.0529  0.8019
  180SOPE  H13X20603   1.546   3.681   7.954  0.7237 -0.3622  1.4753
  180SOPE  H13Y20604   1.510   3.847   7.994  0.2360 -0.2248  1.9997
  180SOPE  C31420605   1.567   3.728   8.167 -0.1483 -0.7813  0.4140
  180SOPE  H14X20606   1.618   3.812   8.219 -1.6652  1.1865 -1.1069
  180SOPE  H14Y20607   1.624   3.634   8.186 -0.3570 -0.5358  2.5126
  180SOPE  C31520608   1.418   3.710   8.197 -0.2344  0.2549 -1.6415
  180SOPE  H15X20609   1.378   3.654   8.109 -1.3222  1.0224 -1.6508
  180SOPE  H15Y20610   1.376   3.812   8.182 -1.9348 -0.5352 -2.4770
  180SOPE  C31620611   1.423   3.656   8.338 -0.9946 -0.2169  0.6757
  180SOPE  H16X20612   1.484   3.722   8.404 -0.2030 -0.1874 -0.0730
  180SOPE  H16Y20613   1.479   3.560   8.334 -1.8507 -0.6742 -1.1888
  180SOPE  C31720614   1.287   3.624   8.397  0.6001 -0.4699  0.2284
  180SOPE  H17X20615   1.283   3.550   8.480 -0.4152  0.8490  1.3940
  180SOPE  H17Y20616   1.223   3.587   8.314  1.3199  3.2399 -2.2282
  180SOPE  C31820617   1.199   3.748   8.441  0.0683  0.4071  0.8580
  180SOPE  H18X20618   1.095   3.729   8.474  0.0412  2.5964  2.1951
  180SOPE  H18Y20619   1.208   3.824   8.361 -0.2944 -1.4683 -1.0700
  180SOPE  H18Z20620   1.246   3.792   8.531 -1.8691  1.4911  1.3925
  181SOPE     N20621   3.990   0.005   6.160  0.0482 -0.0752 -0.4787
  181SOPE   HN120622   4.007  -0.049   6.247 -0.1272  0.3305 -0.1884
  181SOPE   HN220623   4.049   0.089   6.174 -0.1457 -0.3594  2.7565
  181SOPE   HN320624   3.889   0.029   6.152  0.2543  1.2576  0.6244
  181SOPE   C1220625   4.013  -0.080   6.037  0.0994  0.5166  0.0032
  181SOPE  H12A20626   3.949  -0.170   6.048  1.0868 -0.2449 -0.2810
  181SOPE  H12B20627   4.116  -0.112   6.066 -0.6386 -2.4901 -0.3717
  181SOPE   C1120628   3.998  -0.007   5.900  0.4972  0.0866 -0.0497
  181SOPE  H11A20629   4.027  -0.071   5.814 -1.5433 -0.2080 -0.5887
  181SOPE  H11B20630   4.069   0.078   5.907  1.7768 -1.0374  1.1101
  181SOPE     P20631   3.736  -0.051   5.867  0.0863 -0.4010  0.0408
  181SOPE   O1320632   3.783  -0.155   5.777  0.1161  0.2606  0.1645
  181SOPE   O1420633   3.615   0.032   5.827 -0.1116 -0.3341 -0.1074
  181SOPE   O1220634   3.866   0.042   5.884  0.9003 -0.2188  0.4210
  181SOPE   O1120635   3.724  -0.104   6.021 -0.3400  0.0764  0.3734
  181SOPE    C120636   3.642  -0.224   6.031 -0.3068 -0.0334  0.0840
  181SOPE    HA20637   3.678  -0.296   5.954  1.3878  0.5431  0.3000
  181SOPE    HB20638   3.537  -0.190   6.017 -0.6983 -0.8342  0.8928
  181SOPE    C220639   3.645  -0.291   6.172 -0.1658 -0.2444 -0.4067
  181SOPE    HS20640   3.587  -0.386   6.176 -0.3846 -0.0767  2.0626
  181SOPE   O2120641   3.577  -0.202   6.267  0.6446 -0.2145  0.1771
  181SOPE   C2120642   3.503  -0.255   6.360 -0.9144 -0.0935  0.0262
  181SOPE   O2220643   3.477  -0.373   6.369 -0.6734  0.1087 -0.4307
  181SOPE   C2220644   3.463  -0.137   6.445  0.5011 -0.5309 -0.7411
  181SOPE   H2R20645   3.403  -0.069   6.381  1.1749  1.1903  0.3964
  181SOPE   H2S20646   3.554  -0.075   6.456  1.6331 -2.2180 -0.1857
  181SOPE    C320647   3.789  -0.321   6.215  0.2707 -0.5094 -0.2774
  181SOPE    HX20648   3.847  -0.228   6.229  0.8218 -1.1238  1.7007
  181SOPE    HY20649   3.853  -0.372   6.139  1.0780  0.0911 -0.0156
  181SOPE   O3120650   3.799  -0.381   6.342 -0.1135 -0.2543 -0.0538
  181SOPE   C3120651   3.755  -0.507   6.343  0.3766 -0.7104  0.9880
  181SOPE   O3220652   3.720  -0.570   6.244  0.8936  0.4690 -0.3711
  181SOPE   C3220653   3.736  -0.555   6.483  0.1800  0.0685 -0.8853
  181SOPE   H2X20654   3.717  -0.465   6.545 -1.3418  0.2403 -1.5370
  181SOPE   H2Y20655   3.831  -0.601   6.518  2.0986  1.3406 -3.9823
  181SOPE   C2320656   3.403  -0.165   6.580  0.9635  0.3702 -0.6168
  181SOPE   H3R20657   3.322  -0.241   6.570  0.4279  0.6614  1.0632
  181SOPE   H3S20658   3.350  -0.075   6.618 -0.3276 -0.9035  0.7510
  181SOPE   C2420659   3.512  -0.217   6.684  0.0834 -0.0236 -0.5228
  181SOPE   H4R20660   3.571  -0.289   6.623 -0.2189  1.1265 -2.2336
  181SOPE   H4S20661   3.575  -0.127   6.700 -2.4635  1.8433 -0.3718
  181SOPE   C2520662   3.444  -0.282   6.807 -0.1382 -0.0820 -0.2591
  181SOPE   H5R20663   3.367  -0.211   6.844  1.1717  0.1821  2.1839
  181SOPE   H5S20664   3.390  -0.374   6.777  1.7384 -1.0070 -0.9224
  181SOPE   C2620665   3.541  -0.330   6.921  0.5492 -0.2748  0.2558
  181SOPE   H6R20666   3.605  -0.406   6.872  0.0964  0.3729 -1.4215
  181SOPE   H6S20667   3.612  -0.250   6.953  1.6097 -0.1951 -2.1035
  181SOPE   C2720668   3.464  -0.385   7.046 -0.3913  0.2003 -0.2942
  181SOPE   H7R20669   3.396  -0.310   7.092 -1.8160 -1.4817  0.4384
  181SOPE   H7S20670   3.395  -0.465   7.011  0.8744 -0.9377 -0.2239
  181SOPE   C2820671   3.559  -0.457   7.141 -0.2274 -0.5513  0.2858
  181SOPE   H8R20672   3.507  -0.515   7.221 -2.1747 -1.1110 -1.2865
  181SOPE   H8S20673   3.607  -0.529   7.070 -0.1474 -2.0180  1.7662
  181SOPE   C2920674   3.663  -0.364   7.202  0.1432 -0.2661 -0.0849
  181SOPE   H9120675   3.737  -0.328   7.129 -0.7183 -0.0633 -0.8763
  181SOPE  C21020676   3.671  -0.335   7.335 -1.0189  0.5802  0.4119
  181SOPE  H10120677   3.743  -0.258   7.367 -0.7968 -0.5833  2.9735
  181SOPE  C21120678   3.580  -0.378   7.448 -0.3780 -0.1720 -0.3649
  181SOPE  H11R20679   3.528  -0.474   7.430 -3.8706  1.6051 -0.5703
  181SOPE  H11S20680   3.501  -0.299   7.451 -0.1868  0.0103 -0.0726
  181SOPE  C21220681   3.636  -0.393   7.594  0.2618  0.0075  0.0071
  181SOPE  H12R20682   3.733  -0.447   7.583  0.2798  0.0501 -0.0422
  181SOPE  H12S20683   3.556  -0.446   7.649 -0.3583 -0.8418 -1.6648
  181SOPE  C21320684   3.669  -0.244   7.647  0.2429  0.3273 -1.0877
  181SOPE  H13R20685   3.581  -0.178   7.634 -0.5449  0.0539  2.0485
  181SOPE  H13S20686   3.750  -0.196   7.587  0.8041  3.2629  1.7089
  181SOPE  C21420687   3.707  -0.253   7.793 -0.2385  0.2151  0.1138
  181SOPE  H14R20688   3.744  -0.152   7.818 -1.3875  0.6195  0.2414
  181SOPE  H14S20689   3.786  -0.329   7.811 -1.0965 -0.4730  1.1097
  181SOPE  C21520690   3.596  -0.291   7.885  0.5299  0.0395 -0.1975
  181SOPE  H15R20691   3.561  -0.394   7.862 -0.1499 -0.3257  2.1916
  181SOPE  H15S20692   3.512  -0.226   7.855  2.0163  1.2104 -2.0708
  181SOPE  C21620693   3.627  -0.273   8.036  0.7764  0.3226  0.9738
  181SOPE  H16R20694   3.630  -0.170   8.080 -0.1925  0.2558  1.2102
  181SOPE  H16S20695   3.725  -0.321   8.060 -0.1369 -1.4572  1.2768
  181SOPE  C21720696   3.529  -0.355   8.120  0.2428  0.0638 -0.1336
  181SOPE  H17R20697   3.507  -0.441   8.054  3.8108 -0.5823 -0.6741
  181SOPE  H17S20698   3.438  -0.292   8.131  1.1242  1.4413 -0.3609
  181SOPE  C21820699   3.579  -0.411   8.260  0.2641  0.1706 -0.4058
  181SOPE  H18R20700   3.590  -0.328   8.334 -0.1594 -0.8572  0.8426
  181SOPE  H18S20701   3.673  -0.469   8.254 -0.5391 -1.1447 -0.5524
  181SOPE  H18T20702   3.498  -0.477   8.298  1.0637 -2.0907 -2.3810
  181SOPE   C3320703   3.617  -0.655   6.491  0.4055 -0.4008  0.0651
  181SOPE   H3X20704   3.654  -0.756   6.462 -0.4722 -0.5945 -0.3957
  181SOPE   H3Y20705   3.534  -0.630   6.422  0.5130  1.4778  0.5668
  181SOPE   C3420706   3.557  -0.662   6.638 -0.2239 -0.2113  0.0721
  181SOPE   H4X20707   3.462  -0.713   6.611  0.8738 -1.5570 -1.5015
  181SOPE   H4Y20708   3.538  -0.562   6.682  1.9283  0.9542 -1.4542
  181SOPE   C3520709   3.644  -0.746   6.739 -0.2304  0.7340  0.7349
  181SOPE   H5X20710   3.745  -0.703   6.756  0.5257 -1.6797  2.9656
  181SOPE   H5Y20711   3.643  -0.849   6.696  1.6524  0.2519  1.7239
  181SOPE   C3620712   3.566  -0.764   6.867  0.7894 -0.1594 -0.2455
  181SOPE   H6X20713   3.477  -0.828   6.849  0.9392 -1.4154  2.9290
  181SOPE   H6Y20714   3.536  -0.660   6.892 -3.4067 -1.1902 -0.1603
  181SOPE   C3720715   3.655  -0.820   6.983  0.5913  0.0668 -0.1884
  181SOPE   H7X20716   3.744  -0.755   6.992  0.3534  0.2026  1.6114
  181SOPE   H7Y20717   3.685  -0.925   6.962 -0.9713 -1.0853  2.6660
  181SOPE   C3820718   3.594  -0.826   7.124  0.5559 -0.0043  0.3423
  181SOPE   H8X20719   3.542  -0.923   7.144  0.2816  0.1973  0.6201
  181SOPE   H8Y20720   3.513  -0.750   7.121  1.0215  0.5350 -3.2926
  181SOPE   C3920721   3.683  -0.791   7.238  0.1025 -0.2758 -0.5028
  181SOPE   H9X20722   3.718  -0.687   7.224 -1.5476  0.6994  1.9031
  181SOPE   H9Y20723   3.776  -0.851   7.230  0.2376 -0.5890  2.4099
  181SOPE  C31020724   3.622  -0.803   7.373 -0.1795  0.0545 -0.5409
  181SOPE  H10X20725   3.605  -0.909   7.402  1.4375  0.7886  3.7541
  181SOPE  H10Y20726   3.522  -0.755   7.370 -0.1647  0.0655 -2.3621
  181SOPE  C31120727   3.712  -0.753   7.487 -0.0922  0.0873 -0.4193
  181SOPE  H11X20728   3.723  -0.643   7.480  0.1607  0.3336  2.4754
  181SOPE  H11Y20729   3.814  -0.797   7.497 -0.7877 -1.0853  3.0033
  181SOPE  C31220730   3.636  -0.797   7.618  0.0175 -0.0015 -0.0429
  181SOPE  H12X20731   3.617  -0.906   7.624  0.5295 -0.0930 -0.0459
  181SOPE  H12Y20732   3.535  -0.752   7.612 -0.3256 -0.8579 -0.7483
  181SOPE  C31320733   3.707  -0.747   7.748 -0.1199 -0.8358  0.1689
  181SOPE  H13X20734   3.731  -0.639   7.755 -0.9185 -0.7057  1.1730
  181SOPE  H13Y20735   3.802  -0.803   7.758  0.2744 -0.0513  0.8622
  181SOPE  C31420736   3.628  -0.779   7.872  0.9536  0.3405 -0.0180
  181SOPE  H14X20737   3.623  -0.887   7.894 -0.8720  0.4049  0.0455
  181SOPE  H14Y20738   3.525  -0.741   7.854 -0.3330 -2.2895  1.2775
  181SOPE  C31520739   3.676  -0.703   8.002 -0.2374  0.2988  0.5616
  181SOPE  H15X20740   3.599  -0.725   8.080 -2.2982 -1.4251 -1.7618
  181SOPE  H15Y20741   3.669  -0.595   7.977 -4.3464 -0.1993 -1.3445
  181SOPE  C31620742   3.815  -0.748   8.048  0.1947  0.1126  0.1885
  181SOPE  H16X20743   3.890  -0.718   7.971 -2.0638  1.1073 -1.7617
  181SOPE  H16Y20744   3.823  -0.858   8.061  2.4574  0.5126  3.5382
  181SOPE  C31720745   3.850  -0.695   8.182  0.0976  0.0387  0.6475
  181SOPE  H17X20746   3.771  -0.706   8.259 -0.7660  2.5898  0.2070
  181SOPE  H17Y20747   3.852  -0.585   8.177  0.2761  0.1354  2.2684
  181SOPE  C31820748   3.989  -0.740   8.237 -0.3281 -0.2931  0.7486
  181SOPE  H18X20749   3.991  -0.849   8.259 -0.5698 -0.2182  1.1541
  181SOPE  H18Y20750   4.020  -0.679   8.324  1.1125  0.7789 -0.4600
  181SOPE  H18Z20751   4.071  -0.718   8.165 -0.1029 -0.3619  0.9848
  182SOPE     N20752   4.012   1.092   6.099 -0.5121  0.2038 -0.1362
  182SOPE   HN120753   3.947   1.014   6.074  0.3759 -1.1845  1.6102
  182SOPE   HN220754   4.099   1.039   6.122 -0.0208  0.7059 -0.8219
  182SOPE   HN320755   3.978   1.142   6.183 -3.6589  1.6360 -2.0644
  182SOPE   C1220756   4.057   1.193   5.999  0.1017 -0.3536  0.7413
  182SOPE  H12A20757   3.977   1.267   5.979 -0.3443 -0.5816  1.6527
  182SOPE  H12B20758   4.072   1.141   5.902 -0.7549  0.8992 -0.0904
  182SOPE   C1120759   4.195   1.261   6.025 -0.1657  0.0361  0.4888
  182SOPE  H11A20760   4.215   1.324   5.937 -3.2536  1.1534  0.4669
  182SOPE  H11B20761   4.276   1.185   6.029  3.6040  3.6611 -0.0356
  182SOPE     P20762   4.322   1.413   6.190  0.5209  0.2841 -0.1241
  182SOPE   O1320763   4.343   1.540   6.125 -0.1087 -0.1324  0.1399
  182SOPE   O1420764   4.438   1.322   6.194  0.4300 -0.1558  0.0105
  182SOPE   O1220765   4.188   1.340   6.142 -0.4687 -0.2588  0.5091
  182SOPE   O1120766   4.275   1.428   6.339  0.3371 -0.5320 -0.2291
  182SOPE    C120767   4.245   1.308   6.418  0.0029 -0.0781 -0.5822
  182SOPE    HA20768   4.290   1.212   6.384  2.5152  1.3933 -1.7222
  182SOPE    HB20769   4.136   1.291   6.426  0.0797 -1.2183 -1.7496
  182SOPE    C220770   4.291   1.321   6.571 -0.1680  0.0003 -0.7891
  182SOPE    HS20771   4.237   1.237   6.621 -0.6641  1.1172  0.6265
  182SOPE   O2120772   4.261   1.452   6.613  0.2251  0.4023 -0.2065
  182SOPE   C2120773   4.236   1.458   6.745 -0.0786 -0.4675  0.0073
  182SOPE   O2220774   4.216   1.360   6.816  0.1350 -0.4915 -0.1231
  182SOPE   C2220775   4.221   1.599   6.787 -0.1386  0.1397  0.0682
  182SOPE   H2R20776   4.190   1.605   6.893  0.0510  1.4287  0.0714
  182SOPE   H2S20777   4.131   1.636   6.733  0.3581  0.5065 -0.5262
  182SOPE    C320778   4.443   1.299   6.592 -0.5912  0.2203  0.5866
  182SOPE    HX20779   4.496   1.388   6.552  0.3030 -1.8402 -3.2934
  182SOPE    HY20780   4.486   1.217   6.530  1.8572  0.0322  2.3709
  182SOPE   O3120781   4.485   1.277   6.730 -0.7041 -0.2013  0.2443
  182SOPE   C3120782   4.458   1.157   6.778  0.3349 -0.2597  0.0510
  182SOPE   O3220783   4.431   1.057   6.707  0.5752 -0.3123  0.0930
  182SOPE   C3220784   4.454   1.153   6.932 -1.0280  0.0559 -1.0591
  182SOPE   H2X20785   4.439   1.256   6.970 -2.0098 -0.5846  0.3945
  182SOPE   H2Y20786   4.551   1.113   6.970 -1.2051  0.8514  0.3280
  182SOPE   C2320787   4.350   1.693   6.782 -0.1537  0.2810  0.1005
  182SOPE   H3R20788   4.298   1.790   6.777 -3.3946 -1.3762 -2.2553
  182SOPE   H3S20789   4.413   1.678   6.691  0.1026  0.6978  0.2077
  182SOPE   C2420790   4.433   1.683   6.907 -0.5450  0.2497 -0.3609
  182SOPE   H4R20791   4.371   1.718   6.992 -0.0174  1.8875 -0.6071
  182SOPE   H4S20792   4.458   1.577   6.925 -0.2914  0.3568 -0.0864
  182SOPE   C2520793   4.560   1.771   6.890  0.5255 -0.1271  0.5003
  182SOPE   H5R20794   4.620   1.741   6.801 -1.7599  1.6106 -1.7586
  182SOPE   H5S20795   4.536   1.874   6.855  2.7609 -0.3958 -2.1651
  182SOPE   C2620796   4.647   1.783   7.013  0.3479  0.1967  0.9319
  182SOPE   H6R20797   4.601   1.854   7.085  0.3938  3.4500 -1.9621
  182SOPE   H6S20798   4.649   1.681   7.057 -2.7714 -0.6353 -0.5519
  182SOPE   C2720799   4.791   1.837   6.982 -0.6607  0.2026  0.2534
  182SOPE   H7R20800   4.841   1.751   6.933 -0.1803  1.2716 -1.1889
  182SOPE   H7S20801   4.794   1.922   6.910  2.3741  2.4287  2.7230
  182SOPE   C2820802   4.886   1.862   7.103  0.4229  0.4994 -0.3296
  182SOPE   H8R20803   4.901   1.768   7.160  0.1128  0.8651  0.3696
  182SOPE   H8S20804   4.990   1.887   7.074  0.4611 -1.1630 -1.8048
  182SOPE   C2920805   4.830   1.980   7.189  0.6500  0.1926 -0.0030
  182SOPE   H9120806   4.810   2.066   7.123  3.1276 -1.2597 -2.9473
  182SOPE  C21020807   4.840   1.992   7.323 -0.3607 -0.1930  0.2182
  182SOPE  H10120808   4.797   2.086   7.362 -2.3361 -0.8310 -0.3032
  182SOPE  C21120809   4.916   1.897   7.419 -0.7726  0.4163 -0.2888
  182SOPE  H11R20810   5.011   1.938   7.458  0.4423 -1.9214 -0.5912
  182SOPE  H11S20811   4.949   1.805   7.365 -2.4650 -0.5495  0.2339
  182SOPE  C21220812   4.825   1.851   7.537 -0.1764 -0.8261 -0.2559
  182SOPE  H12R20813   4.794   1.943   7.592  2.1587 -0.3214  0.3120
  182SOPE  H12S20814   4.874   1.783   7.610 -0.9312 -0.7839  0.2979
  182SOPE  C21320815   4.706   1.772   7.485  0.4299 -0.5738  0.5280
  182SOPE  H13R20816   4.731   1.690   7.414  0.3332 -0.6307  0.5600
  182SOPE  H13S20817   4.638   1.840   7.429 -0.8305 -2.3432 -0.1516
  182SOPE  C21420818   4.617   1.721   7.606 -0.6152  0.5079 -0.5008
  182SOPE  H14R20819   4.611   1.814   7.667 -2.7557 -1.7237  3.0438
  182SOPE  H14S20820   4.676   1.641   7.655 -0.5130  0.0175 -1.3983
  182SOPE  C21520821   4.483   1.680   7.545 -0.1999 -0.1226 -0.1356
  182SOPE  H15R20822   4.428   1.774   7.525 -1.2666 -0.5853  0.5017
  182SOPE  H15S20823   4.430   1.617   7.620 -0.2727  0.6821  0.4996
  182SOPE  C21620824   4.487   1.602   7.413 -0.0820 -0.0487  0.2618
  182SOPE  H16R20825   4.534   1.503   7.433 -0.3662 -0.7592 -2.2399
  182SOPE  H16S20826   4.551   1.642   7.332 -0.7190 -0.7214 -0.5872
  182SOPE  C21720827   4.351   1.568   7.350 -0.1534 -0.1372  0.4529
  182SOPE  H17R20828   4.289   1.661   7.349 -0.1451 -0.1284  0.9343
  182SOPE  H17S20829   4.301   1.506   7.427  0.1426 -0.6341  0.2507
  182SOPE  C21820830   4.368   1.518   7.205  0.4663 -0.1105 -0.5109
  182SOPE  H18R20831   4.455   1.564   7.154  0.8771  0.3005  0.5255
  182SOPE  H18S20832   4.271   1.543   7.156 -0.1757 -0.2541  0.6281
  182SOPE  H18T20833   4.369   1.408   7.191 -0.3271  0.0048 -1.6112
  182SOPE   C3320834   4.336   1.064   6.961  0.7081 -0.5256  0.1217
  182SOPE   H3X20835   4.367   0.959   6.944 -0.0948 -0.9229  1.0364
  182SOPE   H3Y20836   4.253   1.089   6.892 -1.4872  0.1749  2.8049
  182SOPE   C3420837   4.279   1.088   7.104  0.7524  0.0283  0.5100
  182SOPE   H4X20838   4.216   1.000   7.131  0.4921  0.0407 -0.0478
  182SOPE   H4Y20839   4.222   1.183   7.105  0.5060 -0.1208  1.2654
  182SOPE   C3520840   4.381   1.103   7.221 -0.2575  0.1882  0.5431
  182SOPE   H5X20841   4.428   1.202   7.203  0.9383 -0.3099  0.8243
  182SOPE   H5Y20842   4.460   1.027   7.202 -0.8463  0.0770 -1.7017
  182SOPE   C3620843   4.329   1.100   7.360 -0.1996 -0.2171 -0.4614
  182SOPE   H6X20844   4.279   1.003   7.381  0.6966 -0.8973 -1.4014
  182SOPE   H6Y20845   4.245   1.173   7.363 -0.5646 -0.6429 -0.1042
  182SOPE   C3720846   4.434   1.140   7.466 -0.1638 -0.0584 -0.3968
  182SOPE   H7X20847   4.500   1.218   7.422 -0.3820  0.3687  0.0204
  182SOPE   H7Y20848   4.488   1.049   7.498  0.1086  1.3566  3.7823
  182SOPE   C3820849   4.369   1.207   7.590 -0.7401 -0.4102  0.0356
  182SOPE   H8X20850   4.291   1.141   7.633  0.6322 -1.1971  1.3994
  182SOPE   H8Y20851   4.328   1.308   7.568  1.5474  0.5058 -0.3494
  182SOPE   C3920852   4.476   1.231   7.699  0.2129  0.0896 -0.5136
  182SOPE   H9X20853   4.540   1.314   7.662  0.9446 -0.1547  0.1876
  182SOPE   H9Y20854   4.529   1.136   7.721 -1.1354 -1.1568 -2.3040
  182SOPE  C31020855   4.418   1.289   7.832  0.0966  0.2222  0.5007
  182SOPE  H10X20856   4.351   1.215   7.881  0.6420  1.4621  3.3684
  182SOPE  H10Y20857   4.354   1.376   7.805 -1.2991 -0.3120  1.9300
  182SOPE  C31120858   4.522   1.338   7.939 -0.2859  0.6041 -0.4161
  182SOPE  H11X20859   4.604   1.391   7.888  1.0790 -0.4639  0.5885
  182SOPE  H11Y20860   4.572   1.252   7.988 -1.2563  0.2907  0.0635
  182SOPE  C31220861   4.453   1.425   8.046  0.0047  0.3149 -0.3805
  182SOPE  H12X20862   4.387   1.355   8.102  0.2903  0.4019  0.0726
  182SOPE  H12Y20863   4.396   1.509   8.000  1.1078  0.5478 -1.3611
  182SOPE  C31320864   4.549   1.481   8.150  0.8462  0.3102 -0.2307
  182SOPE  H13X20865   4.605   1.401   8.204  1.6936  1.9288  1.3761
  182SOPE  H13Y20866   4.479   1.539   8.213 -2.1017 -3.2339  0.0818
  182SOPE  C31420867   4.655   1.578   8.092 -0.0832  0.0089 -0.3139
  182SOPE  H14X20868   4.610   1.673   8.057 -0.6191 -0.0697  0.1620
  182SOPE  H14Y20869   4.699   1.533   8.000 -1.3809  0.6615 -1.2869
  182SOPE  C31520870   4.764   1.634   8.190 -0.2612  0.1736 -0.3523
  182SOPE  H15X20871   4.817   1.540   8.219 -0.0397  0.3148 -0.2938
  182SOPE  H15Y20872   4.722   1.687   8.277  2.1053  1.4153  0.1288
  182SOPE  C31620873   4.867   1.722   8.117 -0.6024  0.2204 -0.3940
  182SOPE  H16X20874   4.916   1.661   8.039  0.4947  0.3081  0.2145
  182SOPE  H16Y20875   4.952   1.746   8.184  0.5930 -0.9043 -1.4768
  182SOPE  C31720876   4.818   1.853   8.055 -0.5087  0.3508  0.2826
  182SOPE  H17X20877   4.765   1.903   8.139 -0.1887 -0.2658  0.8627
  182SOPE  H17Y20878   4.743   1.839   7.974  1.2466 -0.3792 -1.2940
  182SOPE  C31820879   4.915   1.956   8.005  0.2351 -0.3101  0.3983
  182SOPE  H18X20880   4.864   2.054   8.004  2.2945  0.9381  3.2530
  182SOPE  H18Y20881   4.939   1.931   7.899  0.5530  1.0567  0.1336
  182SOPE  H18Z20882   5.010   1.953   8.062  0.9045 -0.0347 -0.6685
  183SOPE     N20883   3.967   5.450   6.255  0.2960 -0.1761 -0.0834
  183SOPE   HN120884   4.037   5.460   6.179 -0.8743  2.3638 -0.9429
  183SOPE   HN220885   3.903   5.531   6.254 -2.2715 -2.0992 -0.7265
  183SOPE   HN320886   4.016   5.440   6.347 -1.5808  1.8969  1.2502
  183SOPE   C1220887   3.890   5.326   6.237  0.0338  0.1122 -0.5490
  183SOPE  H12A20888   3.889   5.304   6.128  1.4831 -1.8659 -0.2242
  183SOPE  H12B20889   3.786   5.343   6.274  0.6724  1.8732  0.5651
  183SOPE   C1120890   3.937   5.192   6.299  0.5554  0.3027  0.7169
  183SOPE  H11A20891   3.850   5.123   6.294  0.8176 -0.0424  0.9443
  183SOPE  H11B20892   3.962   5.219   6.404  1.5623  1.9289  0.1127
  183SOPE     P20893   4.089   4.993   6.308  0.1588  0.0914  0.0039
  183SOPE   O1320894   4.226   4.950   6.278  0.6311 -0.2496 -0.0853
  183SOPE   O1420895   3.980   4.902   6.269 -0.0110  0.2648 -0.1441
  183SOPE   O1220896   4.051   5.135   6.236 -0.8466  0.0946 -0.5349
  183SOPE   O1120897   4.073   5.021   6.458  0.0263 -0.0492 -0.3429
  183SOPE    C120898   4.156   5.090   6.545  0.1453 -0.0378  0.1695
  183SOPE    HA20899   4.103   5.186   6.565  0.4853  0.1390  0.2322
  183SOPE    HB20900   4.256   5.114   6.502 -0.5000  0.8864 -0.8644
  183SOPE    C220901   4.171   5.015   6.678 -0.0961  0.9455  0.3292
  183SOPE    HS20902   4.229   4.924   6.650 -0.4199  0.9952 -0.5189
  183SOPE   O2120903   4.041   4.976   6.735 -0.5047  0.3672 -0.3749
  183SOPE   C2120904   4.028   4.846   6.758  0.4485  0.5122  0.2241
  183SOPE   O2220905   4.105   4.756   6.728  0.5219  0.7811  0.0966
  183SOPE   C2220906   3.890   4.822   6.817  0.3301  0.4079  0.7809
  183SOPE   H2R20907   3.818   4.813   6.733 -1.2058 -1.0643  2.1550
  183SOPE   H2S20908   3.867   4.916   6.873  0.9483 -0.0899  1.9135
  183SOPE    C320909   4.249   5.072   6.800  0.6547  0.3546 -0.3272
  183SOPE    HX20910   4.206   5.167   6.839  2.3226  1.1941 -0.4741
  183SOPE    HY20911   4.344   5.108   6.755  0.0847  1.9932 -0.2887
  183SOPE   O3120912   4.267   4.974   6.901 -0.3810  0.1928 -0.3597
  183SOPE   C3120913   4.395   4.981   6.961  0.1705 -0.1024 -0.0847
  183SOPE   O3220914   4.478   5.057   6.932 -0.7633 -0.3491 -0.4526
  183SOPE   C3220915   4.397   4.862   7.053  0.2035 -0.1935 -0.3525
  183SOPE   H2X20916   4.472   4.790   7.013  0.7260  0.0192  0.2347
  183SOPE   H2Y20917   4.300   4.809   7.065 -0.4859  1.6219  4.0389
  183SOPE   C2320918   3.883   4.694   6.899  0.7987 -0.2664 -0.3781
  183SOPE   H3R20919   3.904   4.603   6.838  0.1889 -0.3961 -0.3997
  183SOPE   H3S20920   3.775   4.678   6.919  0.0922  1.5388 -2.4185
  183SOPE   C2420921   3.952   4.707   7.034  0.2110 -0.1611 -0.7585
  183SOPE   H4R20922   3.910   4.627   7.098 -0.2009 -0.0246 -0.8520
  183SOPE   H4S20923   4.061   4.694   7.017  0.7198  0.4688  1.6918
  183SOPE   C2520924   3.927   4.834   7.121 -0.9645  0.1034 -0.1766
  183SOPE   H5R20925   3.965   4.931   7.083 -0.9784 -0.2037 -0.9900
  183SOPE   H5S20926   3.818   4.851   7.134 -0.9953  0.1142 -0.4443
  183SOPE   C2620927   3.995   4.814   7.265  0.6453  0.2899  0.6381
  183SOPE   H6R20928   4.012   4.706   7.289 -1.3486 -0.3014 -0.4032
  183SOPE   H6S20929   4.098   4.853   7.269  0.8545 -0.3062  1.8383
  183SOPE   C2720930   3.918   4.885   7.372 -0.1654 -0.0366  0.5749
  183SOPE   H7R20931   3.917   4.992   7.342  1.6979 -0.5375 -1.5742
  183SOPE   H7S20932   3.818   4.840   7.393  0.0253 -0.2564  1.0267
  183SOPE   C2820933   4.007   4.882   7.503  0.1645  1.0732  0.2661
  183SOPE   H8R20934   4.021   4.776   7.535  0.3054  0.8793 -0.4176
  183SOPE   H8S20935   4.107   4.917   7.471  1.6661 -3.5851 -0.9888
  183SOPE   C2920936   3.948   4.964   7.610  0.3113  0.2652  0.4776
  183SOPE   H9120937   3.907   5.060   7.573  0.5369 -0.7342 -2.6052
  183SOPE  C21020938   3.941   4.947   7.744 -0.7185  0.2714  0.1196
  183SOPE  H10120939   3.877   5.015   7.802  0.7786  1.7751  0.0790
  183SOPE  C21120940   4.009   4.843   7.834  0.7850 -0.3481  0.5181
  183SOPE  H11R20941   4.083   4.909   7.885 -0.8272  1.0935  1.0818
  183SOPE  H11S20942   4.075   4.778   7.773  0.4009  1.1525 -1.6070
  183SOPE  C21220943   3.924   4.771   7.945  0.0818  0.5768  0.0519
  183SOPE  H12R20944   3.995   4.702   7.994  0.2795  0.9124  0.2453
  183SOPE  H12S20945   3.842   4.718   7.891 -1.8311  3.1147  0.2588
  183SOPE  C21320946   3.851   4.849   8.065 -0.2856 -0.4858  0.3889
  183SOPE  H13R20947   3.777   4.915   8.016  1.5561 -0.1938 -2.2230
  183SOPE  H13S20948   3.911   4.921   8.125 -1.1718 -0.8794  1.7915
  183SOPE  C21420949   3.777   4.750   8.158  0.9084  0.0847  0.0652
  183SOPE  H14R20950   3.697   4.694   8.107  1.6695 -0.8974 -0.0820
  183SOPE  H14S20951   3.737   4.815   8.239  0.6542 -1.6754  1.3979
  183SOPE  C21520952   3.864   4.644   8.224 -0.7796  0.1590  0.2893
  183SOPE  H15R20953   3.954   4.690   8.271 -1.0798 -0.0971  1.1403
  183SOPE  H15S20954   3.898   4.565   8.153 -0.8713 -1.5359  2.0492
  183SOPE  C21620955   3.776   4.570   8.331  0.5006  0.0374  0.3245
  183SOPE  H16R20956   3.672   4.557   8.294  1.0843 -1.3692 -0.8973
  183SOPE  H16S20957   3.759   4.642   8.414 -2.8420 -1.9373  1.5462
  183SOPE  C21720958   3.819   4.433   8.376 -0.4975  0.0558 -0.4635
  183SOPE  H17R20959   3.902   4.438   8.450  1.0290 -2.2078 -1.9000
  183SOPE  H17S20960   3.858   4.363   8.300 -0.8517 -0.6379 -0.0112
  183SOPE  C21820961   3.716   4.357   8.469  1.1269 -0.3227 -0.2949
  183SOPE  H18R20962   3.664   4.426   8.540 -0.3212  0.7538 -2.2925
  183SOPE  H18S20963   3.765   4.276   8.526 -1.0713 -1.7245 -0.2958
  183SOPE  H18T20964   3.639   4.312   8.402 -2.2308  2.1949  1.5097
  183SOPE   C3320965   4.439   4.901   7.193 -0.1989  0.5071 -0.0637
  183SOPE   H3X20966   4.389   4.993   7.229  2.6784  2.9156 -1.7298
  183SOPE   H3Y20967   4.550   4.912   7.191 -0.1940  0.6817 -2.4788
  183SOPE   C3420968   4.399   4.792   7.293  0.1980 -0.6235 -0.1617
  183SOPE   H4X20969   4.432   4.699   7.242  3.2747  2.1917 -3.8666
  183SOPE   H4Y20970   4.290   4.795   7.317  0.6259  2.6022  2.0136
  183SOPE   C3520971   4.464   4.806   7.436  0.3209 -0.0499  0.2310
  183SOPE   H5X20972   4.572   4.820   7.418  0.0196  2.6856  0.0462
  183SOPE   H5Y20973   4.458   4.704   7.479  2.2910  0.6838  2.4385
  183SOPE   C3620974   4.405   4.908   7.527  0.1502  0.2927 -0.2704
  183SOPE   H6X20975   4.297   4.893   7.544 -0.1060  2.9589  0.9684
  183SOPE   H6Y20976   4.436   5.006   7.483 -0.6388 -0.2985 -2.2672
  183SOPE   C3720977   4.468   4.888   7.669  0.2326  0.0069  0.2936
  183SOPE   H7X20978   4.578   4.875   7.662 -0.0391 -3.0950  0.1370
  183SOPE   H7Y20979   4.440   4.787   7.706  0.4731 -0.6105 -1.1348
  183SOPE   C3820980   4.439   4.997   7.768 -0.3297  0.5170  0.4553
  183SOPE   H8X20981   4.330   5.008   7.783 -0.4699 -0.1751  0.0168
  183SOPE   H8Y20982   4.466   5.096   7.726 -0.9949 -0.0661 -1.4580
  183SOPE   C3920983   4.512   4.978   7.906  0.0284  0.5489 -0.3869
  183SOPE   H9X20984   4.608   4.928   7.880  0.4340  2.0028 -1.8558
  183SOPE   H9Y20985   4.453   4.904   7.964  0.9405  0.2144  0.1406
  183SOPE  C31020986   4.525   5.116   7.979  0.3394  0.5521 -0.5569
  183SOPE  H10X20987   4.429   5.172   7.971 -1.3157 -1.6072  2.2850
  183SOPE  H10Y20988   4.604   5.168   7.921  1.8851  0.0662  1.0366
  183SOPE  C31120989   4.554   5.096   8.130  0.1820  0.0101  0.3481
  183SOPE  H11X20990   4.501   5.006   8.167 -2.8702  1.0061 -1.1977
  183SOPE  H11Y20991   4.522   5.187   8.185  0.3206 -0.1923  0.7649
  183SOPE  C31220992   4.694   5.051   8.165  0.4550 -0.1347  0.5990
  183SOPE  H12X20993   4.776   5.103   8.111  1.0117 -2.2707 -0.7066
  183SOPE  H12Y20994   4.701   4.943   8.143  1.4468  0.0065  0.1725
  183SOPE  C31320995   4.709   5.067   8.319  0.6491  0.6889 -0.7119
  183SOPE  H13X20996   4.621   5.026   8.373  0.3957  0.8564 -0.9994
  183SOPE  H13Y20997   4.726   5.174   8.341 -3.0182  0.9098  1.9337
  183SOPE  C31420998   4.811   4.983   8.384 -0.0702 -0.7452 -0.0842
  183SOPE  H14X20999   4.905   5.015   8.334  1.0576 -1.8530  1.2693
  183SOPE  H14Y21000   4.788   4.876   8.366  2.9342 -1.4137 -0.4788
  183SOPE  C31521001   4.815   5.010   8.533  0.4304  0.4164  0.6952
  183SOPE  H15X21002   4.711   5.003   8.572  0.4969  1.1912  1.0253
  183SOPE  H15Y21003   4.854   5.114   8.537  3.2016 -0.3998 -1.7342
  183SOPE  C31621004   4.905   4.910   8.607  0.1520 -0.5887 -0.1216
  183SOPE  H16X21005   4.891   4.811   8.558  0.9988 -1.9189  2.1822
  183SOPE  H16Y21006   4.876   4.904   8.714 -0.5023  1.3645 -0.1517
  183SOPE  C31721007   5.057   4.927   8.609 -0.0913 -0.4316  0.1685
  183SOPE  H17X21008   5.088   5.023   8.655 -0.0087 -0.0094 -0.7583
  183SOPE  H17Y21009   5.105   4.943   8.510  0.0550  0.8214  0.4342
  183SOPE  C31821010   5.124   4.809   8.683 -0.6474 -0.1947 -0.0714
  183SOPE  H18X21011   5.125   4.712   8.629  2.7408 -1.2061  1.5011
  183SOPE  H18Y21012   5.078   4.808   8.784 -0.7758 -0.6769 -0.1301
  183SOPE  H18Z21013   5.231   4.837   8.692 -0.7228 -0.1205  0.6046
  184SOPE     N21014   5.461   6.072   6.259  0.5372 -0.0022  0.3640
  184SOPE   HN121015   5.560   6.078   6.226  0.2629 -0.0897 -0.4835
  184SOPE   HN221016   5.456   6.048   6.360  0.6382 -0.6116  0.2253
  184SOPE   HN321017   5.418   5.995   6.204 -1.1560  0.1169  1.4682
  184SOPE   C1221018   5.381   6.202   6.240 -0.7684 -0.2061  0.6418
  184SOPE  H12A21019   5.438   6.281   6.292 -1.3028  0.3516  0.3944
  184SOPE  H12B21020   5.285   6.199   6.295 -0.3991  2.4844  1.5589
  184SOPE   C1121021   5.350   6.237   6.090  0.0044 -0.6148 -0.2844
  184SOPE  H11A21022   5.308   6.340   6.086 -1.5852 -1.0902  2.0673
  184SOPE  H11B21023   5.262   6.175   6.061 -0.6996 -0.5609  1.6074
  184SOPE     P21024   5.574   6.310   5.987 -0.4238  0.0333  0.1498
  184SOPE   O1321025   5.521   6.430   5.917  0.1606 -0.1564 -0.4704
  184SOPE   O1421026   5.682   6.234   5.919 -0.6145 -0.1943  0.3253
  184SOPE   O1221027   5.460   6.202   6.010 -0.1140  0.0142  0.4066
  184SOPE   O1121028   5.618   6.347   6.133 -0.0113  0.9650  0.3752
  184SOPE    C121029   5.706   6.460   6.165  0.4374 -0.8634  0.2092
  184SOPE    HA21030   5.699   6.546   6.094  1.3043 -0.2492  0.8381
  184SOPE    HB21031   5.815   6.439   6.156  1.0252  2.0910 -1.0765
  184SOPE    C221032   5.670   6.523   6.306 -1.1736  0.3068 -0.1983
  184SOPE    HS21033   5.741   6.607   6.326  0.4450 -0.3895 -2.6310
  184SOPE   O2121034   5.688   6.413   6.405  0.2176  0.2345  0.5558
  184SOPE   C2121035   5.816   6.384   6.432  0.3654 -0.2781  0.3261
  184SOPE   O2221036   5.912   6.451   6.393 -0.2576 -0.2902  0.8201
  184SOPE   C2221037   5.833   6.266   6.525  0.1860 -0.7399 -0.6486
  184SOPE   H2R21038   5.825   6.173   6.464 -0.9824  0.7835 -2.9576
  184SOPE   H2S21039   5.753   6.269   6.603  1.8114 -0.5322  1.0949
  184SOPE    C321040   5.528   6.582   6.313  0.5914  0.4796  0.0779
  184SOPE    HX21041   5.450   6.504   6.299  2.0790 -1.3231  1.4687
  184SOPE    HY21042   5.516   6.662   6.236  0.8545  0.0897 -0.3741
  184SOPE   O3121043   5.500   6.644   6.445  0.6064  0.3096 -0.1073
  184SOPE   C3121044   5.392   6.723   6.459 -0.1156 -0.2733  0.0479
  184SOPE   O3221045   5.310   6.750   6.365 -0.2570 -0.0289  0.2184
  184SOPE   C3221046   5.374   6.759   6.606  0.9171  0.1037 -0.0638
  184SOPE   H2X21047   5.463   6.741   6.671  0.1747 -2.0184  0.4447
  184SOPE   H2Y21048   5.287   6.705   6.649  1.8531 -0.9041  0.6202
  184SOPE   C2321049   5.965   6.276   6.611 -0.5614 -0.0650 -1.0672
  184SOPE   H3R21050   6.046   6.305   6.540 -1.7243  0.9657 -2.0176
  184SOPE   H3S21051   5.986   6.175   6.653  0.8013  0.9991  0.9552
  184SOPE   C2421052   5.953   6.381   6.721  0.0350 -0.0251  0.2456
  184SOPE   H4R21053   6.005   6.471   6.681 -0.7836  1.2986  2.0205
  184SOPE   H4S21054   5.846   6.399   6.744 -0.3300 -1.8304  0.0960
  184SOPE   C2521055   6.026   6.332   6.850  0.2280  0.1840 -0.0336
  184SOPE   H5R21056   5.963   6.245   6.880  0.0558  0.2990 -0.0635
  184SOPE   H5S21057   6.127   6.296   6.821  0.7745  2.2799 -0.9078
  184SOPE   C2621058   6.028   6.446   6.957 -0.4383  0.3438  0.2114
  184SOPE   H6R21059   6.061   6.535   6.899 -0.6969 -0.4151 -1.1169
  184SOPE   H6S21060   5.927   6.466   6.998  0.4480  0.3943  2.5579
  184SOPE   C2721061   6.131   6.421   7.072  0.3190  0.9090 -0.5782
  184SOPE   H7R21062   6.106   6.331   7.132  2.2807  0.7054 -0.0217
  184SOPE   H7S21063   6.221   6.394   7.012 -0.0042 -2.6818  0.3342
  184SOPE   C2821064   6.172   6.540   7.155 -0.9901 -0.9171 -0.0488
  184SOPE   H8R21065   6.266   6.517   7.209  0.0322  0.8878 -0.9460
  184SOPE   H8S21066   6.186   6.626   7.086 -0.6570 -1.9988 -1.3795
  184SOPE   C2921067   6.054   6.579   7.239 -0.9314  0.1532  0.3164
  184SOPE   H9121068   5.966   6.613   7.181 -0.4891 -0.1932 -0.5773
  184SOPE  C21021069   6.057   6.575   7.375 -0.7352 -0.4429 -0.7750
  184SOPE  H10121070   5.963   6.594   7.430 -0.0269  1.1612 -0.0464
  184SOPE  C21121071   6.175   6.536   7.466 -0.3409  0.4704 -0.5950
  184SOPE  H11R21072   6.216   6.634   7.499  1.3824 -0.4341  0.1277
  184SOPE  H11S21073   6.264   6.484   7.422  1.7138  1.3802  2.1772
  184SOPE  C21221074   6.140   6.433   7.577  0.7734  0.0805 -0.2474
  184SOPE  H12R21075   6.082   6.344   7.545 -3.0424  1.9383  0.9322
  184SOPE  H12S21076   6.071   6.485   7.647 -0.4534 -2.8626  0.9152
  184SOPE  C21321077   6.256   6.374   7.657 -0.1334 -0.1666 -0.6245
  184SOPE  H13R21078   6.346   6.354   7.594  1.2419  0.2784  1.1111
  184SOPE  H13S21079   6.231   6.279   7.709  4.4119 -1.2299  0.0515
  184SOPE  C21421080   6.310   6.479   7.754  0.1511  0.2664  0.0761
  184SOPE  H14R21081   6.317   6.576   7.699  2.2686  0.1823  0.1055
  184SOPE  H14S21082   6.415   6.461   7.786  0.4664  1.8613  0.0605
  184SOPE  C21521083   6.225   6.479   7.883  0.3860 -0.3505 -0.1672
  184SOPE  H15R21084   6.118   6.470   7.855  0.9516 -1.6621 -2.1624
  184SOPE  H15S21085   6.235   6.564   7.953  0.3750 -1.1413  0.8064
  184SOPE  C21621086   6.272   6.362   7.971  0.2604  0.2616 -0.6203
  184SOPE  H16R21087   6.382   6.366   7.988  0.0218 -1.7768  1.9523
  184SOPE  H16S21088   6.249   6.269   7.915  2.5696 -0.9373  0.2941
  184SOPE  C21721089   6.192   6.350   8.102  0.6116  0.1087  0.1232
  184SOPE  H17R21090   6.085   6.339   8.071 -0.3564  1.0022  2.8504
  184SOPE  H17S21091   6.207   6.446   8.155  2.1799 -0.7686  1.3659
  184SOPE  C21821092   6.248   6.246   8.201 -0.1781 -0.1595  0.5955
  184SOPE  H18R21093   6.273   6.157   8.138 -1.9398 -0.3663  0.1093
  184SOPE  H18S21094   6.177   6.209   8.278 -0.5855  0.2687  0.4290
  184SOPE  H18T21095   6.337   6.281   8.257 -0.2692 -3.8728  3.4846
  184SOPE   C3321096   5.337   6.908   6.622 -0.1376 -0.3302  0.2521
  184SOPE   H3X21097   5.256   6.932   6.550  0.9395  1.5082 -0.4381
  184SOPE   H3Y21098   5.413   6.982   6.588 -0.5990  1.2362  2.4181
  184SOPE   C3421099   5.295   6.952   6.757 -0.0852 -0.6283  0.2361
  184SOPE   H4X21100   5.390   6.970   6.813 -0.0206  3.7669 -0.8782
  184SOPE   H4Y21101   5.239   6.869   6.804  0.4098 -2.9525 -2.9870
  184SOPE   C3521102   5.205   7.078   6.753 -0.4165  0.2207  0.0828
  184SOPE   H5X21103   5.115   7.063   6.690 -1.7849  3.1607  1.1403
  184SOPE   H5Y21104   5.262   7.164   6.711 -0.0079  1.1311  2.3391
  184SOPE   C3621105   5.145   7.125   6.890  0.7580 -0.2754  0.9834
  184SOPE   H6X21106   5.058   7.058   6.901 -0.0934  0.8075  1.0265
  184SOPE   H6Y21107   5.091   7.222   6.884 -0.9856 -1.1102  2.2530
  184SOPE   C3721108   5.241   7.114   7.004  0.3510  0.3881 -0.2330
  184SOPE   H7X21109   5.321   7.189   6.993 -0.1635  1.0835  0.6507
  184SOPE   H7Y21110   5.282   7.011   7.016  1.0816  0.6856 -0.0997
  184SOPE   C3821111   5.167   7.131   7.136 -0.3343 -0.9129 -0.1069
  184SOPE   H8X21112   5.083   7.063   7.160 -1.4067  0.5698  0.5021
  184SOPE   H8Y21113   5.125   7.234   7.137  0.7277 -0.4208  2.3791
  184SOPE   C3921114   5.257   7.118   7.264 -1.1748  0.1295 -0.6229
  184SOPE   H9X21115   5.338   7.194   7.263  1.1499 -2.1863 -0.1469
  184SOPE   H9Y21116   5.292   7.013   7.278 -0.7608  0.4945  1.2503
  184SOPE  C31021117   5.174   7.149   7.388  0.3413  0.3658  1.0092
  184SOPE  H10X21118   5.118   7.056   7.411 -0.5891  0.0789 -1.9118
  184SOPE  H10Y21119   5.096   7.227   7.376  0.1922  0.2348  1.1356
  184SOPE  C31121120   5.258   7.174   7.513  0.6426  0.6400  0.1958
  184SOPE  H11X21121   5.325   7.262   7.500 -0.1114  1.3219  0.7995
  184SOPE  H11Y21122   5.326   7.091   7.541 -1.2287 -0.6328  1.1621
  184SOPE  C31221123   5.168   7.185   7.636 -0.5452 -0.6113 -0.1357
  184SOPE  H12X21124   5.114   7.089   7.653  1.1029 -1.2337  1.9707
  184SOPE  H12Y21125   5.091   7.264   7.623  0.5139  0.3907 -0.5198
  184SOPE  C31321126   5.248   7.211   7.768  1.0231 -0.3673  0.4953
  184SOPE  H13X21127   5.344   7.262   7.747  1.0224  0.8129  2.9910
  184SOPE  H13Y21128   5.274   7.115   7.817 -1.5250 -0.7009  1.3506
  184SOPE  C31421129   5.179   7.301   7.872  0.5523 -0.3213 -0.4844
  184SOPE  H14X21130   5.073   7.269   7.875  0.1411  0.7672 -1.8112
  184SOPE  H14Y21131   5.196   7.404   7.832  1.4609  0.0037  0.6900
  184SOPE  C31521132   5.213   7.290   8.021 -0.0516 -0.2158  0.3543
  184SOPE  H15X21133   5.158   7.367   8.081 -1.9934 -1.6191  0.4542
  184SOPE  H15Y21134   5.321   7.314   8.022  0.1164 -0.9362 -0.2036
  184SOPE  C31621135   5.180   7.165   8.098 -0.0855 -0.0019  1.1323
  184SOPE  H16X21136   5.238   7.162   8.193 -0.5434  1.6725  1.4965
  184SOPE  H16Y21137   5.208   7.075   8.039  1.1373  0.9777  0.1598
  184SOPE  C31721138   5.031   7.155   8.141 -0.6076  0.1785 -0.0709
  184SOPE  H17X21139   4.966   7.157   8.051  0.6465 -0.0225 -1.0071
  184SOPE  H17Y21140   4.999   7.241   8.204 -1.5698 -0.1275 -0.1372
  184SOPE  C31821141   4.991   7.024   8.206  0.9035  0.1808 -0.0553
  184SOPE  H18X21142   5.045   7.004   8.301 -0.6930  1.6806  1.2402
  184SOPE  H18Y21143   5.015   6.949   8.128  0.8156  0.8392 -0.7204
  184SOPE  H18Z21144   4.884   7.024   8.233  1.0999  1.1528  0.7658
  185SAPI   C1221145   0.007   4.769  10.785  0.3917  0.0799  0.0831
  185SAPI    H221146  -0.012   4.676  10.727 -0.2079 -1.1989  2.2051
  185SAPI    O221147   0.150   4.779  10.801 -0.6330 -0.1114 -0.0692
  185SAPI   HO221148   0.187   4.693  10.821 -2.4202 -0.7455  0.7199
  185SAPI   C1321149  -0.050   4.875  10.698 -0.1078 -0.4125 -0.2083
  185SAPI    H321150  -0.155   4.849  10.671 -0.1552 -1.3761  0.8196
  185SAPI    O321151   0.011   4.887  10.574 -0.0764  0.0373 -0.6786
  185SAPI   HO321152   0.041   4.799  10.548 -0.6116 -0.0640 -0.9826
  185SAPI   C1421153  -0.048   5.013  10.767  0.3228 -0.1714 -0.2688
  185SAPI    H421154   0.056   5.029  10.802  0.3278 -3.1990  1.4907
  185SAPI    O421155  -0.079   5.127  10.686 -0.1512  0.0478 -0.2764
  185SAPI   HO421156  -0.005   5.134  10.625 -0.0570  1.5076 -0.0180
  185SAPI   C1521157  -0.122   5.013  10.904 -0.5597  0.5660  0.3152
  185SAPI    H521158  -0.231   4.990  10.891 -0.3549 -0.5055  0.3695
  185SAPI    O521159  -0.114   5.139  10.970 -0.5589  0.5357 -0.3123
  185SAPI   HO521160  -0.192   5.192  10.954 -0.9346  0.8550  2.2049
  185SAPI   C1621161  -0.068   4.902  10.993  0.9499  0.3389 -0.5923
  185SAPI    H621162   0.035   4.926  11.027 -0.1156  1.7664  1.8827
  185SAPI    O621163  -0.149   4.900  11.115 -0.1084 -0.1843  0.1131
  185SAPI   HO621164  -0.214   4.829  11.104 -2.7308  2.0165  0.2989
  185SAPI   C1121165  -0.077   4.770  10.912 -0.2626  0.3363  0.2643
  185SAPI    H121166  -0.184   4.758  10.887  0.1168 -0.4271 -1.0599
  185SAPI     P21167  -0.134   4.544  11.040 -0.1805  0.0522  0.0149
  185SAPI   O1321168  -0.260   4.613  11.072 -0.6350 -0.0033  0.3095
  185SAPI   O1421169  -0.076   4.474  11.155  0.3111  0.6222  0.7101
  185SAPI   O1221170  -0.023   4.666  10.995  0.2066  0.1198  0.3374
  185SAPI   O1121171  -0.139   4.454  10.913 -0.0661 -0.2058 -0.5334
  185SAPI    C121172  -0.108   4.315  10.914  1.0616 -0.7603 -0.3287
  185SAPI    HA21173  -0.074   4.284  11.015  0.1096 -0.8206 -0.0222
  185SAPI    HB21174  -0.199   4.253  10.906 -0.9795  2.0094 -0.2869
  185SAPI    C221175  -0.021   4.274  10.790  0.0750 -0.0791 -0.0797
  185SAPI    HS21176   0.082   4.258  10.828 -0.4267  1.6259  2.2221
  185SAPI   O2121177  -0.028   4.367  10.687  0.0841 -0.4631 -0.3462
  185SAPI   C2121178   0.078   4.380  10.611 -0.2897  0.0775 -0.0265
  185SAPI   O2221179   0.193   4.338  10.618  0.4776 -0.6564  0.2299
  185SAPI   C2221180   0.028   4.476  10.500  0.7267  0.3559 -0.2313
  185SAPI   H2R21181  -0.052   4.423  10.443  0.5716 -1.9674  1.9932
  185SAPI   H2S21182  -0.002   4.565  10.559  3.8661  0.6085  1.1853
  185SAPI    C321183  -0.085   4.138  10.736  0.1432 -0.5328 -1.4111
  185SAPI    HX21184  -0.183   4.168  10.692  0.4495  1.2756 -0.9241
  185SAPI    HY21185  -0.104   4.066  10.818  2.0621  0.9742  0.4756
  185SAPI   O3121186   0.006   4.073  10.641  0.1725  0.4295 -0.0446
  185SAPI   C3121187  -0.046   3.997  10.544  0.6868 -0.4703 -0.7053
  185SAPI   O3221188  -0.156   3.948  10.545  0.1858 -0.3598 -0.1673
  185SAPI   C3221189   0.067   3.970  10.442  0.9703  0.3291  0.4108
  185SAPI   H2X21190   0.083   3.860  10.438  0.9017  0.3551 -1.4919
  185SAPI   H2Y21191   0.163   4.019  10.469  1.3591 -1.0611  1.6474
  185SAPI   C2321192   0.139   4.510  10.392 -0.2142  0.7118 -0.9247
  185SAPI   H3R21193   0.160   4.410  10.347 -0.4865  0.5504 -0.6977
  185SAPI   H3S21194   0.238   4.539  10.432 -0.1445 -0.3378 -0.2997
  185SAPI   C2421195   0.085   4.603  10.279  0.0358 -0.1523  0.3260
  185SAPI   H4R21196   0.050   4.694  10.331  0.6291 -1.3704  3.0496
  185SAPI   H4S21197  -0.003   4.560  10.227 -0.3729  0.8152  0.1979
  185SAPI   C2521198   0.199   4.637  10.182 -0.8392  0.2415  0.0596
  185SAPI   H5R21199   0.258   4.727  10.207 -1.4081  0.8883 -0.8478
  185SAPI   C2621200   0.222   4.584  10.061  0.0741  0.1814 -0.3049
  185SAPI   H6R21201   0.295   4.644  10.004 -0.4444  1.4948  0.3643
  185SAPI   C2721202   0.136   4.483   9.988 -0.0014  0.0379 -0.8213
  185SAPI   H7R21203   0.067   4.530   9.914  1.4433 -0.2790 -2.4415
  185SAPI   H7S21204   0.075   4.419  10.055 -1.0258 -0.7425 -2.4511
  185SAPI   C2821205   0.240   4.392   9.935  0.5534  0.7113 -1.1413
  185SAPI   H8R21206   0.261   4.310  10.004  4.4705  1.9429 -0.6357
  185SAPI   C2921207   0.292   4.397   9.818 -0.1462 -0.0968  0.0029
  185SAPI   H9R21208   0.366   4.317   9.806  0.2892  0.3919 -0.6780
  185SAPI  C21021209   0.263   4.495   9.704 -0.6298  0.1711 -0.2198
  185SAPI  H10R21210   0.355   4.541   9.664  0.8577 -1.8285  0.7212
  185SAPI  H10S21211   0.226   4.586   9.756 -0.4830 -0.9130  1.8967
  185SAPI  C21121212   0.150   4.468   9.595  0.7215  0.0257  0.3135
  185SAPI  H11R21213   0.057   4.444   9.648  1.6424  0.8291  2.3981
  185SAPI  C21221214   0.159   4.459   9.464  0.0572  0.1373 -0.2676
  185SAPI  H12R21215   0.071   4.449   9.399 -0.3606  2.2599 -0.1083
  185SAPI  C21321216   0.291   4.479   9.384 -0.4844  0.1834  0.4171
  185SAPI  H13R21217   0.298   4.429   9.286 -0.6572  0.9157  0.0234
  185SAPI  H13S21218   0.385   4.451   9.436  1.0851  3.2308 -0.5438
  185SAPI  C21421219   0.304   4.626   9.350 -0.3762 -0.3864 -0.3290
  185SAPI  H14R21220   0.303   4.692   9.438 -1.9703  0.1278 -0.6883
  185SAPI  C21521221   0.309   4.681   9.231 -0.0122  0.1031 -0.2012
  185SAPI  H15R21222   0.327   4.790   9.229  3.5538 -0.3696 -0.1632
  185SAPI  C21621223   0.299   4.613   9.097  0.3648 -0.6146 -0.2041
  185SAPI  H16R21224   0.193   4.616   9.067  0.0889  1.1174  0.8150
  185SAPI  H16S21225   0.326   4.505   9.103 -0.5513 -0.9631 -1.9490
  185SAPI  C21721226   0.396   4.665   8.990 -0.5386  0.1868  0.2326
  185SAPI  H17R21227   0.497   4.632   9.022 -1.3589 -0.9282  1.7380
  185SAPI  H17S21228   0.392   4.775   9.009 -1.1589  0.1316  0.4194
  185SAPI  C21821229   0.373   4.644   8.837  1.1194  1.0198 -0.0299
  185SAPI  H18R21230   0.267   4.663   8.809  0.6639 -1.9688 -0.6371
  185SAPI  H18S21231   0.384   4.537   8.809 -2.0119  0.7171 -0.3789
  185SAPI  C21921232   0.452   4.732   8.748 -0.5779 -0.5458 -0.2791
  185SAPI  H19R21233   0.549   4.678   8.757 -0.7072 -0.7319  0.0141
  185SAPI  H19S21234   0.459   4.841   8.769 -0.6267 -0.5661 -0.1595
  185SAPI  C22021235   0.410   4.729   8.604  0.1404  1.6957  0.6192
  185SAPI  H20R21236   0.455   4.640   8.554 -1.3503 -0.3675  2.7643
  185SAPI  H20S21237   0.440   4.811   8.535 -0.4651  0.2249 -1.5242
  185SAPI  H20T21238   0.302   4.709   8.588  0.7513 -2.8508  0.8323
  185SAPI   C3321239   0.012   4.011  10.303  0.0388  0.1446  0.1141
  185SAPI   H3X21240  -0.012   4.119  10.296 -1.1160 -0.1741 -1.6685
  185SAPI   H3Y21241  -0.085   3.960  10.283 -0.6668  1.5057 -0.0598
  185SAPI   C3421242   0.123   3.968  10.200  0.7212 -0.3433 -0.6856
  185SAPI   H4X21243   0.119   3.857  10.196 -1.5321 -0.3954  1.1101
  185SAPI   H4Y21244   0.228   3.997  10.225  0.0566  1.2319  0.5096
  185SAPI   C3521245   0.094   4.026  10.063 -0.2975 -1.0420 -0.2746
  185SAPI   H5X21246   0.101   4.136  10.076 -0.6092 -1.1407  0.7820
  185SAPI   H5Y21247  -0.009   4.000  10.032  0.5740 -0.6353 -4.1077
  185SAPI   C3621248   0.178   3.977   9.950 -0.9128 -0.1805  0.1946
  185SAPI   H6X21249   0.207   3.873   9.976  1.6088  0.2658 -0.5495
  185SAPI   H6Y21250   0.276   4.029   9.943 -0.6578 -0.8557 -2.6154
  185SAPI   C3721251   0.112   3.991   9.819  0.9174 -0.4785  0.3487
  185SAPI   H7X21252   0.051   4.084   9.809  0.3357 -1.0208 -1.6283
  185SAPI   H7Y21253   0.051   3.902   9.794 -1.0814  0.4140  1.7600
  185SAPI   C3821254   0.219   4.016   9.705  0.2846  0.6856  0.0447
  185SAPI   H8X21255   0.308   3.952   9.719 -0.3497  0.1200  1.7837
  185SAPI   H8Y21256   0.263   4.116   9.725  0.3521  0.8144 -0.7241
  185SAPI   C3921257   0.170   4.011   9.557  0.0928  0.5460 -0.3307
  185SAPI   H9X21258   0.089   4.085   9.537  0.1100  1.0254  1.3028
  185SAPI   H9Y21259   0.133   3.908   9.535 -4.2803  1.9119 -0.4286
  185SAPI  C31021260   0.283   4.050   9.460  0.1151  0.5735 -0.1651
  185SAPI  H10X21261   0.375   3.994   9.485  0.4931  0.5701 -1.4843
  185SAPI  H10Y21262   0.302   4.159   9.473 -0.0603  0.4978  0.8305
  185SAPI  C31121263   0.245   4.030   9.313  0.6667  0.3885 -0.1151
  185SAPI  H11X21264   0.165   4.101   9.286 -1.0673 -0.7387  1.7375
  185SAPI  H11Y21265   0.215   3.925   9.295  1.1875  0.2829 -0.3923
  185SAPI  C31221266   0.368   4.056   9.214 -0.0474  0.3583 -0.0096
  185SAPI  H12X21267   0.453   3.986   9.229  1.3875  1.8344 -0.9332
  185SAPI  H12Y21268   0.401   4.160   9.234  0.5866  0.0176  0.7614
  185SAPI  C31321269   0.345   4.035   9.063 -0.2885 -0.0609  0.4899
  185SAPI  H13X21270   0.239   4.058   9.040 -0.2845  0.6573  1.1389
  185SAPI  H13Y21271   0.346   3.925   9.047 -0.8062 -0.1651  1.1345
  185SAPI  C31421272   0.431   4.112   8.965  0.1427 -0.2171 -0.5403
  185SAPI  H14X21273   0.532   4.068   8.954  0.2184  0.0487 -0.9553
  185SAPI  H14Y21274   0.453   4.206   9.020  1.4204 -0.3287 -0.8449
  185SAPI  C31521275   0.373   4.130   8.825  0.5678  0.8568  0.3277
  185SAPI  H15X21276   0.270   4.171   8.828  0.1140 -0.2559  3.2912
  185SAPI  H15Y21277   0.370   4.034   8.769  1.2930  0.7971  0.3837
  185SAPI  C31621278   0.458   4.226   8.745  0.1381  0.4523 -0.7585
  185SAPI  H16X21279   0.562   4.191   8.733  0.2130  0.3003  0.1881
  185SAPI  H16Y21280   0.466   4.315   8.811  0.8331 -2.2376  3.1403
  185SAPI  C31721281   0.398   4.271   8.616 -0.6370 -0.2990 -0.2961
  185SAPI  H17X21282   0.317   4.340   8.648 -0.7711 -0.4555 -0.2930
  185SAPI  H17Y21283   0.355   4.183   8.563  1.7719 -1.8045  0.0781
  185SAPI  C31821284   0.484   4.352   8.529 -0.5921 -0.1258  0.5358
  185SAPI  H18X21285   0.440   4.433   8.467  1.6413  0.3605 -0.4847
  185SAPI  H18Y21286   0.559   4.294   8.472 -0.9375  0.3599 -0.4297
  185SAPI  H18Z21287   0.559   4.404   8.592  1.9943 -1.5609 -1.1859
  186SAPI   C1221288   4.513   1.634  10.726 -0.1062 -0.1916  0.9984
  186SAPI    H221289   4.443   1.560  10.768 -2.5522  0.3384 -1.8180
  186SAPI    O221290   4.588   1.684  10.832 -0.1551 -0.2413  0.2858
  186SAPI   HO221291   4.579   1.630  10.911 -1.4243  0.7074  0.8243
  186SAPI   C1321292   4.592   1.559  10.620 -0.0567 -0.5840  0.2412
  186SAPI    H321293   4.526   1.531  10.535  1.6288 -1.4277 -0.8359
  186SAPI    O321294   4.650   1.439  10.663  0.1875 -0.0074 -0.3291
  186SAPI   HO321295   4.593   1.363  10.649  1.6581 -0.8694 -1.9925
  186SAPI   C1421296   4.694   1.658  10.553  0.0808  0.3975  0.3038
  186SAPI    H421297   4.773   1.685  10.626  0.4400  1.8241 -0.5694
  186SAPI    O421298   4.763   1.598  10.439  0.1105  0.2207 -0.5934
  186SAPI   HO421299   4.854   1.577  10.462 -0.2581  1.1810  2.1293
  186SAPI   C1521300   4.617   1.778  10.497 -0.2412  0.2951  0.3238
  186SAPI    H521301   4.561   1.744  10.408  1.1108 -1.3963  0.0625
  186SAPI    O521302   4.707   1.877  10.443 -0.5051 -0.0265 -0.1182
  186SAPI   HO521303   4.660   1.959  10.426 -0.2615  0.3047  0.7847
  186SAPI   C1621304   4.526   1.849  10.599  0.8591 -0.6451  0.3913
  186SAPI    H621305   4.591   1.897  10.675  1.5244 -0.8718 -0.0284
  186SAPI    O621306   4.447   1.948  10.532 -0.1071 -0.3199  0.2390
  186SAPI   HO621307   4.406   2.011  10.592 -2.2108 -0.3031 -1.1371
  186SAPI   C1121308   4.436   1.753  10.663 -0.4288  0.1384 -0.2381
  186SAPI    H121309   4.373   1.712  10.581  1.5415 -1.5844 -0.9815
  186SAPI     P21310   4.197   1.766  10.780  0.4936  0.1637 -0.2227
  186SAPI   O1321311   4.142   1.851  10.893 -0.4630  0.1470  0.1046
  186SAPI   O1421312   4.210   1.620  10.815 -0.0373  0.4817 -0.1035
  186SAPI   O1221313   4.349   1.818  10.755  0.0146  0.3134  0.2693
  186SAPI   O1121314   4.127   1.786  10.640  0.2652  0.1322  1.0383
  186SAPI    C121315   4.118   1.908  10.564  0.3765  0.1999 -0.6599
  186SAPI    HA21316   4.043   1.981  10.600  0.5775 -0.3735  0.9901
  186SAPI    HB21317   4.211   1.969  10.565  0.3722  0.2179 -1.3032
  186SAPI    C221318   4.091   1.889  10.411  0.1744  0.4233  0.3550
  186SAPI    HS21319   4.095   1.988  10.360  2.7232  0.2131  0.0226
  186SAPI   O2121320   3.968   1.812  10.396 -0.4611  0.1125  1.1916
  186SAPI   C2121321   3.862   1.885  10.374  0.6178 -0.1771  0.4656
  186SAPI   O2221322   3.863   2.008  10.371  0.3242 -0.6517 -0.3880
  186SAPI   C2221323   3.724   1.796  10.368 -0.3189 -0.1632  0.7869
  186SAPI   H2R21324   3.744   1.692  10.333  1.2781  0.0102  1.1037
  186SAPI   H2S21325   3.688   1.788  10.473 -0.3577 -0.1915  0.7714
  186SAPI    C321326   4.206   1.819  10.335 -0.1047  0.3367 -0.6457
  186SAPI    HX21327   4.237   1.730  10.394 -2.8084  1.2126  2.3814
  186SAPI    HY21328   4.294   1.887  10.330  1.1192 -1.1656 -0.3889
  186SAPI   O3121329   4.153   1.767  10.212 -0.0933 -0.0949 -0.4864
  186SAPI   C3121330   4.167   1.848  10.104  0.6314 -0.2926  0.9029
  186SAPI   O3221331   4.219   1.956  10.113  0.0708  0.1641  0.0381
  186SAPI   C3221332   4.116   1.768   9.984 -0.3271 -0.3957 -0.1821
  186SAPI   H2X21333   4.006   1.759   9.996 -0.0799 -1.7363  1.5219
  186SAPI   H2Y21334   4.157   1.665   9.991 -0.8632 -0.5390  1.1199
  186SAPI   C2321335   3.619   1.869  10.283  0.4976  0.3245 -0.3429
  186SAPI   H3R21336   3.621   1.980  10.294  1.4171  0.7332 -3.5389
  186SAPI   H3S21337   3.521   1.827  10.313  1.3017 -0.2710  1.6503
  186SAPI   C2421338   3.623   1.827  10.129 -0.1947 -0.7810  0.4470
  186SAPI   H4R21339   3.526   1.862  10.087  0.9833  2.0869 -0.0845
  186SAPI   H4S21340   3.634   1.716  10.126 -1.0407 -0.9112  1.4979
  186SAPI   C2521341   3.744   1.884  10.053  0.3098 -0.7474  0.0791
  186SAPI   H5R21342   3.824   1.919  10.120  0.3794 -0.6292 -0.0629
  186SAPI   C2621343   3.748   1.899   9.921  0.1756 -0.5747  0.1098
  186SAPI   H6R21344   3.835   1.943   9.871  0.2296 -1.2562 -0.4169
  186SAPI   C2721345   3.638   1.867   9.823  0.0947 -0.3208  0.4491
  186SAPI   H7R21346   3.536   1.855   9.866  0.5765 -2.1639  1.1939
  186SAPI   H7S21347   3.652   1.758   9.802 -0.7335 -0.9547  2.8334
  186SAPI   C2821348   3.640   1.963   9.705  0.8279 -0.7911  0.1732
  186SAPI   H8R21349   3.599   2.062   9.730 -0.8155 -0.7078 -2.4475
  186SAPI   C2921350   3.699   1.951   9.582 -0.3768  0.3402  0.3519
  186SAPI   H9R21351   3.679   2.022   9.500 -0.3583  0.8397  0.7732
  186SAPI  C21021352   3.771   1.828   9.531 -0.5545  0.6064  0.9361
  186SAPI  H10R21353   3.797   1.748   9.605 -0.1145 -0.9337 -0.8158
  186SAPI  H10S21354   3.873   1.855   9.496  0.6594 -1.1526  2.8679
  186SAPI  C21121355   3.680   1.754   9.431  0.3692  0.1853  0.3958
  186SAPI  H11R21356   3.615   1.678   9.477 -2.9535  3.0208  0.7986
  186SAPI  C21221357   3.678   1.766   9.294 -0.0399  0.5096  0.9301
  186SAPI  H12R21358   3.599   1.716   9.236  0.6017  0.5356  0.0258
  186SAPI  C21321359   3.766   1.852   9.205 -0.4671 -0.1272 -0.3797
  186SAPI  H13R21360   3.833   1.787   9.147  0.4953  1.1274 -0.7066
  186SAPI  H13S21361   3.835   1.912   9.268  1.9888 -1.2365 -1.8655
  186SAPI  C21421362   3.677   1.948   9.123 -0.0727  0.1301  0.2681
  186SAPI  H14R21363   3.605   2.011   9.177  0.6225  1.5135 -0.3625
  186SAPI  C21521364   3.672   1.949   8.987 -0.6101 -0.3850 -0.2931
  186SAPI  H15R21365   3.613   2.022   8.928 -0.7118 -0.4092 -0.2205
  186SAPI  C21621366   3.763   1.870   8.893  0.3576 -0.5201 -0.5345
  186SAPI  H16R21367   3.793   1.776   8.945 -0.1060  0.2017  1.0965
  186SAPI  H16S21368   3.853   1.930   8.872  0.8980 -0.1009  2.4895
  186SAPI  C21721369   3.704   1.833   8.756 -0.3011 -0.5053 -0.1597
  186SAPI  H17R21370   3.606   1.783   8.770  0.6859 -2.6221 -0.3499
  186SAPI  H17S21371   3.770   1.756   8.710 -1.5167 -1.7897  0.1675
  186SAPI  C21821372   3.687   1.954   8.660  0.5760  0.3649  0.3272
  186SAPI  H18R21373   3.783   1.995   8.622 -0.2412  0.1437 -2.1605
  186SAPI  H18S21374   3.627   2.037   8.704  0.0339 -0.1898  0.6512
  186SAPI  C21921375   3.614   1.894   8.541 -0.4722 -0.6421  0.4338
  186SAPI  H19R21376   3.514   1.863   8.580  0.2190 -0.1287  2.7713
  186SAPI  H19S21377   3.672   1.808   8.499  2.6749  0.8985  1.3464
  186SAPI  C22021378   3.588   2.005   8.439 -0.6206 -0.1104 -0.0619
  186SAPI  H20R21379   3.674   2.066   8.406 -0.4259  0.8354  2.0115
  186SAPI  H20S21380   3.515   2.075   8.484  0.8315  1.4249 -0.0168
  186SAPI  H20T21381   3.536   1.960   8.352  1.7261 -0.7564 -1.2197
  186SAPI   C3321382   4.159   1.837   9.857 -0.3982  0.2475 -1.0664
  186SAPI   H3X21383   4.270   1.832   9.856 -0.4512 -1.9384 -2.0653
  186SAPI   H3Y21384   4.125   1.942   9.851 -0.7479  0.2704  0.6791
  186SAPI   C3421385   4.128   1.758   9.732  1.3218 -0.0810  0.0723
  186SAPI   H4X21386   4.018   1.754   9.716  1.3640  0.3977 -0.3609
  186SAPI   H4Y21387   4.171   1.658   9.754 -1.2890 -0.9606  1.6034
  186SAPI   C3521388   4.180   1.815   9.600  0.1629  0.0884  0.0481
  186SAPI   H5X21389   4.288   1.841   9.597 -0.1994  1.5649 -2.5197
  186SAPI   H5Y21390   4.130   1.914   9.589  1.3097  0.6603 -0.1092
  186SAPI   C3621391   4.138   1.727   9.482 -0.0925 -0.2517  0.1107
  186SAPI   H6X21392   4.029   1.705   9.489 -0.0832  0.1594  2.8242
  186SAPI   H6Y21393   4.202   1.636   9.480  1.1975  0.6200  0.4610
  186SAPI   C3721394   4.156   1.801   9.342  0.3922  0.2502 -0.2812
  186SAPI   H7X21395   4.264   1.827   9.332  0.6192 -1.1273 -1.9429
  186SAPI   H7Y21396   4.094   1.893   9.340 -1.7717 -1.1580 -1.5635
  186SAPI   C3821397   4.106   1.713   9.222 -0.0704 -0.4472  0.2049
  186SAPI   H8X21398   4.008   1.675   9.260  0.9434 -0.0868  3.4849
  186SAPI   H8Y21399   4.178   1.629   9.219  0.3005 -0.1489  0.6323
  186SAPI   C3921400   4.101   1.780   9.087  0.5228 -0.2839  0.1378
  186SAPI   H9X21401   4.044   1.875   9.101 -0.3594 -0.8429  0.3980
  186SAPI   H9Y21402   4.047   1.717   9.014  0.2844  2.7031 -2.5195
  186SAPI  C31021403   4.235   1.826   9.035 -0.3507 -1.2046 -0.0277
  186SAPI  H10X21404   4.302   1.740   9.016  0.8780 -0.2942  0.0804
  186SAPI  H10Y21405   4.286   1.892   9.108  1.1185 -0.7861 -1.3735
  186SAPI  C31121406   4.231   1.896   8.896  0.1199 -0.4843 -0.5267
  186SAPI  H11X21407   4.192   1.815   8.831  3.2906 -1.9040 -0.8485
  186SAPI  H11Y21408   4.336   1.920   8.873  0.0819 -0.0264 -0.2509
  186SAPI  C31221409   4.149   2.024   8.895  0.3656 -0.1647 -0.6138
  186SAPI  H12X21410   4.185   2.084   8.981 -0.0797 -1.3131  0.4017
  186SAPI  H12Y21411   4.040   2.006   8.907  0.8857 -2.9753  0.9553
  186SAPI  C31321412   4.165   2.106   8.765 -0.2535  0.5730 -0.5812
  186SAPI  H13X21413   4.262   2.086   8.715  0.3112  1.6573  0.0200
  186SAPI  H13Y21414   4.158   2.212   8.798 -3.1893  0.2574  0.1037
  186SAPI  C31421415   4.064   2.078   8.652 -0.3196  1.1480 -0.3083
  186SAPI  H14X21416   3.967   2.126   8.677  0.3145  1.7786  1.0585
  186SAPI  H14Y21417   4.062   1.967   8.652 -0.8047  1.0420  3.0431
  186SAPI  C31521418   4.109   2.138   8.523  0.0964  0.3279 -0.1508
  186SAPI  H15X21419   4.208   2.104   8.488 -0.9780 -3.2051 -0.1472
  186SAPI  H15Y21420   4.113   2.247   8.545 -2.5701  0.4287  0.2208
  186SAPI  C31621421   4.009   2.106   8.409  0.1825 -0.1539 -0.0828
  186SAPI  H16X21422   3.910   2.126   8.456 -0.8857 -2.4734 -1.1964
  186SAPI  H16Y21423   4.007   2.000   8.378  0.0821 -0.5385  1.2114
  186SAPI  C31721424   4.038   2.195   8.290 -0.1945  0.1215 -0.0201
  186SAPI  H17X21425   4.142   2.166   8.262 -0.0734  1.2928 -0.8752
  186SAPI  H17Y21426   4.054   2.300   8.324  0.2618 -0.1729  0.7011
  186SAPI  C31821427   3.944   2.183   8.173  0.3985 -0.6824  0.5223
  186SAPI  H18X21428   3.927   2.076   8.148  2.6869 -0.6564 -1.4638
  186SAPI  H18Y21429   3.994   2.234   8.088  1.0743  0.8513  1.7958
  186SAPI  H18Z21430   3.851   2.239   8.198  1.3403  1.7255 -1.0067
  187SAPI   C1221431   4.432   2.769   6.007 -0.1671  0.7357  0.2554
  187SAPI    H221432   4.325   2.742   6.014 -0.2312  0.2508 -1.9168
  187SAPI    O221433   4.502   2.658   5.937 -0.0300 -0.1512  0.8748
  187SAPI   HO221434   4.489   2.583   5.996 -0.3251 -0.2599  0.6756
  187SAPI   C1321435   4.445   2.900   5.935 -0.3786 -0.4834  0.4843
  187SAPI    H321436   4.394   2.974   6.001  1.0541  0.1473  0.9192
  187SAPI    O321437   4.394   2.903   5.801  0.1142  0.2844  0.0064
  187SAPI   HO321438   4.430   2.829   5.751 -0.0352  0.1486  0.1013
  187SAPI   C1421439   4.592   2.946   5.946 -0.2864 -0.9144 -0.0408
  187SAPI    H421440   4.659   2.866   5.907 -0.1588 -2.0095  2.3072
  187SAPI    O421441   4.616   3.065   5.865 -0.5763 -0.1507  0.1162
  187SAPI   HO421442   4.632   3.037   5.775  0.4524 -3.4277  1.1589
  187SAPI   C1521443   4.635   2.971   6.089 -0.1795 -0.1352  0.8912
  187SAPI    H521444   4.559   3.043   6.125  0.9424  1.4925  0.1262
  187SAPI    O521445   4.759   3.038   6.110 -0.2525  0.4718 -0.0559
  187SAPI   HO521446   4.744   3.117   6.163 -0.7428  0.4451 -0.1477
  187SAPI   C1621447   4.618   2.843   6.170  0.3845  0.1099 -0.5400
  187SAPI    H621448   4.688   2.761   6.142  0.3551 -0.3718  0.7297
  187SAPI    O621449   4.648   2.869   6.306 -0.9212 -0.1217 -0.7061
  187SAPI   HO621450   4.743   2.858   6.318 -0.8331  1.9259  1.0698
  187SAPI   C1121451   4.477   2.782   6.155 -0.4333 -0.9337 -0.2170
  187SAPI    H121452   4.418   2.861   6.207  1.3347  0.0110  0.4128
  187SAPI     P21453   4.357   2.603   6.320 -0.3522  0.5887  0.5303
  187SAPI   O1321454   4.360   2.451   6.322 -0.1504 -0.4104  0.0402
  187SAPI   O1421455   4.229   2.672   6.283  0.1328  0.6301 -0.1887
  187SAPI   O1221456   4.477   2.653   6.222  0.2127 -0.3441 -0.0237
  187SAPI   O1121457   4.407   2.665   6.458 -0.0481 -0.3201 -0.2584
  187SAPI    C121458   4.540   2.648   6.503 -0.2098 -0.6111  0.3804
  187SAPI    HA21459   4.609   2.617   6.421 -0.1044 -1.8300  0.9031
  187SAPI    HB21460   4.582   2.745   6.538  0.0982 -0.8777  0.7665
  187SAPI    C221461   4.546   2.556   6.626  0.1457 -0.4007  0.1234
  187SAPI    HS21462   4.494   2.460   6.603 -1.7052  0.1594  1.6898
  187SAPI   O2121463   4.486   2.627   6.732 -0.3080  0.1011  0.3262
  187SAPI   C2121464   4.360   2.586   6.770 -0.3392 -0.4832  0.1736
  187SAPI   O2221465   4.299   2.490   6.728  0.3265  0.1914 -0.2119
  187SAPI   C2221466   4.318   2.671   6.885 -1.5184 -0.7846 -0.3517
  187SAPI   H2R21467   4.406   2.691   6.949 -1.9934  0.5683 -0.0929
  187SAPI   H2S21468   4.287   2.768   6.841  2.3978  0.3323 -0.9862
  187SAPI    C321469   4.696   2.508   6.645 -0.5922  0.3969  0.0427
  187SAPI    HX21470   4.750   2.605   6.655 -0.5875  0.4973 -0.8539
  187SAPI    HY21471   4.731   2.452   6.555  1.4685 -2.2814  2.3269
  187SAPI   O3121472   4.702   2.433   6.763 -0.1416  0.1844  0.3225
  187SAPI   C3121473   4.681   2.302   6.751  0.0267 -0.0945  0.1764
  187SAPI   O3221474   4.681   2.238   6.647  0.0286  0.1878 -0.1057
  187SAPI   C3221475   4.670   2.238   6.887  0.0228 -0.0678 -0.5077
  187SAPI   H2X21476   4.773   2.242   6.929 -0.1006 -1.3161 -0.0528
  187SAPI   H2Y21477   4.654   2.129   6.875  0.2262 -0.1863  0.2143
  187SAPI   C2321478   4.198   2.619   6.966  0.6402 -0.7996 -0.2056
  187SAPI   H3R21479   4.111   2.604   6.898 -0.6426 -2.1207  1.6329
  187SAPI   H3S21480   4.173   2.698   7.040  1.6556 -0.6080 -0.0522
  187SAPI   C2421481   4.220   2.485   7.041 -0.4400  0.3077  0.0895
  187SAPI   H4R21482   4.288   2.522   7.121 -2.0863  1.0477  1.2276
  187SAPI   H4S21483   4.266   2.403   6.982  0.5044  0.4274  0.6485
  187SAPI   C2521484   4.097   2.435   7.104  0.0298  0.4110  0.4768
  187SAPI   H5R21485   4.058   2.340   7.066 -0.0548 -0.1325  1.8484
  187SAPI   C2621486   4.039   2.491   7.207 -0.0378  0.2963 -0.0820
  187SAPI   H6R21487   3.946   2.445   7.245 -0.2525  1.8670  1.4479
  187SAPI   C2721488   4.089   2.615   7.284  0.0421 -0.0007  0.0557
  187SAPI   H7R21489   4.055   2.711   7.241  0.9105 -0.4027 -1.6256
  187SAPI   H7S21490   4.199   2.612   7.303  0.4066 -0.0262 -1.8908
  187SAPI   C2821491   4.037   2.612   7.427  0.1360  0.2402 -0.4928
  187SAPI   H8R21492   4.004   2.513   7.460 -1.6206 -0.0805 -2.9044
  187SAPI   C2921493   4.056   2.708   7.526  0.8258  0.2989  0.2252
  187SAPI   H9R21494   4.020   2.691   7.629 -1.9629 -2.5298 -1.0506
  187SAPI  C21021495   4.106   2.848   7.506 -0.1680 -0.2868 -0.3006
  187SAPI  H10R21496   4.022   2.920   7.524  1.2499  2.0697 -2.5055
  187SAPI  H10S21497   4.131   2.874   7.401 -0.6421  1.8166  0.0515
  187SAPI  C21121498   4.227   2.868   7.600  1.0176 -1.1562  0.0778
  187SAPI  H11R21499   4.325   2.831   7.567  1.2192  1.0094 -2.0255
  187SAPI  C21221500   4.220   2.947   7.710  1.1465 -0.3206 -0.1599
  187SAPI  H12R21501   4.310   2.955   7.773 -0.7586  2.5438  2.4857
  187SAPI  C21321502   4.100   3.025   7.758  0.4852 -0.3509 -0.7025
  187SAPI  H13R21503   4.000   2.976   7.764  0.5484 -0.4264 -0.1585
  187SAPI  H13S21504   4.087   3.103   7.680  3.3251 -0.5737 -1.4838
  187SAPI  C21421505   4.120   3.097   7.892  0.0949  0.0259 -0.3500
  187SAPI  H14R21506   4.111   3.207   7.888 -1.4223 -0.0610  0.1175
  187SAPI  C21521507   4.141   3.042   8.015 -0.0054 -0.4176  0.0202
  187SAPI  H15R21508   4.161   3.109   8.100  1.8935  0.9789 -1.4479
  187SAPI  C21621509   4.154   2.896   8.051 -0.4461 -0.4293 -0.0256
  187SAPI  H16R21510   4.238   2.879   8.122  0.2860 -1.6030 -1.1269
  187SAPI  H16S21511   4.181   2.834   7.963 -0.8734 -0.2807 -0.2649
  187SAPI  C21721512   4.024   2.849   8.115 -0.2819  0.0817  0.6636
  187SAPI  H17R21513   3.981   2.928   8.180  2.4454  1.2200  1.2181
  187SAPI  H17S21514   4.055   2.765   8.180  2.4506  1.4539  1.2718
  187SAPI  C21821515   3.913   2.801   8.015  0.4997 -0.1170 -0.5003
  187SAPI  H18R21516   3.956   2.736   7.936  1.9220  0.2726 -0.0778
  187SAPI  H18S21517   3.876   2.891   7.962  0.5280 -0.9296 -1.9759
  187SAPI  C21921518   3.789   2.732   8.075  0.2757  0.0181  0.0219
  187SAPI  H19R21519   3.822   2.635   8.117  0.6809  0.6188  1.1503
  187SAPI  H19S21520   3.711   2.716   7.998  0.1592 -1.6421  0.4524
  187SAPI  C22021521   3.715   2.819   8.183  0.4296 -0.0430 -0.1795
  187SAPI  H20R21522   3.777   2.853   8.269  0.6927 -0.8784 -0.0323
  187SAPI  H20S21523   3.621   2.772   8.216 -0.4021  0.5170 -1.6419
  187SAPI  H20T21524   3.687   2.904   8.117  2.3482  1.2319  0.5463
  187SAPI   C3321525   4.566   2.297   6.990  0.0329  0.2801  0.5075
  187SAPI   H3X21526   4.463   2.272   6.956 -0.2606  1.8997  0.1211
  187SAPI   H3Y21527   4.585   2.406   6.989 -0.8665  0.4375 -0.1610
  187SAPI   C3421528   4.591   2.237   7.127  0.1172 -1.1983  0.6741
  187SAPI   H4X21529   4.688   2.278   7.163 -1.1310  2.6773  0.0746
  187SAPI   H4Y21530   4.595   2.126   7.119 -0.0510 -1.0951 -1.4414
  187SAPI   C3521531   4.489   2.284   7.232  0.2535 -0.0193  0.0919
  187SAPI   H5X21532   4.392   2.262   7.183  0.8583 -0.2789 -1.0330
  187SAPI   H5Y21533   4.501   2.394   7.242 -1.2813  0.0814  1.1275
  187SAPI   C3621534   4.478   2.214   7.370  0.3145  0.6740 -0.3271
  187SAPI   H6X21535   4.547   2.251   7.449 -1.5930 -0.8948  2.2219
  187SAPI   H6Y21536   4.506   2.108   7.354 -3.5379 -0.6944  0.8062
  187SAPI   C3721537   4.341   2.216   7.441  0.1766  1.0566  0.3307
  187SAPI   H7X21538   4.340   2.142   7.524  0.7721 -2.7014 -2.7346
  187SAPI   H7Y21539   4.274   2.180   7.359 -0.7406 -0.9959  1.8791
  187SAPI   C3821540   4.288   2.357   7.475 -0.1551 -0.1091  0.4825
  187SAPI   H8X21541   4.181   2.369   7.450  0.3274 -0.1119 -1.7787
  187SAPI   H8Y21542   4.330   2.434   7.406 -0.1266  0.1594  0.7920
  187SAPI   C3921543   4.319   2.415   7.616 -0.0783  0.3793 -0.2662
  187SAPI   H9X21544   4.262   2.510   7.624 -1.1756 -0.2527 -0.3325
  187SAPI   H9Y21545   4.429   2.423   7.626  0.1294 -2.1066  0.1547
  187SAPI  C31021546   4.268   2.323   7.734 -0.2447 -0.4136 -0.6596
  187SAPI  H10X21547   4.312   2.222   7.723 -2.2123 -1.2359 -1.4788
  187SAPI  H10Y21548   4.159   2.319   7.712 -0.5245  2.1464 -0.0537
  187SAPI  C31121549   4.300   2.377   7.871  0.7944  0.1897 -0.2431
  187SAPI  H11X21550   4.404   2.414   7.879  1.0716 -0.7202  0.4974
  187SAPI  H11Y21551   4.285   2.293   7.941  0.2786  0.4095 -0.0864
  187SAPI  C31221552   4.205   2.492   7.917  0.2645 -0.0422 -0.5425
  187SAPI  H12X21553   4.099   2.459   7.912  0.1568 -0.2269  1.8652
  187SAPI  H12Y21554   4.230   2.566   7.837  0.4632 -0.1016 -0.5359
  187SAPI  C31321555   4.230   2.536   8.060 -0.5409  0.1605  0.6853
  187SAPI  H13X21556   4.200   2.453   8.127 -2.2824  1.2055  1.2652
  187SAPI  H13Y21557   4.153   2.612   8.085 -1.8998 -0.8294 -0.3092
  187SAPI  C31421558   4.369   2.586   8.086  0.4904 -0.3062 -0.3997
  187SAPI  H14X21559   4.389   2.682   8.034  2.4549 -0.4538  0.0218
  187SAPI  H14Y21560   4.448   2.512   8.062 -0.8040 -1.4376 -1.3737
  187SAPI  C31521561   4.369   2.630   8.234 -0.2482 -0.0992  0.2855
  187SAPI  H15X21562   4.362   2.529   8.278 -0.7368 -1.4793 -2.6661
  187SAPI  H15Y21563   4.277   2.689   8.253 -0.5919 -0.7248  0.5863
  187SAPI  C31621564   4.498   2.699   8.284  0.1787  0.2615  0.3820
  187SAPI  H16X21565   4.504   2.793   8.225 -1.7177  1.3739  1.8197
  187SAPI  H16Y21566   4.580   2.625   8.277  0.6100  0.7332  0.3891
  187SAPI  C31721567   4.483   2.739   8.438 -0.8342 -0.3035  0.2995
  187SAPI  H17X21568   4.590   2.750   8.465 -0.9822  2.3821  0.1039
  187SAPI  H17Y21569   4.436   2.652   8.488 -2.2126  0.6225  0.6719
  187SAPI  C31821570   4.418   2.878   8.455  0.1435 -0.1132 -0.3846
  187SAPI  H18X21571   4.475   2.960   8.407  0.0187 -0.6105 -1.4077
  187SAPI  H18Y21572   4.399   2.891   8.564  1.3807  1.7251 -0.3407
  187SAPI  H18Z21573   4.326   2.883   8.393  0.1586 -3.0341 -0.7897
  188SAPI   C1221574   5.627   1.163   6.465  0.0063  0.6796  0.7253
  188SAPI    H221575   5.680   1.118   6.552  0.3581  2.4426  1.4789
  188SAPI    O221576   5.486   1.139   6.478 -0.3211 -0.0143  0.1065
  188SAPI   HO221577   5.459   1.063   6.426 -1.4141  0.5240 -0.1397
  188SAPI   C1321578   5.658   1.305   6.476  0.2296 -0.4368  0.0722
  188SAPI    H321579   5.766   1.331   6.472 -0.2652  1.7760 -0.5637
  188SAPI    O321580   5.611   1.350   6.601  0.3200 -0.0246 -0.3401
  188SAPI   HO321581   5.517   1.331   6.600 -0.3391  2.8043  0.7259
  188SAPI   C1421582   5.602   1.379   6.356  0.5742 -0.7048  0.0212
  188SAPI    H421583   5.494   1.354   6.345  0.5230 -2.1724  2.8247
  188SAPI    O421584   5.635   1.514   6.388 -0.0798  1.2587  0.2688
  188SAPI   HO421585   5.730   1.518   6.398 -0.1676  1.1156  1.2143
  188SAPI   C1521586   5.671   1.329   6.222 -0.3375  0.2763  0.1062
  188SAPI    H521587   5.781   1.342   6.236 -0.3256  0.2190  0.0669
  188SAPI    O521588   5.631   1.408   6.107 -0.1881  0.0002  0.4599
  188SAPI   HO521589   5.713   1.432   6.063  0.7342 -1.3427  1.3846
  188SAPI   C1621590   5.638   1.179   6.208  0.3789 -0.0980 -0.3343
  188SAPI    H621591   5.528   1.178   6.193  0.4417  1.1791 -0.9647
  188SAPI    O621592   5.700   1.120   6.094 -0.3936 -0.2377  0.1456
  188SAPI   HO621593   5.757   1.054   6.134  0.9107  0.3703 -0.6483
  188SAPI   C1121594   5.689   1.112   6.332  0.3869 -0.0580  0.8773
  188SAPI    H121595   5.799   1.121   6.335  0.5575 -1.5507  0.0958
  188SAPI     P21596   5.751   0.847   6.278 -0.0347  0.1219 -0.0053
  188SAPI   O1321597   5.849   0.911   6.185 -0.0969  0.2494  0.3986
  188SAPI   O1421598   5.667   0.745   6.225  0.3517 -0.4338  0.6432
  188SAPI   O1221599   5.653   0.972   6.325  0.2985 -0.0267  0.0064
  188SAPI   O1121600   5.825   0.807   6.411  0.0070  0.2279 -0.2862
  188SAPI    C121601   5.757   0.790   6.540 -0.1226  0.2873  0.0143
  188SAPI    HA21602   5.830   0.818   6.619  1.0418 -0.9641 -0.5946
  188SAPI    HB21603   5.665   0.853   6.549  0.7297  1.4655  0.8050
  188SAPI    C221604   5.710   0.645   6.563 -0.1981  0.8271 -0.4836
  188SAPI    HS21605   5.644   0.621   6.477  0.1058  4.3689 -1.8988
  188SAPI   O2121606   5.641   0.643   6.685  0.0707 -0.8841  0.3792
  188SAPI   C2121607   5.578   0.526   6.713 -0.1302 -0.1802 -0.1823
  188SAPI   O2221608   5.567   0.438   6.630  0.9763 -0.2866 -0.5484
  188SAPI   C2221609   5.534   0.520   6.857 -0.5414  0.3480  0.3750
  188SAPI   H2R21610   5.423   0.520   6.855 -0.6476 -2.7289  0.0505
  188SAPI   H2S21611   5.550   0.420   6.903 -2.3093 -0.6687 -1.0593
  188SAPI    C321612   5.830   0.546   6.563 -0.8237  0.2459 -0.1947
  188SAPI    HX21613   5.877   0.537   6.463  0.0865 -2.0126  0.3767
  188SAPI    HY21614   5.794   0.444   6.589 -1.4858 -0.6377 -3.9451
  188SAPI   O3121615   5.935   0.598   6.652 -0.4469  0.0341  0.0744
  188SAPI   C3121616   5.942   0.537   6.767  0.0530  0.5561 -0.2047
  188SAPI   O3221617   5.872   0.446   6.805  0.2262 -0.0362 -0.2862
  188SAPI   C3221618   6.053   0.608   6.844  0.1365  0.1096 -1.2626
  188SAPI   H2X21619   6.044   0.718   6.833  1.8775  0.2524 -1.4631
  188SAPI   H2Y21620   6.151   0.574   6.806  0.7975 -0.2777  0.6802
  188SAPI   C2321621   5.584   0.633   6.946 -0.5407 -0.0546  0.0594
  188SAPI   H3R21622   5.548   0.729   6.903  1.3356 -0.3801 -2.4247
  188SAPI   H3S21623   5.693   0.651   6.943 -0.1806 -1.0528  3.5859
  188SAPI   C2421624   5.524   0.624   7.086 -0.4092 -0.3839  0.0046
  188SAPI   H4R21625   5.533   0.518   7.119 -0.1505 -1.2489 -2.6071
  188SAPI   H4S21626   5.416   0.650   7.084 -0.2303  0.6162  1.4459
  188SAPI   C2521627   5.597   0.708   7.185  0.6155 -0.1620  1.3276
  188SAPI   H5R21628   5.683   0.657   7.229  0.3912 -1.1023  0.6969
  188SAPI   C2621629   5.551   0.816   7.244 -0.2018  0.6111  0.0064
  188SAPI   H6R21630   5.624   0.864   7.310  2.9608 -1.0364 -2.0129
  188SAPI   C2721631   5.417   0.884   7.218 -0.4113 -0.4048 -0.4209
  188SAPI   H7R21632   5.358   0.835   7.299  2.0340  0.6741  2.2188
  188SAPI   H7S21633   5.390   0.861   7.113  3.0630 -1.0403 -1.3295
  188SAPI   C2821634   5.411   1.033   7.246 -0.2307 -0.1008 -0.8115
  188SAPI   H8R21635   5.397   1.092   7.154  2.1088  1.3850 -0.2962
  188SAPI   C2921636   5.430   1.110   7.362 -0.0024 -0.5565  0.4053
  188SAPI   H9R21637   5.415   1.219   7.360  0.6565 -0.4378  1.2595
  188SAPI  C21021638   5.469   1.069   7.504 -0.3354 -0.3421 -0.0511
  188SAPI  H10R21639   5.563   1.114   7.542 -1.0118  1.9792 -0.9780
  188SAPI  H10S21640   5.479   0.958   7.499 -2.6111 -0.5199 -3.1595
  188SAPI  C21121641   5.362   1.113   7.603 -0.1115 -1.1459  0.4565
  188SAPI  H11R21642   5.303   1.204   7.586 -1.7328 -2.0598  0.9575
  188SAPI  C21221643   5.336   1.054   7.720  0.4074  0.2031 -0.1744
  188SAPI  H12R21644   5.248   1.096   7.770  1.6881  2.9463 -0.0547
  188SAPI  C21321645   5.400   0.937   7.784  0.0346 -0.9977 -0.4793
  188SAPI  H13R21646   5.454   0.869   7.715  0.6868 -1.9630  0.9672
  188SAPI  H13S21647   5.318   0.870   7.817  1.3633 -2.8395 -0.7624
  188SAPI  C21421648   5.496   0.980   7.892 -0.3686  0.3718 -0.3024
  188SAPI  H14R21649   5.581   1.045   7.868  0.5916  0.7629  3.5793
  188SAPI  C21521650   5.493   0.930   8.020  0.2730 -0.3333 -0.3360
  188SAPI  H15R21651   5.575   0.966   8.084  1.6079 -0.6616 -1.7980
  188SAPI  C21621652   5.403   0.826   8.080  0.4786 -0.1932  0.2839
  188SAPI  H16R21653   5.439   0.722   8.094  0.0853 -0.2686  0.7884
  188SAPI  H16S21654   5.322   0.817   8.004  1.2909  3.8191 -1.2857
  188SAPI  C21721655   5.358   0.860   8.221  0.0779  0.3723 -0.0175
  188SAPI  H17R21656   5.283   0.941   8.220 -0.4434  0.0242  2.5128
  188SAPI  H17S21657   5.444   0.886   8.288  0.6490  1.1205 -1.0161
  188SAPI  C21821658   5.291   0.740   8.297 -0.3167 -1.5339  0.2138
  188SAPI  H18R21659   5.221   0.685   8.230  0.2914 -0.0224 -1.7664
  188SAPI  H18S21660   5.223   0.783   8.373  2.4943  0.5129  1.7478
  188SAPI  C21921661   5.385   0.634   8.357  0.0254  0.2113 -0.0435
  188SAPI  H19R21662   5.443   0.586   8.275 -2.3546 -1.3454 -0.9571
  188SAPI  H19S21663   5.322   0.558   8.408  0.9269 -0.5841 -0.0922
  188SAPI  C22021664   5.484   0.690   8.463  0.3393  0.2343 -0.2962
  188SAPI  H20R21665   5.565   0.615   8.476  0.3248  0.1790 -0.5132
  188SAPI  H20S21666   5.435   0.707   8.561  1.8853 -3.0921  1.2233
  188SAPI  H20T21667   5.529   0.785   8.428  2.7485 -1.3382 -1.7870
  188SAPI   C3321668   6.051   0.552   6.996  0.0711 -0.5483  0.6737
  188SAPI   H3X21669   6.034   0.442   6.995  0.0402 -0.5780 -2.1103
  188SAPI   H3Y21670   5.971   0.602   7.054  0.6357 -0.2076  1.1797
  188SAPI   C3421671   6.184   0.573   7.057  1.0026 -0.2864 -0.5285
  188SAPI   H4X21672   6.265   0.517   7.004  3.0994  1.2766  0.8524
  188SAPI   H4Y21673   6.175   0.525   7.157 -1.7522 -1.0509 -1.0591
  188SAPI   C3521674   6.226   0.716   7.060 -0.0171 -0.0293 -0.4737
  188SAPI   H5X21675   6.132   0.770   7.087  0.3887  0.5650 -0.2278
  188SAPI   H5Y21676   6.250   0.736   6.953  1.9684 -1.9774 -0.4600
  188SAPI   C3621677   6.358   0.757   7.139  0.5880  0.7533  0.2395
  188SAPI   H6X21678   6.444   0.717   7.081 -1.2681 -1.3247 -1.2602
  188SAPI   H6Y21679   6.357   0.701   7.235  3.7837 -1.7730 -0.9927
  188SAPI   C3721680   6.369   0.910   7.160 -0.3517  0.0167 -0.8010
  188SAPI   H7X21681   6.270   0.956   7.178  0.8459  2.5270 -0.1894
  188SAPI   H7Y21682   6.392   0.965   7.067 -1.1276  0.9210 -0.4824
  188SAPI   C3821683   6.481   0.952   7.263  0.1660  0.7971 -0.4766
  188SAPI   H8X21684   6.509   1.056   7.235  3.7905  0.0661 -0.0329
  188SAPI   H8Y21685   6.566   0.885   7.238 -0.4941 -0.7451  1.1802
  188SAPI   C3921686   6.430   0.952   7.404  0.3436 -0.6273 -0.1252
  188SAPI   H9X21687   6.383   0.857   7.437  2.9390 -1.1340  2.5836
  188SAPI   H9Y21688   6.350   1.028   7.417  0.3982 -0.7013  0.6613
  188SAPI  C31021689   6.535   0.981   7.509  0.8143 -0.4605  0.1870
  188SAPI  H10X21690   6.574   1.083   7.487 -0.0067  0.0595  1.0416
  188SAPI  H10Y21691   6.622   0.913   7.505  1.3718  0.2802 -3.0985
  188SAPI  C31121692   6.476   0.976   7.651 -0.1371  0.7071 -0.0276
  188SAPI  H11X21693   6.426   0.879   7.669  3.5379 -1.7304 -1.8142
  188SAPI  H11Y21694   6.406   1.062   7.649  0.4796  1.2076 -0.6433
  188SAPI  C31221695   6.569   1.008   7.774 -0.3626  0.0521 -0.2943
  188SAPI  H12X21696   6.628   1.102   7.769 -2.6235  1.5428 -0.9053
  188SAPI  H12Y21697   6.637   0.921   7.767  0.4890  0.7345 -0.7383
  188SAPI  C31321698   6.499   0.984   7.909 -0.6825  0.2879 -0.0231
  188SAPI  H13X21699   6.574   0.964   7.989 -0.3237 -0.2649 -0.4928
  188SAPI  H13Y21700   6.447   0.886   7.905 -0.5130  0.2416 -1.8372
  188SAPI  C31421701   6.389   1.089   7.938  0.2792  0.5052  0.1386
  188SAPI  H14X21702   6.318   1.091   7.852  1.5548 -0.1183 -0.9559
  188SAPI  H14Y21703   6.431   1.191   7.926  0.3514  0.1734 -3.5373
  188SAPI  C31521704   6.315   1.063   8.064  0.5489  0.6660  0.5361
  188SAPI  H15X21705   6.273   0.960   8.063  0.5217  0.6750  0.6891
  188SAPI  H15Y21706   6.227   1.131   8.067 -1.4711 -1.6035 -1.9994
  188SAPI  C31621707   6.396   1.072   8.193 -0.6846 -0.4684 -0.2283
  188SAPI  H16X21708   6.456   1.165   8.184 -2.6345  0.8920  0.1097
  188SAPI  H16Y21709   6.468   0.991   8.220 -2.5208 -2.2341 -0.4073
  188SAPI  C31721710   6.315   1.085   8.327 -0.4776 -0.4848  0.8966
  188SAPI  H17X21711   6.250   1.174   8.339  0.9199  0.9240 -1.3717
  188SAPI  H17Y21712   6.386   1.097   8.412 -0.6318 -3.0941  1.4906
  188SAPI  C31821713   6.233   0.957   8.348 -0.3836 -0.0475 -0.3482
  188SAPI  H18X21714   6.134   0.952   8.299 -0.1270  2.4190 -1.2405
  188SAPI  H18Y21715   6.220   0.945   8.458  0.7592  1.7534  0.0227
  188SAPI  H18Z21716   6.300   0.874   8.316  1.0008  0.8413  0.1375
  189POPC     N21717   2.407   1.100  11.199  0.3059 -0.2374 -0.2218
  189POPC   C1221718   2.404   1.121  11.056  0.4013 -0.0021  0.3385
  189POPC  H12A21719   2.318   1.182  11.033  0.5897 -0.4806 -1.8624
  189POPC  H12B21720   2.382   1.027  11.008  1.0919 -0.8882  1.6777
  189POPC   C1321721   2.547   1.046  11.231 -0.4023 -0.4179 -0.4263
  189POPC  H13A21722   2.621   1.100  11.173 -1.3148 -0.9995 -2.2105
  189POPC  H13B21723   2.568   1.058  11.336 -0.3513 -1.7198 -0.2693
  189POPC  H13C21724   2.550   0.943  11.198 -0.5191 -0.8332  0.8252
  189POPC   C1421725   2.386   1.225  11.278 -0.2073  0.2493  0.4441
  189POPC  H14A21726   2.475   1.285  11.266 -1.4371  2.0399 -0.2850
  189POPC  H14B21727   2.300   1.285  11.250 -0.1674  0.0918 -0.0201
  189POPC  H14C21728   2.397   1.200  11.382  1.3508  2.0922  0.7819
  189POPC   C1521729   2.299   1.003  11.251  0.0741 -0.0278 -0.3733
  189POPC  H15A21730   2.197   1.032  11.227 -0.1699 -0.3925  0.2108
  189POPC  H15B21731   2.298   1.005  11.359  2.4559  1.9803 -0.3293
  189POPC  H15C21732   2.319   0.906  11.208 -1.2043 -0.8255  0.7308
  189POPC   C1121733   2.525   1.186  10.967  0.3023 -0.4727  0.3203
  189POPC  H11A21734   2.561   1.273  11.026  0.2707 -0.1648 -0.1076
  189POPC  H11B21735   2.483   1.213  10.868 -2.1706  0.5005  1.5614
  189POPC     P21736   2.633   0.994  10.832 -0.2857  0.6015  0.1587
  189POPC   O1321737   2.502   0.925  10.820  0.2658 -0.4422  0.0788
  189POPC   O1421738   2.757   0.917  10.838  0.5091 -0.5980 -0.0166
  189POPC   O1221739   2.630   1.093  10.951 -0.6008 -0.4785 -0.0799
  189POPC   O1121740   2.638   1.098  10.710  0.1889 -0.0519 -0.2296
  189POPC    C121741   2.734   1.199  10.718  0.1016  0.0328  0.7309
  189POPC    HA21742   2.822   1.175  10.782 -0.2049  1.6265  1.8182
  189POPC    HB21743   2.690   1.290  10.765 -0.1451  0.7321 -0.7973
  189POPC    C221744   2.779   1.250  10.573  0.2746  0.5814  0.4943
  189POPC    HS21745   2.841   1.341  10.580  1.0560 -0.0185  1.5212
  189POPC   O2121746   2.649   1.258  10.496 -0.6351  0.5826  0.0773
  189POPC   C2121747   2.575   1.360  10.534 -0.6133 -0.2960  0.0038
  189POPC   O2221748   2.604   1.452  10.603  0.8104 -0.6981 -0.8429
  189POPC   C2221749   2.443   1.342  10.466 -0.0770  0.2584  0.2884
  189POPC   H2R21750   2.394   1.442  10.472  0.1426  0.3588  0.4498
  189POPC   H2S21751   2.382   1.273  10.528 -1.1463 -0.0390 -1.0578
  189POPC    C321752   2.878   1.156  10.496 -0.2502 -0.5776  1.1279
  189POPC    HX21753   2.846   1.050  10.510  3.6137 -1.9419  0.8831
  189POPC    HY21754   2.976   1.171  10.546  0.2189  1.5453 -0.3033
  189POPC   O3121755   2.906   1.199  10.362 -0.0167  0.3619 -0.3266
  189POPC   C3121756   2.839   1.137  10.257  1.3342  0.5119  0.3132
  189POPC   O3221757   2.754   1.047  10.263 -0.1302  0.3873 -0.0352
  189POPC   C3221758   2.891   1.214  10.131  0.0084  0.6211  0.9971
  189POPC   H2X21759   3.001   1.210  10.143 -0.0958 -1.8373  1.6524
  189POPC   H2Y21760   2.851   1.318  10.135 -0.2935  0.5625 -0.0641
  189POPC   C2321761   2.443   1.291  10.319 -0.7390  0.0750  0.0356
  189POPC   H3R21762   2.347   1.241  10.292 -1.1743  0.7372  0.3397
  189POPC   H3S21763   2.518   1.210  10.307 -0.5042  0.1733  0.8284
  189POPC   C2421764   2.465   1.399  10.211 -0.1918 -0.8256  0.4552
  189POPC   H4R21765   2.570   1.432  10.203 -0.3090 -0.6833 -0.6334
  189POPC   H4S21766   2.407   1.491  10.233 -2.3622 -2.1398  0.5298
  189POPC   C2521767   2.436   1.347  10.069 -0.7688 -0.2883  0.5209
  189POPC   H5R21768   2.327   1.324  10.067 -0.8774  0.1093  1.3359
  189POPC   H5S21769   2.487   1.250  10.051  1.6302  0.9196  0.3923
  189POPC   C2621770   2.480   1.448   9.969 -0.0607  0.3389  0.9497
  189POPC   H6R21771   2.587   1.476   9.983 -0.3514  0.4564  3.3463
  189POPC   H6S21772   2.425   1.545   9.975  0.3331  0.6499 -0.2523
  189POPC   C2721773   2.464   1.392   9.821  0.3977 -0.2357 -0.2330
  189POPC   H7R21774   2.511   1.293   9.808  4.1259  1.4077 -0.6875
  189POPC   H7S21775   2.530   1.446   9.750  0.2555 -0.8545 -0.8446
  189POPC   C2821776   2.323   1.399   9.766  0.1366  0.5243 -0.1430
  189POPC   H8R21777   2.288   1.504   9.777  0.7062  0.7018 -0.0248
  189POPC   H8S21778   2.258   1.332   9.826 -0.8245 -0.5046 -2.2145
  189POPC   C2921779   2.327   1.361   9.620  0.0615  0.4114 -0.7747
  189POPC   H9121780   2.394   1.279   9.589  0.5007  0.5258 -0.1474
  189POPC  C21021781   2.277   1.434   9.520 -0.9005 -0.5871 -0.1018
  189POPC  H10121782   2.282   1.388   9.419  0.7315 -0.0886 -0.2752
  189POPC  C21121783   2.201   1.560   9.524  0.5370 -0.8472 -0.4415
  189POPC  H11R21784   2.177   1.591   9.628 -3.7430  0.8446 -1.7056
  189POPC  H11S21785   2.099   1.552   9.480 -0.5414 -2.5936  2.1382
  189POPC  C21221786   2.285   1.678   9.465 -0.3921  0.1696  0.1871
  189POPC  H12R21787   2.387   1.690   9.507 -0.7625 -1.5238  1.6828
  189POPC  H12S21788   2.226   1.771   9.474 -1.1331 -0.0494 -1.7820
  189POPC  C21321789   2.308   1.644   9.315 -0.5285  0.3331  0.2590
  189POPC  H13R21790   2.215   1.615   9.262 -0.3259 -0.7726  0.4866
  189POPC  H13S21791   2.366   1.550   9.304  0.0294  0.9027 -2.3502
  189POPC  C21421792   2.382   1.755   9.239 -0.2357  0.5872 -0.3374
  189POPC  H14R21793   2.484   1.767   9.282  0.7563  0.8433 -2.5997
  189POPC  H14S21794   2.326   1.846   9.270  0.8908  1.1758  0.0277
  189POPC  C21521795   2.390   1.727   9.092 -0.2110  0.1919  0.0783
  189POPC  H15R21796   2.291   1.704   9.047  1.0602 -0.8336 -2.4005
  189POPC  H15S21797   2.442   1.630   9.082 -0.7114 -0.2070  1.2162
  189POPC  C21621798   2.480   1.834   9.029 -0.1862 -0.0301 -0.2440
  189POPC  H16R21799   2.580   1.826   9.076 -0.0283  0.1511 -0.5448
  189POPC  H16S21800   2.440   1.937   9.044 -0.5523 -0.4112  1.6958
  189POPC  C21721801   2.492   1.805   8.882  0.9158 -0.3089 -0.1050
  189POPC  H17R21802   2.389   1.785   8.848  1.0904  0.4704 -1.1633
  189POPC  H17S21803   2.551   1.711   8.880  1.9143  0.2090  2.0553
  189POPC  C21821804   2.564   1.917   8.805  0.8879 -0.1494  0.4368
  189POPC  H18R21805   2.588   1.895   8.699  2.8061 -0.6469  0.9280
  189POPC  H18S21806   2.661   1.949   8.850  0.5288  1.4716  0.1357
  189POPC  H18T21807   2.502   2.009   8.811  0.0123 -0.6603 -0.4603
  189POPC   C3321808   2.848   1.146  10.000 -0.2907  0.2974 -0.4370
  189POPC   H3X21809   2.742   1.114  10.004  0.1271 -1.2459 -1.0756
  189POPC   H3Y21810   2.911   1.061   9.965 -0.2990  0.4781 -0.9023
  189POPC   C3421811   2.858   1.256   9.888 -0.1108 -0.2588  0.5816
  189POPC   H4X21812   2.956   1.306   9.879  0.0123 -0.4091  1.0649
  189POPC   H4Y21813   2.774   1.324   9.915 -0.4448 -0.2794 -0.3419
  189POPC   C3521814   2.821   1.208   9.738 -0.3278 -0.0834  0.8365
  189POPC   H5X21815   2.735   1.139   9.749 -0.5336  0.0160 -0.0956
  189POPC   H5Y21816   2.902   1.145   9.695 -0.2110 -0.8355  2.0867
  189POPC   C3621817   2.780   1.330   9.658  0.3189  0.3048 -0.3274
  189POPC   H6X21818   2.868   1.390   9.627  0.7616 -0.7853 -1.2389
  189POPC   H6Y21819   2.715   1.389   9.725  0.3420  0.1373 -0.1554
  189POPC   C3721820   2.696   1.300   9.539 -0.2396 -0.0751  0.1022
  189POPC   H7X21821   2.652   1.394   9.498 -0.9412 -0.9785 -1.3012
  189POPC   H7Y21822   2.607   1.241   9.569 -1.4364  2.0820  1.0060
  189POPC   C3821823   2.775   1.233   9.424 -0.0180 -0.1130  0.8911
  189POPC   H8X21824   2.778   1.122   9.429  0.6142 -0.3960 -2.7019
  189POPC   H8Y21825   2.876   1.278   9.415  1.1183 -2.4877  0.8566
  189POPC   C3921826   2.698   1.262   9.287  0.5324 -0.2132 -1.1550
  189POPC   H9X21827   2.722   1.361   9.242  1.3795 -0.2360 -0.7635
  189POPC   H9Y21828   2.588   1.256   9.306  0.8172  0.4387  0.9429
  189POPC  C31021829   2.734   1.153   9.179 -0.1772  0.5572 -0.0859
  189POPC  H10X21830   2.692   1.052   9.202  0.4476  0.0047 -1.2623
  189POPC  H10Y21831   2.844   1.137   9.185 -0.3969 -1.9529 -1.2248
  189POPC  C31121832   2.700   1.182   9.033  0.3386  0.4083 -0.2049
  189POPC  H11X21833   2.593   1.210   9.040 -0.4816 -2.8381  2.0431
  189POPC  H11Y21834   2.707   1.097   8.961 -0.9842  0.0883  0.0162
  189POPC  C31221835   2.779   1.305   8.985  0.0811 -0.2494 -0.1455
  189POPC  H12X21836   2.887   1.280   8.979  0.0217 -0.4837 -0.2562
  189POPC  H12Y21837   2.772   1.394   9.051  1.5733 -1.7529  2.1523
  189POPC  C31321838   2.746   1.347   8.839 -0.3743  0.4902 -1.0517
  189POPC  H13X21839   2.643   1.385   8.824 -0.9535 -0.9021 -0.7456
  189POPC  H13Y21840   2.769   1.250   8.791  3.8570  0.4536  0.6612
  189POPC  C31421841   2.853   1.438   8.773  0.1213 -0.0076  0.3527
  189POPC  H14X21842   2.937   1.369   8.750 -0.3723 -1.4207  2.5538
  189POPC  H14Y21843   2.894   1.502   8.854 -0.1392  0.4109  0.1579
  189POPC  C31521844   2.823   1.512   8.646  0.2868  0.1396 -0.7973
  189POPC  H15X21845   2.722   1.556   8.663  1.3185  2.7386 -0.9363
  189POPC  H15Y21846   2.811   1.441   8.561  3.1308 -2.1633  0.5355
  189POPC  C31621847   2.922   1.622   8.605  0.3371  0.1316 -0.6225
  189POPC  H16X21848   2.869   1.711   8.564  1.3371  0.4565 -1.2457
  189POPC  H16Y21849   2.977   1.585   8.515 -0.3036 -0.9669 -0.5843
  189POPC  H16Z21850   2.977   1.663   8.692 -0.1942 -0.0664 -0.1864
  190POPC     N21851   0.193   5.756  11.258  0.7295  0.1259 -0.1760
  190POPC   C1221852   0.291   5.669  11.173  0.0574 -0.6102 -1.0777
  190POPC  H12A21853   0.272   5.563  11.173  2.7599 -1.1621 -0.4881
  190POPC  H12B21854   0.392   5.674  11.209  1.1277  1.0051 -3.9843
  190POPC   C1321855   0.277   5.880  11.301  0.8095 -0.3208 -0.3058
  190POPC  H13A21856   0.229   5.921  11.389  0.2574 -1.2148 -0.1873
  190POPC  H13B21857   0.375   5.840  11.324  0.3957 -1.9928 -1.2940
  190POPC  H13C21858   0.291   5.942  11.214  1.4348 -0.2105 -0.1367
  190POPC   C1421859   0.073   5.803  11.189  0.7620  0.0068 -0.2631
  190POPC  H14A21860   0.035   5.902  11.210 -0.4516 -0.9595  2.6442
  190POPC  H14B21861   0.083   5.795  11.082 -0.0326 -1.3236 -0.2539
  190POPC  H14C21862  -0.008   5.736  11.211  0.3411  0.9502  1.2213
  190POPC   C1521863   0.147   5.686  11.386  1.0970 -0.1033 -0.2290
  190POPC  H15A21864   0.236   5.658  11.440  1.5747 -0.4620 -1.1631
  190POPC  H15B21865   0.076   5.605  11.376  0.8518 -0.3668  2.8201
  190POPC  H15C21866   0.088   5.752  11.447  0.9487 -0.5259  0.0883
  190POPC   C1121867   0.317   5.700  11.018 -0.1914 -0.2740 -1.0053
  190POPC  H11A21868   0.402   5.638  10.985 -0.1192 -0.9512  0.3709
  190POPC  H11B21869   0.343   5.807  11.001  4.0008 -0.7224  1.3499
  190POPC     P21870   0.156   5.524  10.901 -0.2821  0.0325  0.1742
  190POPC   O1321871   0.027   5.500  10.969 -0.0407 -0.0097 -0.0810
  190POPC   O1421872   0.266   5.426  10.927 -0.2109 -0.4943  0.6074
  190POPC   O1221873   0.205   5.666  10.939  0.1983  0.3527  0.3896
  190POPC   O1121874   0.133   5.546  10.744 -0.1953 -0.0491 -0.3962
  190POPC    C121875   0.237   5.529  10.650 -0.4407  0.3778 -0.2590
  190POPC    HA21876   0.332   5.500  10.701 -1.7175 -0.5519  1.7247
  190POPC    HB21877   0.253   5.622  10.592  0.2637 -0.5809 -1.6487
  190POPC    C221878   0.188   5.424  10.546 -0.0199  0.3778 -0.5188
  190POPC    HS21879   0.263   5.417  10.464  0.3770 -1.8112 -0.0305
  190POPC   O2121880   0.058   5.450  10.490  0.2119  0.4458 -0.2429
  190POPC   C2121881   0.064   5.549  10.409 -0.4158 -0.1330  0.6717
  190POPC   O2221882   0.158   5.621  10.385 -0.5039 -0.2571 -0.0653
  190POPC   C2221883  -0.070   5.567  10.342  0.4973  0.2023 -0.1028
  190POPC   H2R21884  -0.050   5.658  10.281 -0.3405  0.6842  0.3211
  190POPC   H2S21885  -0.149   5.591  10.417  2.1356  2.0132  1.1353
  190POPC    C321886   0.188   5.280  10.596 -0.2116 -0.3908  0.7158
  190POPC    HX21887   0.136   5.284  10.694  0.4203  0.2068  1.0319
  190POPC    HY21888   0.295   5.253  10.609  0.5849  2.4027  0.7367
  190POPC   O3121889   0.126   5.190  10.509  0.3118  0.1740  0.4641
  190POPC   C3121890   0.182   5.166  10.393  0.5838  0.2188 -0.4859
  190POPC   O3221891   0.292   5.201  10.366 -0.2149 -0.2236 -0.1976
  190POPC   C3221892   0.091   5.092  10.298  0.4914  0.5308  0.1636
  190POPC   H2X21893  -0.008   5.141  10.291  1.0103  1.5109 -0.4260
  190POPC   H2Y21894   0.072   4.991  10.342  0.5266  0.8552  0.9430
  190POPC   C2321895  -0.116   5.455  10.244 -0.8957  0.5531 -0.8521
  190POPC   H3R21896  -0.129   5.362  10.304  0.3766  1.6065  1.1794
  190POPC   H3S21897  -0.043   5.432  10.164 -0.0318  1.0949 -0.2387
  190POPC   C2421898  -0.245   5.482  10.172 -0.1151  0.6480  0.4709
  190POPC   H4R21899  -0.230   5.566  10.102  0.5775 -1.2556 -1.7619
  190POPC   H4S21900  -0.325   5.502  10.247  1.6115 -1.6202  3.1475
  190POPC   C2521901  -0.276   5.350  10.112 -0.1416  0.7382 -0.4464
  190POPC   H5R21902  -0.343   5.295  10.182 -1.5823  0.6068 -1.8637
  190POPC   H5S21903  -0.189   5.281  10.106 -0.7695 -0.1580  0.4762
  190POPC   C2621904  -0.325   5.352   9.963 -0.6048 -0.8787  0.1165
  190POPC   H6R21905  -0.273   5.437   9.911  1.2417 -1.3110  1.1531
  190POPC   H6S21906  -0.432   5.382   9.966 -0.8218 -1.5382 -0.6226
  190POPC   C2721907  -0.301   5.226   9.882  0.8423 -0.0175 -0.0375
  190POPC   H7R21908  -0.374   5.150   9.918 -0.4819 -0.5390 -3.4190
  190POPC   H7S21909  -0.195   5.194   9.889  0.8893 -0.2581 -1.5640
  190POPC   C2821910  -0.330   5.232   9.731 -0.3146  0.3735 -0.2404
  190POPC   H8R21911  -0.428   5.281   9.718  0.4632  1.8805 -0.6884
  190POPC   H8S21912  -0.337   5.129   9.689  1.3308  0.7738 -1.6278
  190POPC   C2921913  -0.228   5.311   9.645  0.1768  0.3938  0.1143
  190POPC   H9121914  -0.170   5.382   9.705  0.3705 -0.9433  1.5624
  190POPC  C21021915  -0.181   5.265   9.524  0.1543  0.0633  0.6170
  190POPC  H10121916  -0.110   5.323   9.462 -0.8469 -0.1402 -0.7719
  190POPC  C21121917  -0.229   5.142   9.448 -0.2412 -0.6867  0.2236
  190POPC  H11R21918  -0.318   5.095   9.495  0.8770 -0.3279  2.8724
  190POPC  H11S21919  -0.140   5.078   9.431 -0.3206 -0.5071 -0.9296
  190POPC  C21221920  -0.262   5.195   9.310  0.2358  0.2988 -0.8502
  190POPC  H12R21921  -0.170   5.224   9.255  0.4021  1.2837 -0.0825
  190POPC  H12S21922  -0.324   5.287   9.303 -0.2638  0.2814  2.0256
  190POPC  C21321923  -0.318   5.080   9.219 -0.1368  0.4789 -0.0244
  190POPC  H13R21924  -0.421   5.066   9.260  0.4298 -0.5978  1.0941
  190POPC  H13S21925  -0.256   4.988   9.221  1.1473  1.3284  0.7328
  190POPC  C21421926  -0.325   5.127   9.073  0.5939  0.1011 -0.6984
  190POPC  H14R21927  -0.224   5.140   9.030  0.0231 -0.7026 -2.3697
  190POPC  H14S21928  -0.359   5.232   9.064  3.1049  0.9053 -1.5301
  190POPC  C21521929  -0.413   5.035   8.986 -0.2725 -0.0455 -0.2808
  190POPC  H15R21930  -0.508   5.016   9.039 -0.6524  1.5743 -0.3585
  190POPC  H15S21931  -0.360   4.937   8.983  0.5813  0.3120  1.6145
  190POPC  C21621932  -0.449   5.090   8.845  0.0361  0.1695  0.1911
  190POPC  H16R21933  -0.358   5.114   8.786 -1.2106 -0.3880 -2.0465
  190POPC  H16S21934  -0.496   5.190   8.853 -0.8764 -0.3125  1.2969
  190POPC  C21721935  -0.553   5.003   8.772 -0.1325  0.7796  0.5566
  190POPC  H17R21936  -0.606   5.048   8.685  0.5705 -2.0932 -1.5255
  190POPC  H17S21937  -0.624   4.980   8.854 -0.7261  1.1721  0.1713
  190POPC  C21821938  -0.517   4.863   8.730 -0.4811  0.3301  0.6171
  190POPC  H18R21939  -0.483   4.798   8.813  1.9629 -0.3708 -0.8433
  190POPC  H18S21940  -0.434   4.852   8.657 -1.9875  0.6092 -1.2267
  190POPC  H18T21941  -0.607   4.820   8.680  0.4667  1.9333 -2.8172
  190POPC   C3321942   0.148   5.081  10.153 -0.4111  0.5737 -0.5717
  190POPC   H3X21943   0.252   5.044  10.169 -0.6978 -0.1187 -0.2809
  190POPC   H3Y21944   0.144   5.181  10.104 -4.6747 -0.0163 -1.8228
  190POPC   C3421945   0.081   4.976  10.065  0.4101 -0.6800 -0.1189
  190POPC   H4X21946  -0.019   5.022  10.062  0.0570 -1.4203  0.0250
  190POPC   H4Y21947   0.078   4.878  10.117 -0.3350  0.0344  1.2388
  190POPC   C3521948   0.148   4.974   9.930  0.1569 -0.1949 -0.4669
  190POPC   H5X21949   0.243   4.916   9.935  0.3871  0.1829 -0.4323
  190POPC   H5Y21950   0.178   5.078   9.905 -1.8555  0.9594  1.4861
  190POPC   C3621951   0.062   4.917   9.816  0.0785 -0.7609 -1.0941
  190POPC   H6X21952  -0.042   4.955   9.813 -0.1454 -0.9111  1.9206
  190POPC   H6Y21953   0.043   4.814   9.853  0.4895 -0.1687  0.8549
  190POPC   C3721954   0.122   4.933   9.684  0.2002  0.4768 -0.5608
  190POPC   H7X21955   0.224   4.893   9.699 -0.0570  0.4554  1.3876
  190POPC   H7Y21956   0.128   5.040   9.656 -1.9811  0.7726 -0.1138
  190POPC   C3821957   0.032   4.859   9.583 -0.9439 -0.2326 -0.4171
  190POPC   H8X21958  -0.073   4.886   9.606 -0.6906  0.3342  0.1110
  190POPC   H8Y21959   0.047   4.751   9.599 -0.8996 -0.0452  0.8834
  190POPC   C3921960   0.073   4.900   9.443 -0.3981 -0.2074 -0.1358
  190POPC   H9X21961   0.177   4.869   9.420  0.4527  3.6452 -2.2653
  190POPC   H9Y21962   0.068   5.011   9.432  0.4961 -0.0702  0.6341
  190POPC  C31021963  -0.003   4.838   9.327  0.0509 -0.1497  0.3289
  190POPC  H10X21964  -0.112   4.852   9.339  0.0062 -2.3475  3.9986
  190POPC  H10Y21965   0.010   4.728   9.326  0.8167 -0.1747 -3.7615
  190POPC  C31121966   0.029   4.912   9.187  0.7427  0.4476 -0.4394
  190POPC  H11X21967   0.138   4.914   9.166  0.7544 -1.0882 -0.6029
  190POPC  H11Y21968  -0.007   5.017   9.198  1.1065  0.5331 -0.0143
  190POPC  C31221969  -0.035   4.840   9.060  0.1805 -0.0758 -0.2494
  190POPC  H12X21970  -0.146   4.831   9.070  0.1299 -0.1914 -0.8455
  190POPC  H12Y21971   0.005   4.737   9.051  1.4519  0.2728  1.0803
  190POPC  C31321972  -0.000   4.914   8.928  0.0424  0.8016  0.2166
  190POPC  H13X21973   0.110   4.928   8.930  0.1174  0.3475 -0.4964
  190POPC  H13Y21974  -0.042   5.016   8.947 -0.2057  0.4165  1.9345
  190POPC  C31421975  -0.056   4.845   8.802 -0.4921 -0.7595 -0.1845
  190POPC  H14X21976  -0.166   4.840   8.814 -0.8508 -1.7467 -3.1155
  190POPC  H14Y21977  -0.006   4.745   8.802  0.3261 -0.3595 -0.0517
  190POPC  C31521978   0.004   4.914   8.674  0.2110 -0.1794  0.2092
  190POPC  H15X21979  -0.000   4.831   8.600 -2.3271  0.2817 -0.2542
  190POPC  H15Y21980   0.108   4.940   8.702  0.6106 -0.6894 -0.7653
  190POPC  C31621981  -0.066   5.043   8.633 -0.0915  0.3605  0.5945
  190POPC  H16X21982  -0.174   5.016   8.640 -0.2245  0.0276 -1.9581
  190POPC  H16Y21983  -0.027   5.090   8.540 -0.7039 -0.0482  0.1266
  190POPC  H16Z21984  -0.052   5.114   8.718 -1.1813  0.7421  0.4750
  191POPC     N21985   0.102   4.555   6.114  0.6888 -0.0975 -0.1671
  191POPC   C1221986   0.093   4.443   6.222 -0.6223 -0.0850  0.0950
  191POPC  H12A21987   0.168   4.368   6.200  0.6780  1.4499 -0.8788
  191POPC  H12B21988  -0.001   4.391   6.207 -0.4054 -0.2386 -0.7775
  191POPC   C1321989  -0.002   4.661   6.150 -0.1805 -0.6683  0.3980
  191POPC  H13A21990   0.004   4.697   6.252 -1.7237  3.5871 -0.7857
  191POPC  H13B21991   0.011   4.753   6.094  0.1932 -0.5817  0.6212
  191POPC  H13C21992  -0.102   4.624   6.134 -0.3487 -0.2465  0.4484
  191POPC   C1421993   0.242   4.617   6.111 -0.0697 -0.2308 -0.0702
  191POPC  H14A21994   0.266   4.643   6.213  2.0619 -0.3585 -0.4899
  191POPC  H14B21995   0.318   4.547   6.081  0.1779  0.3122 -0.7292
  191POPC  H14C21996   0.235   4.705   6.050 -0.0854  0.1585  0.4800
  191POPC   C1521997   0.083   4.496   5.983  0.2023 -0.2594  0.4466
  191POPC  H15A21998   0.153   4.417   5.961 -1.6101 -2.2339  1.3258
  191POPC  H15B21999   0.093   4.566   5.902 -0.0125  1.1713  1.6178
  191POPC  H15C22000  -0.016   4.457   5.965 -0.6533  1.7101  0.6419
  191POPC   C1122001   0.111   4.480   6.375 -0.3642  0.1108 -0.3885
  191POPC  H11A22002   0.054   4.404   6.434  0.9780 -1.6155 -1.2057
  191POPC  H11B22003   0.067   4.578   6.400 -1.2362 -0.5337  0.7003
  191POPC     P22004   0.347   4.366   6.419 -0.3756  0.3493  0.2192
  191POPC   O1322005   0.479   4.421   6.407 -0.1199  0.1708  1.0184
  191POPC   O1422006   0.307   4.281   6.309 -0.5583 -0.0824  0.4432
  191POPC   O1222007   0.247   4.487   6.419 -0.5977  0.3587  0.0992
  191POPC   O1122008   0.333   4.286   6.554  0.2412  0.8461 -0.1492
  191POPC    C122009   0.344   4.359   6.679 -0.8444  0.4064 -0.7293
  191POPC    HA22010   0.243   4.377   6.720 -0.8108 -1.2896  0.1648
  191POPC    HB22011   0.402   4.454   6.675 -0.8990  0.4358 -0.8137
  191POPC    C222012   0.420   4.270   6.797  0.0459 -0.5955  0.0894
  191POPC    HS22013   0.503   4.224   6.740 -1.3869 -0.1219 -2.5678
  191POPC   O2122014   0.331   4.183   6.857  0.5578 -0.3344 -0.0911
  191POPC   C2122015   0.379   4.072   6.912  0.1458 -0.7143 -0.1718
  191POPC   O2222016   0.499   4.046   6.919  0.1427  0.5971  0.0977
  191POPC   C2222017   0.271   3.975   6.962 -0.3169 -0.0272  0.8046
  191POPC   H2R22018   0.326   3.890   7.006  0.6689 -1.9002 -3.4871
  191POPC   H2S22019   0.220   3.944   6.868  1.6835 -0.3763 -0.2192
  191POPC    C322020   0.499   4.355   6.901 -0.7050 -0.0759  0.7357
  191POPC    HX22021   0.584   4.391   6.840  1.0842  0.7150  3.5464
  191POPC    HY22022   0.547   4.295   6.982  0.6460 -0.3286 -0.2158
  191POPC   O3122023   0.413   4.460   6.959 -0.6341 -0.7147  0.1007
  191POPC   C3122024   0.492   4.560   7.009  0.2608 -0.7949 -0.1590
  191POPC   O3222025   0.614   4.565   6.992  0.3057  0.0145  0.3516
  191POPC   C3222026   0.401   4.670   7.067 -0.2640  0.2954  0.5369
  191POPC   H2X22027   0.361   4.727   6.980  2.4342  1.0246 -0.3493
  191POPC   H2Y22028   0.474   4.744   7.105 -0.1990  1.3959 -1.5445
  191POPC   C2322029   0.171   4.047   7.055  0.3948  0.4442  0.4603
  191POPC   H3R22030   0.106   3.970   7.104 -1.8716  1.0647 -1.4017
  191POPC   H3S22031   0.093   4.109   7.008  0.7613  1.0940  0.7012
  191POPC   C2422032   0.246   4.127   7.165  0.2268 -0.0366  0.9512
  191POPC   H4R22033   0.173   4.158   7.242 -2.9173 -0.4665 -1.6265
  191POPC   H4S22034   0.279   4.223   7.119 -0.4597 -1.2407 -2.3855
  191POPC   C2522035   0.358   4.051   7.240 -0.0412 -0.0203 -0.0156
  191POPC   H5R22036   0.450   4.038   7.179  0.7677  1.6633  0.7941
  191POPC   H5S22037   0.327   3.950   7.274  0.4526 -1.0623 -2.4072
  191POPC   C2622038   0.414   4.131   7.359  0.1423  0.1490  0.4805
  191POPC   H6R22039   0.505   4.072   7.386  0.0992 -0.6135 -0.9144
  191POPC   H6S22040   0.335   4.128   7.437 -0.2037 -1.7636  0.1100
  191POPC   C2722041   0.460   4.276   7.324  0.6557  0.4287  0.6835
  191POPC   H7R22042   0.371   4.338   7.300  0.0940 -1.4405 -2.6176
  191POPC   H7S22043   0.527   4.264   7.236  1.3639 -0.5077  1.3337
  191POPC   C2822044   0.546   4.346   7.434 -0.0679  0.0693  0.2303
  191POPC   H8R22045   0.575   4.449   7.404 -1.5459  1.3701  2.8669
  191POPC   H8S22046   0.635   4.281   7.443 -0.4981 -0.3993  1.4040
  191POPC   C2922047   0.462   4.351   7.556 -0.4199 -0.1271 -0.2462
  191POPC   H9122048   0.414   4.257   7.586  2.2041 -1.0444  1.4168
  191POPC  C21022049   0.442   4.459   7.640 -0.3497 -0.5368  0.1385
  191POPC  H10122050   0.364   4.443   7.716 -1.3291 -0.2813 -0.7751
  191POPC  C21122051   0.511   4.592   7.631  0.3613 -0.0067  0.5587
  191POPC  H11R22052   0.428   4.666   7.624  2.5464  2.4939 -0.9997
  191POPC  H11S22053   0.580   4.605   7.545  1.0449 -1.5193  0.8402
  191POPC  C21222054   0.597   4.636   7.748 -0.1283  0.5249 -0.5833
  191POPC  H12R22055   0.655   4.728   7.728  1.7619  0.2599  2.7920
  191POPC  H12S22056   0.678   4.565   7.776  0.1464  1.2395  0.4961
  191POPC  C21322057   0.520   4.654   7.889 -0.0656 -0.3504  0.0674
  191POPC  H13R22058   0.493   4.550   7.915  0.8404 -1.3745 -2.7246
  191POPC  H13S22059   0.427   4.711   7.868 -0.0737 -0.1185  0.7215
  191POPC  C21422060   0.602   4.713   8.002 -0.2607  0.5375 -0.2395
  191POPC  H14R22061   0.536   4.735   8.088 -0.6795  0.4371 -0.5284
  191POPC  H14S22062   0.645   4.809   7.968 -1.3455  1.0456 -0.1961
  191POPC  C21522063   0.727   4.626   8.051 -0.2514 -0.4343 -0.2056
  191POPC  H15R22064   0.817   4.653   7.992  1.0946 -1.8787  1.0907
  191POPC  H15S22065   0.697   4.523   8.023 -1.4371  0.1759 -1.2998
  191POPC  C21622066   0.765   4.629   8.205  0.1931 -0.5297  0.0954
  191POPC  H16R22067   0.847   4.555   8.221  0.0729 -0.4421  1.2107
  191POPC  H16S22068   0.671   4.600   8.256 -1.1060 -0.7085 -2.2946
  191POPC  C21722069   0.810   4.769   8.267  0.4956 -0.1414  0.6766
  191POPC  H17R22070   0.722   4.836   8.255 -1.0630 -2.3124 -0.6714
  191POPC  H17S22071   0.889   4.815   8.202  0.0281 -0.6734 -0.2887
  191POPC  C21822072   0.856   4.754   8.407  0.6938 -0.5334 -0.0414
  191POPC  H18R22073   0.954   4.702   8.417  0.5907 -1.2166 -2.1429
  191POPC  H18S22074   0.778   4.714   8.475  2.2509  0.3600  2.3969
  191POPC  H18T22075   0.883   4.857   8.438 -0.7851 -0.0597 -0.2703
  191POPC   C3322076   0.310   4.620   7.178  0.0273 -0.0443 -0.1201
  191POPC   H3X22077   0.355   4.567   7.264  2.2738  1.8205 -0.0327
  191POPC   H3Y22078   0.232   4.555   7.132 -0.6262 -0.2570  1.2409
  191POPC   C3422079   0.253   4.748   7.244 -0.0881  0.2625  0.4805
  191POPC   H4X22080   0.149   4.771   7.215  0.2814  1.0258 -0.2954
  191POPC   H4Y22081   0.308   4.841   7.216 -0.5601  1.4558  3.2225
  191POPC   C3522082   0.261   4.731   7.397  0.1708 -1.5478  0.3553
  191POPC   H5X22083   0.367   4.731   7.431  1.3200 -0.7285 -2.8936
  191POPC   H5Y22084   0.219   4.632   7.424 -1.7011 -2.1638 -3.9997
  191POPC   C3622085   0.195   4.853   7.469 -0.1405 -0.1933 -0.5379
  191POPC   H6X22086   0.088   4.853   7.438 -0.2742 -1.5660 -0.1594
  191POPC   H6Y22087   0.238   4.951   7.440  0.5859 -0.1433  0.6373
  191POPC   C3722088   0.193   4.839   7.619  0.2009  0.0039  0.3332
  191POPC   H7X22089   0.142   4.931   7.652  1.1912  0.6233  0.1785
  191POPC   H7Y22090   0.296   4.853   7.658 -0.0471  1.8331  0.4167
  191POPC   C3822091   0.119   4.718   7.663 -0.3174 -0.2131 -0.7549
  191POPC   H8X22092   0.177   4.623   7.658 -0.5663 -0.6389  2.4726
  191POPC   H8Y22093   0.027   4.704   7.603 -0.6518  0.7134 -0.4792
  191POPC   C3922094   0.065   4.744   7.813  0.2027  0.3700 -0.1024
  191POPC   H9X22095   0.005   4.837   7.815  1.7776  1.4767 -1.4946
  191POPC   H9Y22096   0.154   4.754   7.879  0.0533 -0.2057  0.1978
  191POPC  C31022097  -0.024   4.625   7.866 -0.4644  0.0268 -0.0164
  191POPC  H10X22098   0.028   4.527   7.878 -1.3583 -0.4685 -0.0786
  191POPC  H10Y22099  -0.094   4.599   7.784 -0.8524 -2.5361  1.0290
  191POPC  C31122100  -0.108   4.669   7.988 -0.3039  0.3812  0.5230
  191POPC  H11X22101  -0.053   4.714   8.074 -1.0996 -0.8820  1.7423
  191POPC  H11Y22102  -0.157   4.578   8.030 -0.4937 -0.8244 -2.1352
  191POPC  C31222103  -0.220   4.762   7.949 -0.6978 -0.5734  0.1297
  191POPC  H12X22104  -0.273   4.739   7.854  1.0773  1.6804 -1.5099
  191POPC  H12Y22105  -0.166   4.859   7.942  0.1587 -0.5077  4.7455
  191POPC  C31322106  -0.336   4.769   8.047 -0.3244 -0.3112 -0.4979
  191POPC  H13X22107  -0.379   4.669   8.070 -1.0866  0.0386 -0.3799
  191POPC  H13Y22108  -0.410   4.832   7.994  0.0500  0.5909  0.0308
  191POPC  C31422109  -0.304   4.845   8.178  0.0396 -0.0835  0.4554
  191POPC  H14X22110  -0.399   4.895   8.205  0.2644 -0.1983  1.5074
  191POPC  H14Y22111  -0.215   4.910   8.163 -0.9754  0.8928 -1.8549
  191POPC  C31522112  -0.257   4.761   8.303 -0.5674 -0.0226 -0.4281
  191POPC  H15X22113  -0.182   4.687   8.269 -0.4119  0.6218 -1.5266
  191POPC  H15Y22114  -0.340   4.708   8.353 -1.4797  1.8555  0.1462
  191POPC  C31622115  -0.192   4.834   8.417 -0.3379  0.2741 -0.2586
  191POPC  H16X22116  -0.088   4.865   8.390 -0.0344 -0.9760 -0.6058
  191POPC  H16Y22117  -0.181   4.764   8.502  3.9890 -0.8122 -1.4749
  191POPC  H16Z22118  -0.239   4.931   8.443  1.1368  1.3419 -1.3871
  192POPC     N22119   2.303   1.713   6.034 -0.5353 -0.1921  0.0236
  192POPC   C1222120   2.312   1.706   6.185 -0.8415 -0.1242 -0.5689
  192POPC  H12A22121   2.265   1.796   6.222  1.4298  2.2639 -3.0564
  192POPC  H12B22122   2.415   1.711   6.216 -1.0680 -0.9083  0.3701
  192POPC   C1322123   2.332   1.849   5.988  0.2130 -1.5871  0.7476
  192POPC  H13A22124   2.422   1.893   6.026  0.1694 -0.7996 -0.0365
  192POPC  H13B22125   2.326   1.848   5.880  0.8960 -0.2933  0.6858
  192POPC  H13C22126   2.255   1.919   6.017 -0.8653 -2.1187 -0.6552
  192POPC   C1422127   2.394   1.618   5.963  0.0478 -0.2156  0.3315
  192POPC  H14A22128   2.497   1.650   5.959 -0.1328  0.3873  0.3358
  192POPC  H14B22129   2.393   1.522   6.013  1.6918 -0.5412 -0.1934
  192POPC  H14C22130   2.356   1.586   5.867  1.2325 -2.1879  0.4561
  192POPC   C1522131   2.173   1.670   5.979 -0.3176 -0.5228 -0.6064
  192POPC  H15A22132   2.177   1.563   5.970  3.1982 -0.5587 -0.1578
  192POPC  H15B22133   2.159   1.714   5.881  1.4091  0.4441 -0.4686
  192POPC  H15C22134   2.100   1.704   6.051  1.3430 -0.0060  0.9229
  192POPC   C1122135   2.252   1.588   6.254  0.7359 -0.1167 -0.0885
  192POPC  H11A22136   2.154   1.565   6.206  1.3008 -0.5935 -1.0258
  192POPC  H11B22137   2.228   1.601   6.362  1.4108 -2.7061  0.4365
  192POPC     P22138   2.475   1.453   6.295 -0.1551  0.7702  0.3640
  192POPC   O1322139   2.561   1.569   6.273 -0.3781 -0.0782 -0.0349
  192POPC   O1422140   2.547   1.324   6.254  0.1108 -0.5919 -0.1277
  192POPC   O1222141   2.330   1.470   6.240  0.1755  0.3639  0.1240
  192POPC   O1122142   2.439   1.450   6.451 -0.0369  0.3810 -0.0548
  192POPC    C122143   2.376   1.341   6.521  0.1081  0.1137  0.0306
  192POPC    HA22144   2.380   1.245   6.466  0.9361 -0.0986  0.4523
  192POPC    HB22145   2.268   1.368   6.517  0.4060  1.2010 -1.3927
  192POPC    C222146   2.439   1.327   6.660 -0.1161  0.7263  0.4605
  192POPC    HS22147   2.377   1.257   6.720 -0.5199  1.0171  0.3892
  192POPC   O2122148   2.449   1.446   6.739 -0.1664  0.1583 -0.2445
  192POPC   C2122149   2.328   1.493   6.781  0.1516  0.4871 -0.3346
  192POPC   O2222150   2.223   1.451   6.746 -0.1944 -0.4142  0.1925
  192POPC   C2222151   2.343   1.624   6.863 -0.1082  0.5693 -0.2972
  192POPC   H2R22152   2.293   1.702   6.800  0.6821 -0.1107 -1.8223
  192POPC   H2S22153   2.451   1.645   6.855 -0.2852  1.7846  0.2656
  192POPC    C322154   2.575   1.258   6.657  0.7388  0.5656 -0.6765
  192POPC    HX22155   2.625   1.315   6.577  2.4244 -0.5229 -0.4578
  192POPC    HY22156   2.553   1.155   6.621  0.4591  0.1175  0.6925
  192POPC   O3122157   2.630   1.262   6.788  0.6735  0.3769 -0.2378
  192POPC   C3122158   2.725   1.351   6.800 -0.1478  1.0717 -0.0342
  192POPC   O3222159   2.765   1.424   6.709  0.2849  0.2533 -0.2431
  192POPC   C3222160   2.753   1.373   6.948 -0.2190 -0.2142  0.1242
  192POPC   H2X22161   2.816   1.287   6.981  0.3795  0.3156  0.3866
  192POPC   H2Y22162   2.654   1.362   6.996  0.9751 -2.3874  2.2989
  192POPC   C2322163   2.291   1.629   7.009 -0.1011 -0.7479 -0.3500
  192POPC   H3R22164   2.196   1.570   7.016 -1.5230  1.5413  0.9851
  192POPC   H3S22165   2.269   1.735   7.034 -2.3957 -0.8769 -1.5144
  192POPC   C2422166   2.395   1.568   7.109 -0.6258  0.0638 -0.6083
  192POPC   H4R22167   2.469   1.650   7.128 -1.4141  1.5723 -3.4748
  192POPC   H4S22168   2.456   1.497   7.049  0.4151  1.8828 -1.8174
  192POPC   C2522169   2.334   1.512   7.233  0.0843  0.1155  0.1130
  192POPC   H5R22170   2.261   1.430   7.216 -0.1819  0.2687  0.5040
  192POPC   H5S22171   2.271   1.589   7.281 -0.3211 -0.5560  0.6760
  192POPC   C2622172   2.436   1.461   7.345  0.3424  0.1253 -0.7055
  192POPC   H6R22173   2.508   1.528   7.395 -1.0756  0.7794  0.5453
  192POPC   H6S22174   2.489   1.376   7.295  3.1723  1.4027 -0.0538
  192POPC   C2722175   2.369   1.405   7.476  0.5453 -0.0963 -0.3207
  192POPC   H7R22176   2.453   1.354   7.529 -0.3536 -0.6268  0.6148
  192POPC   H7S22177   2.294   1.327   7.454 -1.0557  1.2274  0.2588
  192POPC   C2822178   2.308   1.507   7.574 -0.5443 -0.1872 -0.2601
  192POPC   H8R22179   2.249   1.577   7.511 -0.1971 -2.9046 -3.9498
  192POPC   H8S22180   2.392   1.563   7.622 -1.6189  1.6852 -0.4756
  192POPC   C2922181   2.222   1.444   7.679 -0.0381  0.2253 -0.2248
  192POPC   H9122182   2.124   1.424   7.634  0.6867 -0.4034 -1.6226
  192POPC  C21022183   2.251   1.401   7.805  0.4334 -0.5439  0.0649
  192POPC  H10122184   2.167   1.368   7.868 -0.8468 -0.3333 -1.4784
  192POPC  C21122185   2.383   1.419   7.872 -0.2038  0.2331 -0.2866
  192POPC  H11R22186   2.394   1.513   7.929  0.1072  0.2509 -0.3758
  192POPC  H11S22187   2.460   1.423   7.792 -0.6412  1.5046 -0.6622
  192POPC  C21222188   2.411   1.300   7.965  0.1108  0.9381  0.2996
  192POPC  H12R22189   2.407   1.199   7.919 -0.8511  1.2288 -0.2770
  192POPC  H12S22190   2.328   1.293   8.038 -0.1812  1.4051  0.0160
  192POPC  C21322191   2.527   1.303   8.069 -0.4825 -0.6983  0.6874
  192POPC  H13R22192   2.521   1.225   8.148 -1.2561 -1.7921 -0.3984
  192POPC  H13S22193   2.508   1.398   8.123  0.2827 -1.4932  2.4140
  192POPC  C21422194   2.655   1.311   7.994  0.2872  0.1204  0.0511
  192POPC  H14R22195   2.660   1.394   7.921 -0.0933  1.1882  1.1891
  192POPC  H14S22196   2.673   1.222   7.932  2.1246  0.3779  0.1645
  192POPC  C21522197   2.771   1.332   8.096 -0.3670  0.7848  0.8223
  192POPC  H15R22198   2.792   1.236   8.147 -0.4405 -1.2710 -2.7527
  192POPC  H15S22199   2.747   1.404   8.178  1.2441  1.6662  0.5754
  192POPC  C21622200   2.913   1.357   8.043 -0.6231 -0.7679 -0.5664
  192POPC  H16R22201   2.919   1.461   8.006 -0.0347 -0.3025  0.7811
  192POPC  H16S22202   2.931   1.283   7.962  0.2075 -1.4966  0.2569
  192POPC  C21722203   3.033   1.325   8.138  0.1717 -0.6943  0.3457
  192POPC  H17R22204   3.122   1.377   8.098 -0.2628  0.3607  0.7094
  192POPC  H17S22205   3.058   1.219   8.119 -1.2717 -0.8943 -0.6362
  192POPC  C21822206   3.024   1.370   8.291 -0.1678  0.0590 -0.3046
  192POPC  H18R22207   2.929   1.333   8.334 -0.4292  0.7365 -0.2840
  192POPC  H18S22208   3.025   1.481   8.289  0.9949  0.1003  1.0522
  192POPC  H18T22209   3.100   1.326   8.359 -0.2152  1.4863  0.7086
  192POPC   C3322210   2.806   1.518   6.982  0.3579  0.0800 -0.5052
  192POPC   H3X22211   2.722   1.583   6.950  0.3909  0.7348  0.6613
  192POPC   H3Y22212   2.904   1.531   6.931  0.6790 -0.4357 -0.0334
  192POPC   C3422213   2.817   1.533   7.133 -0.2562  0.5314  0.1359
  192POPC   H4X22214   2.900   1.466   7.164 -0.1342 -0.8347 -2.8083
  192POPC   H4Y22215   2.722   1.497   7.178 -1.2594  0.7501 -1.6777
  192POPC   C3522216   2.825   1.673   7.181  0.2467  0.1103  0.0128
  192POPC   H5X22217   2.787   1.739   7.101 -0.4960 -0.0180  0.2556
  192POPC   H5Y22218   2.931   1.694   7.206 -0.6411  2.1635  2.4396
  192POPC   C3622219   2.758   1.692   7.320  0.0143  0.7007  0.5876
  192POPC   H6X22220   2.649   1.680   7.306  0.4610 -1.6545 -1.9856
  192POPC   H6Y22221   2.779   1.795   7.357  0.5904  0.6081  0.5288
  192POPC   C3722222   2.821   1.597   7.426  0.5040 -0.4243  0.2155
  192POPC   H7X22223   2.932   1.592   7.423  0.5389 -1.3567  1.8115
  192POPC   H7Y22224   2.770   1.499   7.411 -1.0453  0.6711 -2.4199
  192POPC   C3822225   2.801   1.643   7.572 -0.6209  0.4604 -0.4058
  192POPC   H8X22226   2.726   1.581   7.626 -0.6696  0.3691 -0.5800
  192POPC   H8Y22227   2.759   1.745   7.565  0.3664  0.8916 -0.2538
  192POPC   C3922228   2.924   1.632   7.657 -0.3335  0.0872 -0.0910
  192POPC   H9X22229   3.011   1.684   7.612  0.1204 -0.0717  0.5918
  192POPC   H9Y22230   2.951   1.524   7.658  1.9245  0.5975  1.4562
  192POPC  C31022231   2.913   1.676   7.798  0.3124  0.4860 -0.1146
  192POPC  H10X22232   2.825   1.630   7.847 -0.1123 -1.3324 -2.4059
  192POPC  H10Y22233   2.886   1.784   7.800  0.0480  0.4752 -1.8924
  192POPC  C31122234   3.035   1.662   7.886  0.3058 -0.9269 -0.3382
  192POPC  H11X22235   3.108   1.721   7.828 -1.4471 -0.0958 -1.7851
  192POPC  H11Y22236   3.076   1.559   7.886  0.6507 -0.7900 -0.3399
  192POPC  C31222237   3.027   1.720   8.030 -0.0581  0.3938 -0.3197
  192POPC  H12X22238   2.937   1.671   8.073  0.2665 -0.4467 -0.5816
  192POPC  H12Y22239   2.999   1.827   8.020 -1.4776  0.1036  0.2583
  192POPC  C31322240   3.159   1.696   8.109  0.2738  0.1372  0.7657
  192POPC  H13X22241   3.246   1.725   8.046  1.7307 -2.7738  1.2307
  192POPC  H13Y22242   3.176   1.586   8.106  1.0051  0.2213  1.4402
  192POPC  C31422243   3.149   1.746   8.256 -0.2936 -0.3381  0.4508
  192POPC  H14X22244   3.235   1.706   8.313  2.4452  1.2820 -2.1967
  192POPC  H14Y22245   3.054   1.712   8.302 -1.0165  2.4017  1.2038
  192POPC  C31522246   3.149   1.898   8.261  0.5690 -0.3391  0.4762
  192POPC  H15X22247   3.066   1.927   8.193  1.2883 -1.8789 -1.1362
  192POPC  H15Y22248   3.237   1.950   8.217 -0.8941 -0.1608 -2.5145
  192POPC  C31622249   3.123   1.949   8.399 -0.4609  0.6765 -0.1788
  192POPC  H16X22250   3.032   1.898   8.438 -1.3102  0.4225 -2.3600
  192POPC  H16Y22251   3.109   2.060   8.396 -0.8549  0.7493  2.1562
  192POPC  H16Z22252   3.208   1.933   8.468  0.1281  3.8939 -0.0030
  193SOD    SOD22253   6.581   1.339   4.509  0.2176  0.0388  0.5482
  194SOD    SOD22254   1.098   6.500   4.409 -0.0029  0.0253 -0.3354
  195SOD    SOD22255   4.656   5.013   6.490 -0.0094  0.6346 -0.2644
  196SOD    SOD22256   0.363   6.326  16.563 -0.4798 -0.2844  0.6045
  197SOD    SOD22257   6.220   4.288   0.613  0.0232  0.2689 -0.1835
  198SOD    SOD22258   0.648   6.407   5.521  0.3174  0.1181  0.2458
  199SOD    SOD22259   1.412   0.884  13.223 -0.4430 -0.4805  0.3220
  200SOD    SOD22260   1.589   4.640  11.191  0.3237  0.4578  0.5541
  201SOD    SOD22261   4.331   5.656   5.719  0.1439 -0.1757  0.5771
  202SOD    SOD22262   5.234   5.194   0.553  0.2791 -0.5156  0.3139
  203SOD    SOD22263   2.645   6.254   6.305  0.1271  0.0586 -0.5914
  204SOD    SOD22264   5.258   2.867   0.022 -0.0343  0.1195 -0.0861
  205SOD    SOD22265   2.760   0.192   5.403  0.3812  0.5216 -0.3577
  206SOD    SOD22266   3.538   4.255   2.917 -0.2532  0.2965 -0.4351
  207SOD    SOD22267   0.833   3.583   2.204 -0.2837 -0.6292  0.4034
  208SOD    SOD22268   5.994   0.313  16.440 -0.3942  0.4661 -0.0067
  209SOD    SOD22269   5.841   4.573  15.618 -0.5052  0.0556 -0.3733
  210SOD    SOD22270   0.601   2.719  11.240  0.0020 -0.1938 -0.0302
  211SOD    SOD22271   0.032   6.770   0.701 -0.1735 -0.1370  0.2115
  212SOD    SOD22272   1.583   2.844  15.433 -0.3149 -0.0816  0.2066
  213SOD    SOD22273   3.523   2.935   6.432 -0.3369 -0.1516 -0.5613
  214SOD    SOD22274   5.882   2.299  14.155 -0.1593  0.0136  0.0833
  215SOD    SOD22275   0.730   5.931  13.758  0.0654  0.1439  0.1030
  216SOD    SOD22276   4.196   5.750  10.668  0.5834  0.0545 -0.2307
  217SOD    SOD22277   3.066   3.005   3.774  0.2441  0.1343  0.2149
  218SOD    SOD22278   2.807   6.557  11.335  0.1139 -0.0232  0.1391
  219SOD    SOD22279   6.206   3.501   3.047  0.4092 -0.5453  0.2451
  220SOD    SOD22280   2.706   0.648  13.490 -0.4228  0.3173 -0.1146
  221SOD    SOD22281   3.601   4.141  11.897  0.3679  0.4409  0.0760
  222SOD    SOD22282   2.352   4.216   5.310 -0.4820 -0.2383  0.6900
  223SOD    SOD22283   3.391   1.141  11.552 -0.2073 -0.0967 -0.0170
  224SOD    SOD22284   4.026   0.437  14.249  0.7515 -0.7136 -0.0259
  225SOD    SOD22285   4.377   0.844  13.378 -0.0576  0.1571 -0.3103
  226SOD    SOD22286   1.865   0.219  10.661 -0.3150  0.3302  0.2161
  227SOD    SOD22287   0.188   5.190   5.959  0.7268 -0.5794 -0.3732
  228SOD    SOD22288   0.285   2.422  15.262  0.3276 -0.1181 -0.3192
  229SOD    SOD22289   0.920   6.406  16.366 -0.1319 -0.5560 -0.0966
  230SOD    SOD22290   0.272   2.220   6.577 -0.4854 -0.1426  0.4612
  231SOD    SOD22291   2.810   1.920   1.505  0.1876  0.2858 -0.1388
  232SOD    SOD22292   2.504   2.650   6.056  0.2256  0.3246 -0.1321
  233SOD    SOD22293   5.401   1.182  11.215 -0.7665 -0.2486 -0.4497
  234SOD    SOD22294   3.218   4.086  15.578  0.2893 -0.2494 -0.1372
  235SOD    SOD22295   1.519   5.255  11.373 -0.1251  0.6762  0.6432
  236SOD    SOD22296   0.337   2.399   3.844 -0.0442  0.5594 -0.0424
  237SOD    SOD22297   1.289   5.569  11.506  0.4665 -0.6993  0.1664
  238SOD    SOD22298   3.904   1.976   2.014  0.4475  0.1169  0.0670
  239SOD    SOD22299   5.580   6.124  15.134  0.1593  0.0763 -0.1712
  240SOD    SOD22300   5.818   5.155  10.654 -0.0008 -0.0491 -0.4870
  241SOD    SOD22301   4.745   1.582  11.983  0.3597  0.3174 -0.0581
  242SOD    SOD22302   6.223   0.453   2.686 -0.1075  0.1680 -0.2234
  243SOD    SOD22303   3.273   4.510  16.503  0.2979  0.3573 -0.2050
  244SOD    SOD22304   6.002   0.651  14.276  0.0474  0.0679  0.3853
  245SOD    SOD22305   1.267   3.711  15.590  0.3665 -0.1169  0.1686
  246SOD    SOD22306   5.674   3.256  11.892  0.7704 -0.2991 -0.2244
  247SOD    SOD22307   3.521   3.104   5.612 -0.3183 -0.2695 -0.2733
  248SOD    SOD22308   3.538   5.217  11.015  0.0367 -0.4495  0.1372
  249SOD    SOD22309   0.834   6.508  12.538 -0.3226  0.0169 -0.0716
  250SOD    SOD22310   4.625   3.528   4.657  0.0105  0.0842 -0.1979
  251SOD    SOD22311   3.698   2.483   4.824  0.0669  0.1424 -0.0880
  252SOD    SOD22312   4.220   0.819   2.625  0.2255 -0.1524  0.5055
  253SOD    SOD22313   5.271   5.390  15.483  0.2132 -0.1873  0.2128
  254SOD    SOD22314   1.840   0.211  12.668 -0.2704 -0.1669 -0.2361
  255SOD    SOD22315   5.772   2.769  13.875  0.2018 -0.5891 -0.0343
  256SOD    SOD22316   6.558   6.781  13.880 -0.1921  0.2990 -0.2169
  257SOD    SOD22317   1.537   1.962   5.271 -0.0672  0.1965  0.2312
  258SOD    SOD22318   3.912   2.178  10.886  0.0744 -0.0268  0.0128
  259SOD    SOD22319   4.387   6.396  15.769 -0.1644  0.2416 -0.0542
  260SOD    SOD22320   5.718   3.747   5.846  0.1184  0.3453 -0.2425
  261SOD    SOD22321   3.237   1.057   2.519 -0.5733  0.7060 -0.0561
  262SOD    SOD22322   5.220   4.863   5.457  0.1293  0.0880 -0.4484
  263SOD    SOD22323   2.250   6.762   0.039  0.2642  0.0081 -0.0401
  264SOD    SOD22324   4.238   1.412   4.982 -0.8428  0.1194  0.0033
  265SOD    SOD22325   4.611   3.044  13.947 -0.4670 -0.0121 -0.2762
  266SOD    SOD22326   0.441   6.493  14.071 -0.4295 -0.1013 -0.2226
  267SOD    SOD22327   1.505   6.471  15.480  0.0230 -0.2707  0.2399
  268SOD    SOD22328   0.935   1.203  16.759  0.0107 -0.5844 -0.6384
  269SOD    SOD22329   3.271   2.759   1.388 -0.2268 -0.2502  0.4801
  270CLA    CLA22330   2.268   5.212  12.270 -0.2729 -0.0648  0.2732
  271CLA    CLA22331   5.941   2.468  13.082  0.6040  0.3959 -0.0907
  272CLA    CLA22332   0.099   6.587  16.322  0.0761 -0.2095  0.0439
  273CLA    CLA22333   3.532   6.414  16.598  0.1810  0.4003  0.0262
  274CLA    CLA22334   2.833   0.642  15.653  0.1894  0.1315 -0.1632
  275CLA    CLA22335   3.813   5.132   1.269 -0.0604  0.0492  0.4484
  276CLA    CLA22336   5.968   6.637  14.454  0.3702 -0.1479  0.3699
  277CLA    CLA22337   4.574   1.331   5.403  0.2266 -0.1226 -0.0860
  278CLA    CLA22338   5.914   5.094  15.592  0.3138  0.1422 -0.0656
  279CLA    CLA22339   5.649   0.635  13.581 -0.1553 -0.1815  0.2478
  280CLA    CLA22340   4.708   5.656   5.345  0.4005 -0.2840 -0.3143
  281CLA    CLA22341   2.429   2.908  15.325 -0.1566  0.0475  0.1698
  282CLA    CLA22342   3.583   3.837   1.608  0.0122 -0.3752 -0.0122
  283CLA    CLA22343   6.311   3.307  16.515 -0.3310  0.2229 -0.0128
  284CLA    CLA22344   3.514   1.477   2.677  0.0366  0.0646 -0.3131
  285CLA    CLA22345   6.206   4.443  11.287  0.3551 -0.1893  0.0012
  286CLA    CLA22346   2.949   3.157   1.369 -0.0066  0.0558 -0.0506
  287CLA    CLA22347   4.587   6.054  13.957  0.0520 -0.0241 -0.2841
  288CLA    CLA22348   6.401   6.386  17.154 -0.2542 -0.2150 -0.2075
  289CLA    CLA22349   2.697   1.824   4.555  0.0480  0.2004 -0.1930
  290CLA    CLA22350   1.213   0.833  15.026 -0.0867  0.2287 -0.2175
  291CLA    CLA22351   4.898   4.218   1.169 -0.4969  0.2226  0.0386
  292CLA    CLA22352   0.579   6.154  13.690  0.0795 -0.0085  0.2971
  293CLA    CLA22353   3.270   4.742  16.051  0.1331 -0.2160  0.1403
  294CLA    CLA22354   4.523   1.375   2.259  0.6166  0.1494 -0.0088
  295CLA    CLA22355   6.027   3.355   2.829  0.4066  0.3427 -0.1171
  296CLA    CLA22356   3.366   4.530   3.531 -0.2178 -0.0171  0.5929
  297CLA    CLA22357   5.236   2.487   3.838  0.1773  0.2097  0.1849
  298CLA    CLA22358   6.556   2.646   0.285  0.6147  0.4264  0.0154
  299CLA    CLA22359   3.851   1.767   5.495  0.3341  0.0340  0.2504
  300CLA    CLA22360   1.733   2.156  13.089  0.2219  0.0789 -0.1474
  301CLA    CLA22361   5.951   4.901   5.272  0.0635  0.0578  0.4397
  302CLA    CLA22362   4.502   3.306   5.130  0.5336 -0.0282 -0.1798
  303CLA    CLA22363   0.152   1.334   4.760 -0.0877 -0.2735 -0.4097
  304CLA    CLA22364   0.526   1.605  13.640  0.2901  0.3116  0.0853
  305CLA    CLA22365   2.276   4.705  14.005  0.2597  0.0810 -0.0077
  306CLA    CLA22366   0.808   2.176  15.913 -0.2023 -0.2375  0.2336
  307CLA    CLA22367   1.194   2.049   1.943 -0.4169 -0.0399  0.0314
  308CLA    CLA22368   1.643   0.304  14.790 -0.3197 -0.2949 -0.5741
  309CLA    CLA22369   6.147   6.699   2.074 -0.3252 -0.3193 -0.4417
  310CLA    CLA22370   3.262   0.753  15.776  0.2303  0.1904 -0.1510
  311CLA    CLA22371   5.384   6.718  11.924  0.1248 -0.2686  0.0156
  312CLA    CLA22372   5.113   6.178  14.939 -0.0592  0.0729 -0.2726
  313CLA    CLA22373   3.035   1.337  11.368  0.1947  0.2637 -0.0983
  314CLA    CLA22374   2.985   0.166  12.924 -0.1368 -0.1712 -0.2493
  315CLA    CLA22375   1.233   1.033   0.171  0.0935 -0.3755  0.3822
  316CLA    CLA22376   4.275   6.644   0.430 -0.0164 -0.1307 -0.3292
  317CLA    CLA22377   3.642   1.892   3.948 -0.0542  0.0860  0.1520
  318CLA    CLA22378   1.333   6.386   1.324  0.4715 -0.3967  0.2601
  319CLA    CLA22379   0.264   4.849  16.267  0.5912  0.1138  0.3871
  320CLA    CLA22380   4.661   2.171  12.860 -0.2769  0.0743  0.1912
  321CLA    CLA22381   4.042   3.434  13.876 -0.0640 -0.1475 -0.3025
  322CLA    CLA22382   2.346   3.252  14.985  0.3058  0.2112  0.0304
  323TIP3   OH222383   3.080   0.588  14.544 -0.6810 -0.1928  0.5535
  323TIP3    H122384   3.007   0.535  14.576 -1.1113  0.3145  0.4299
  323TIP3    H222385   3.039   0.668  14.511 -0.0068  0.4272  1.1799
  324TIP3   OH222386   5.514   5.660   4.822 -0.3549 -0.0378  0.7025
  324TIP3    H122387   5.544   5.716   4.893  0.3923  0.0856  0.3044
  324TIP3    H222388   5.462   5.718   4.767  0.2287  0.2278  0.4123
  325TIP3   OH222389   3.465   1.882   2.057 -0.3162 -0.5894  0.2671
  325TIP3    H122390   3.376   1.914   2.042 -0.6823 -1.4678  0.4971
  325TIP3    H222391   3.506   1.885   1.970  0.3012  2.2475  0.5541
  326TIP3   OH222392   4.675   2.640  15.719  0.5840 -0.0798  0.1319
  326TIP3    H122393   4.675   2.677  15.807 -1.1689  0.0910  0.0850
  326TIP3    H222394   4.647   2.712  15.662  0.0383 -0.6467 -0.3397
  327TIP3   OH222395   4.993   4.984  14.102 -0.5366 -0.3858 -0.1939
  327TIP3    H122396   4.927   4.995  14.033  0.7424  0.6853 -1.3082
  327TIP3    H222397   5.076   5.002  14.058  0.4837 -1.4081  1.2400
  328TIP3   OH222398   0.506   6.338  14.273  0.1182  0.4564 -0.0710
  328TIP3    H122399   0.594   6.300  14.277 -0.4278 -0.9090 -0.5238
  328TIP3    H222400   0.466   6.314  14.356 -0.5601 -0.8679 -0.7435
  329TIP3   OH222401   3.049   4.530   3.261 -0.0767  0.0340  0.0709
  329TIP3    H122402   2.999   4.479   3.197 -1.4014  0.3430  0.8337
  329TIP3    H222403   3.103   4.465   3.306 -0.0059 -0.3485 -0.5516
  330TIP3   OH222404   6.004   1.743  15.459  0.0404  0.6595  0.2921
  330TIP3    H122405   6.015   1.720  15.366  0.4692 -2.6228  1.0098
  330TIP3    H222406   5.931   1.688  15.488 -0.7344  2.3816  1.7141
  331TIP3   OH222407   1.706   4.284  15.291  0.3489  0.1871 -0.3693
  331TIP3    H122408   1.648   4.218  15.252  1.6279 -1.6512  0.6735
  331TIP3    H222409   1.794   4.247  15.281  1.1382  1.8457  0.0960
  332TIP3   OH222410   3.360   1.634  17.231 -0.4179  0.1526 -0.2697
  332TIP3    H122411   3.406   1.640  17.315  1.2714  0.8354 -1.1939
  332TIP3    H222412   3.273   1.602  17.254 -0.4628  1.6001  1.9088
  333TIP3   OH222413   4.807   1.195   4.120 -0.0291  0.1893 -0.0170
  333TIP3    H122414   4.839   1.245   4.044 -0.9580  1.0581  0.1443
  333TIP3    H222415   4.838   1.245   4.196 -1.6666  1.0086  0.1408
  334TIP3   OH222416   3.840   3.209   5.182  0.3035  0.0531  0.3538
  334TIP3    H122417   3.748   3.232   5.195  0.2515  1.0237 -1.4296
  334TIP3    H222418   3.886   3.292   5.176  0.8369 -0.3296 -1.5801
  335TIP3   OH222419   5.888   4.265   6.089 -0.3657 -0.4658 -0.0179
  335TIP3    H122420   5.923   4.185   6.051 -1.5736 -0.6305 -0.8722
  335TIP3    H222421   5.963   4.308   6.130  0.5596 -1.3794 -0.7026
  336TIP3   OH222422   5.892   4.291  16.253 -0.3344 -0.7231  0.3845
  336TIP3    H122423   5.964   4.259  16.199 -1.7498 -3.6655  0.0312
  336TIP3    H222424   5.836   4.339  16.191  1.0440  1.3498  0.6133
  337TIP3   OH222425   6.400   4.435   4.735  0.3777  0.5745  0.2060
  337TIP3    H122426   6.388   4.412   4.827 -1.3862 -0.7594 -0.2934
  337TIP3    H222427   6.311   4.452   4.703  1.0254  1.7383 -1.0958
  338TIP3   OH222428   5.214   1.981   1.644 -0.4678  0.1200  0.6081
  338TIP3    H122429   5.184   2.026   1.565 -0.4236 -1.5032 -0.3838
  338TIP3    H222430   5.301   2.017   1.660 -0.4270  0.3892 -0.1537
  339TIP3   OH222431   6.570   4.953  17.122  0.7808 -0.3020  0.1498
  339TIP3    H122432   6.635   4.891  17.155 -0.6792 -0.7568  2.3430
  339TIP3    H222433   6.486   4.912  17.141 -0.1983  1.5249 -0.0364
  340TIP3   OH222434   4.838   6.073   2.393  0.0628  0.7370  0.1024
  340TIP3    H122435   4.747   6.045   2.383  0.7946 -1.3841 -1.1958
  340TIP3    H222436   4.852   6.073   2.488 -0.9738 -0.0417  0.2770
  341TIP3   OH222437   1.336   6.573   3.048  0.1316  0.1623  0.3045
  341TIP3    H122438   1.381   6.501   3.092 -0.9558 -0.2327  0.8205
  341TIP3    H222439   1.244   6.559   3.070 -0.2908  0.6808 -1.0913
  342TIP3   OH222440   3.506   5.103   3.609  0.1884 -0.0228 -0.5062
  342TIP3    H122441   3.548   5.130   3.691 -0.8350 -0.7024  0.2676
  342TIP3    H222442   3.578   5.077   3.552  0.9417  0.7929  0.0492
  343TIP3   OH222443   5.840   1.424   6.759 -0.4340 -0.1441  0.2239
  343TIP3    H122444   5.774   1.380   6.705 -1.3235  0.3649  0.8721
  343TIP3    H222445   5.810   1.515   6.765  0.3018  0.0887  0.5792
  344TIP3   OH222446   1.362   2.790   4.511 -0.3570 -0.5700  0.2173
  344TIP3    H122447   1.288   2.836   4.471  0.4850  0.1546 -0.5518
  344TIP3    H222448   1.383   2.840   4.589 -0.5309 -0.6443  0.3120
  345TIP3   OH222449   3.237   4.680  13.769  0.2885  0.1907  0.4550
  345TIP3    H122450   3.290   4.712  13.842 -0.6110 -1.3164  1.8590
  345TIP3    H222451   3.290   4.611  13.729  0.0124 -0.3209  0.9473
  346TIP3   OH222452   0.294   1.474  14.037 -0.6511  0.3252 -0.7116
  346TIP3    H122453   0.335   1.433  13.960 -0.3722  0.2830 -0.5410
  346TIP3    H222454   0.298   1.407  14.105  1.4450  1.2095  0.1185
  347TIP3   OH222455   6.180   3.599  13.383  0.0904  0.3046  0.0830
  347TIP3    H122456   6.114   3.535  13.356  0.1282  0.8980 -1.4998
  347TIP3    H222457   6.219   3.562  13.462 -0.7142 -1.0395 -0.1283
  348TIP3   OH222458   3.249   3.340   2.508  0.0184 -0.2326 -0.0081
  348TIP3    H122459   3.330   3.358   2.556 -0.2889  0.6217  0.2080
  348TIP3    H222460   3.263   3.379   2.422 -0.2427  0.1174  0.1046
  349TIP3   OH222461   4.351   3.019   5.183  0.0219  0.5246 -0.5295
  349TIP3    H122462   4.378   3.092   5.127 -2.5513  0.2193 -2.3274
  349TIP3    H222463   4.376   2.941   5.134  0.3589  0.2017  0.1429
  350TIP3   OH222464   3.912   0.961   1.113  0.4393  0.4005  0.1523
  350TIP3    H122465   3.891   0.908   1.189  1.5067  0.6155  0.6190
  350TIP3    H222466   3.885   0.908   1.038 -3.4652  1.3864  0.6376
  351TIP3   OH222467   1.269   2.097   0.730  0.1413  0.0780 -0.1637
  351TIP3    H122468   1.348   2.126   0.686 -0.3594  1.5051 -0.1611
  351TIP3    H222469   1.290   2.104   0.824  0.4052 -0.7265 -0.1474
  352TIP3   OH222470   5.861   4.768  13.498 -0.1767  0.2443  0.3079
  352TIP3    H122471   5.925   4.838  13.486  0.2576 -0.1903  0.0465
  352TIP3    H222472   5.795   4.806  13.555  0.4331  0.6339  0.7733
  353TIP3   OH222473   2.426   3.872  12.184  0.1824 -0.4040  0.7083
  353TIP3    H122474   2.517   3.843  12.188  0.0759 -1.0939 -0.9236
  353TIP3    H222475   2.378   3.808  12.236  0.4629 -0.8614  0.4178
  354TIP3   OH222476   4.883   3.279  15.897 -0.2660  0.0685  0.1949
  354TIP3    H122477   4.929   3.353  15.860 -0.3136 -0.3625 -0.7386
  354TIP3    H222478   4.923   3.266  15.983 -0.9380  1.7911  0.8050
  355TIP3   OH222479   4.942   6.159  15.475  0.2554  0.5507 -0.0582
  355TIP3    H122480   5.011   6.129  15.416 -0.1288  0.2206 -0.3470
  355TIP3    H222481   4.955   6.254  15.481  0.3246  0.5787 -0.6362
  356TIP3   OH222482   5.171   2.469  14.246 -0.4000 -0.5542  0.5521
  356TIP3    H122483   5.142   2.468  14.337 -2.2555 -0.9758 -0.0194
  356TIP3    H222484   5.170   2.378  14.219 -0.4794 -0.3627 -0.0954
  357TIP3   OH222485   3.879   3.014  14.800 -0.1865  0.2196 -0.1620
  357TIP3    H122486   3.818   3.041  14.868  0.1521 -1.5958  0.9513
  357TIP3    H222487   3.917   3.095  14.767 -1.6240  1.2430  0.6067
  358TIP3   OH222488   2.759   5.366  11.821  0.7085 -0.4606 -0.0981
  358TIP3    H122489   2.843   5.321  11.825  1.1718  0.0069 -2.5955
  358TIP3    H222490   2.781   5.457  11.800 -0.3741  0.0317  0.7791
  359TIP3   OH222491   1.926   0.251  16.060  0.3943  0.2442 -0.2758
  359TIP3    H122492   1.850   0.243  16.002  1.0581 -1.1015 -1.0448
  359TIP3    H222493   2.001   0.229  16.003  1.2397  0.5298  0.6991
  360TIP3   OH222494   5.898   4.372   4.085 -0.2751 -0.0408 -0.4834
  360TIP3    H122495   5.836   4.430   4.128 -1.9583 -0.6631 -1.9666
  360TIP3    H222496   5.892   4.290   4.134  0.6193  0.3826  0.3707
  361TIP3   OH222497   5.016   5.932   6.549 -0.4911 -0.3854  0.2074
  361TIP3    H122498   4.957   5.903   6.480 -0.5147  0.1314  0.0050
  361TIP3    H222499   4.963   5.990   6.604 -0.1107  0.2948 -0.1285
  362TIP3   OH222500   2.647   0.021   0.315 -0.1964  0.8246 -0.0185
  362TIP3    H122501   2.719  -0.027   0.356 -0.6293 -0.0050 -0.1872
  362TIP3    H222502   2.586   0.039   0.387 -0.1344  0.9280  0.0080
  363TIP3   OH222503   4.317   6.422  16.703 -0.1071  0.8029  0.2631
  363TIP3    H122504   4.303   6.482  16.776 -2.3981 -0.9113  1.3321
  363TIP3    H222505   4.314   6.335  16.742 -0.6565 -0.1479 -1.7555
  364TIP3   OH222506   0.759   2.362   2.535  0.1562 -0.1642 -0.5827
  364TIP3    H122507   0.772   2.287   2.478  0.3171  0.9514 -2.0710
  364TIP3    H222508   0.668   2.386   2.523  0.3666  0.4921 -0.9236
  365TIP3   OH222509   1.554   1.973  10.940 -0.1785 -0.2485  0.5144
  365TIP3    H122510   1.533   1.892  10.894 -1.2796 -0.5308  1.4614
  365TIP3    H222511   1.619   2.016  10.885 -0.0490 -1.4669 -0.3262
  366TIP3   OH222512   1.540   5.954  12.093  0.0248  0.0455  0.0701
  366TIP3    H122513   1.577   5.926  12.177 -0.7437 -1.0949  0.0491
  366TIP3    H222514   1.599   5.916  12.028  1.0554  1.5585  0.0721
  367TIP3   OH222515   4.371   3.857  17.068 -0.1240  0.1473  0.0563
  367TIP3    H122516   4.308   3.790  17.042  1.1995 -2.4360  2.9466
  367TIP3    H222517   4.317   3.926  17.107 -1.4146  0.1739 -1.6576
  368TIP3   OH222518   5.410   1.032   5.379 -0.2351  0.1374  0.0985
  368TIP3    H122519   5.340   0.966   5.375  0.3517 -0.4140 -1.6082
  368TIP3    H222520   5.489   0.982   5.399 -0.2942  0.7983  2.3705
  369TIP3   OH222521   0.367   5.494   3.204  0.1506  0.7934 -0.0641
  369TIP3    H122522   0.289   5.543   3.231 -0.7481  0.7708 -2.4123
  369TIP3    H222523   0.369   5.502   3.109  2.1405 -0.5626 -0.1952
  370TIP3   OH222524   4.951   0.498  14.573  0.3086  0.1346  0.3782
  370TIP3    H122525   4.895   0.557  14.523  0.6407 -0.1929 -0.3856
  370TIP3    H222526   5.040   0.528  14.554  0.5020 -0.8756 -0.3611
  371TIP3   OH222527   6.582   0.333  16.709  0.5297 -0.7022  0.7230
  371TIP3    H122528   6.666   0.313  16.749  0.0841 -1.3742  1.3555
  371TIP3    H222529   6.523   0.266  16.743 -0.0978 -0.6769 -0.2847
  372TIP3   OH222530   2.780   2.402  15.772  0.3253  0.0093  0.4426
  372TIP3    H122531   2.707   2.462  15.785  1.9480  2.0442  0.6860
  372TIP3    H222532   2.762   2.360  15.688 -1.5415 -0.2078  0.9180
  373TIP3   OH222533   5.203   5.083  13.976 -0.2569 -0.0981  0.5316
  373TIP3    H122534   5.224   5.175  13.994  0.4006 -0.0288 -0.5259
  373TIP3    H222535   5.276   5.034  14.012  0.4040 -0.0490 -0.6875
  374TIP3   OH222536   1.564   1.653   0.132 -0.0098 -0.2375 -0.5412
  374TIP3    H122537   1.584   1.736   0.088 -1.2498  0.8023  0.7709
  374TIP3    H222538   1.490   1.617   0.084  0.4807 -0.5801 -1.0635
  375TIP3   OH222539   3.065   6.366  15.595 -0.2983  0.0393  0.4216
  375TIP3    H122540   2.983   6.397  15.557 -0.2798  0.4912  0.7440
  375TIP3    H222541   3.125   6.359  15.520 -0.3357  0.6846  0.3208
  376TIP3   OH222542   3.941   0.664   2.503 -0.0585 -0.1109 -0.0852
  376TIP3    H122543   3.929   0.739   2.561 -0.6873 -0.1545 -0.1553
  376TIP3    H222544   3.865   0.665   2.446  0.4717 -0.1715 -0.8025
  377TIP3   OH222545   3.590   6.489   3.650 -0.2692  0.5032 -0.0072
  377TIP3    H122546   3.574   6.477   3.556  1.6880  2.9133 -0.7740
  377TIP3    H222547   3.682   6.513   3.655  0.1857 -1.3585  2.8045
  378TIP3   OH222548   5.393   0.970  15.039  0.1024  0.5848 -0.1838
  378TIP3    H122549   5.388   0.956  15.134  0.6458  1.1697 -0.0651
  378TIP3    H222550   5.319   1.027  15.019 -0.2432  0.1435 -0.1754
  379TIP3   OH222551   1.288   3.372   1.827  0.2817 -0.0528 -0.2571
  379TIP3    H122552   1.242   3.300   1.783 -0.3694 -0.7282  1.4595
  379TIP3    H222553   1.323   3.333   1.907  1.1829  1.2091 -0.0063
  380TIP3   OH222554   1.698   5.131  11.785 -0.2920  0.7675  0.0822
  380TIP3    H122555   1.726   5.219  11.810  0.8931  0.3230  0.4101
  380TIP3    H222556   1.724   5.076  11.859 -0.4013  0.0440 -0.4067
  381TIP3   OH222557   5.275   1.213   2.472 -0.1895  0.2722 -0.0180
  381TIP3    H122558   5.300   1.282   2.532  1.6153 -1.4803  1.3941
  381TIP3    H222559   5.326   1.231   2.392  1.0830  0.0456  0.7133
  382TIP3   OH222560   5.087   2.857  15.009 -0.4972 -0.4195 -0.4900
  382TIP3    H122561   5.161   2.904  15.049 -0.6310  0.9935 -1.8471
  382TIP3    H222562   5.060   2.795  15.077  2.5606 -1.7306 -0.2754
  383TIP3   OH222563   3.904   0.679  11.966  0.2882  0.3092 -0.4079
  383TIP3    H122564   3.870   0.646  11.883 -1.1717 -0.6278  0.5138
  383TIP3    H222565   3.992   0.643  11.972 -0.2802 -1.1961 -0.6973
  384TIP3   OH222566   4.107   1.034  14.416  0.2706  0.4008  0.2204
  384TIP3    H122567   4.069   1.115  14.449  1.0383  0.5322  0.8097
  384TIP3    H222568   4.045   1.004  14.349  1.0184  2.5983 -1.5896
  385TIP3   OH222569   2.172   6.456  13.623 -0.3294 -0.5775 -0.4657
  385TIP3    H122570   2.226   6.378  13.614 -1.2155 -1.1164 -1.3599
  385TIP3    H222571   2.117   6.456  13.545  0.3856  1.5414 -1.0400
  386TIP3   OH222572   3.463   5.919  12.884  0.0514  0.1435  0.5432
  386TIP3    H122573   3.458   5.921  12.789 -1.9822  0.3443  0.6031
  386TIP3    H222574   3.475   6.011  12.909 -2.8137  0.6372  0.5104
  387TIP3   OH222575   2.815   1.261  13.645 -0.9533 -0.6563  0.4878
  387TIP3    H122576   2.869   1.338  13.664 -1.2932 -0.3519  0.2414
  387TIP3    H222577   2.739   1.270  13.703 -0.9556 -0.8478  0.5150
  388TIP3   OH222578   1.924   4.128   3.809 -0.5241 -0.1572  0.1886
  388TIP3    H122579   1.960   4.214   3.829 -0.4655 -0.5787  2.1224
  388TIP3    H222580   1.982   4.067   3.856 -2.6812 -0.9821  1.9444
  389TIP3   OH222581   5.165   1.501  15.739 -0.0651  0.3216  0.0998
  389TIP3    H122582   5.119   1.423  15.770  0.7982  0.0529  0.7343
  389TIP3    H222583   5.212   1.534  15.815  0.8253  0.5595 -0.5309
  390TIP3   OH222584   0.151   6.499  13.515  0.7709  0.1160  0.3490
  390TIP3    H122585   0.089   6.427  13.529 -0.3236  0.6528 -1.3065
  390TIP3    H222586   0.117   6.571  13.568  0.9243 -0.0989  0.7360
  391TIP3   OH222587   4.740   3.651   5.485 -0.1150 -0.0045  0.3941
  391TIP3    H122588   4.664   3.593   5.488 -0.8221  0.8960  0.4673
  391TIP3    H222589   4.798   3.617   5.553 -0.2324 -0.9904  0.0146
  392TIP3   OH222590   4.747   1.629  11.748  0.3512  0.7290 -0.3484
  392TIP3    H122591   4.827   1.589  11.712 -0.1112 -0.7720  0.2338
  392TIP3    H222592   4.707   1.673  11.673  0.3998 -0.7058 -1.2508
  393TIP3   OH222593   0.231   1.758  12.688  0.1304  0.0509 -0.1893
  393TIP3    H122594   0.273   1.671  12.688  0.1137  0.0209  1.2726
  393TIP3    H222595   0.285   1.810  12.629  0.5490 -0.7691 -0.5493
  394TIP3   OH222596   5.096   5.832  16.253  0.0961 -0.6594 -0.1934
  394TIP3    H122597   5.025   5.770  16.239 -0.7902 -0.0667  1.4680
  394TIP3    H222598   5.067   5.913  16.210 -0.7416 -0.1051  1.3478
  395TIP3   OH222599   2.270   0.152  13.967  0.2164 -0.3904 -0.3143
  395TIP3    H122600   2.359   0.171  13.994  0.2380 -2.7681  1.6449
  395TIP3    H222601   2.272   0.156  13.871  2.1909  0.4352 -0.2784
  396TIP3   OH222602   0.806   3.516   4.622  0.0567  1.1261 -0.9937
  396TIP3    H122603   0.729   3.539   4.569  0.0740 -0.4913 -1.7548
  396TIP3    H222604   0.774   3.518   4.712 -0.7030  1.1300 -1.2565
  397TIP3   OH222605   3.152   4.717  11.241 -0.6706  0.5203  0.1021
  397TIP3    H122606   3.158   4.788  11.178  0.4657  0.5886  0.2567
  397TIP3    H222607   3.181   4.639  11.193 -0.4523  0.4473  0.3489
  398TIP3   OH222608   5.028   4.747  11.993  0.2545 -0.2085  0.0683
  398TIP3    H122609   5.097   4.721  11.932  0.7577  0.0598  0.5117
  398TIP3    H222610   5.037   4.842  12.002 -0.0331 -0.1986  0.2899
  399TIP3   OH222611   4.176   2.243  15.816  0.6344  0.0456  0.2990
  399TIP3    H122612   4.112   2.312  15.803  0.3724 -0.4327 -1.1681
  399TIP3    H222613   4.126   2.168  15.847  0.7012  0.1081  0.5555
  400TIP3   OH222614   4.932   6.481  12.847  0.5591 -0.6231  0.9813
  400TIP3    H122615   4.858   6.540  12.833  0.8708 -0.2701  0.8118
  400TIP3    H222616   4.986   6.489  12.768  1.7504  0.5581  1.8507
  401TIP3   OH222617   5.744   1.215   5.155  0.0302  0.0907 -0.0056
  401TIP3    H122618   5.764   1.130   5.194  2.4616  0.3550 -0.5106
  401TIP3    H222619   5.759   1.203   5.061 -1.9365  0.4979 -0.4158
  402TIP3   OH222620   3.832   6.188  14.303  0.4334 -0.2414  0.8479
  402TIP3    H122621   3.828   6.268  14.356 -0.0896  0.0414  0.3888
  402TIP3    H222622   3.900   6.135  14.345  0.0169 -0.0308  1.8184
  403TIP3   OH222623   1.911   4.124  14.975  0.3072 -0.7065 -0.2290
  403TIP3    H122624   1.988   4.107  14.921 -0.7401 -0.5849 -1.8180
  403TIP3    H222625   1.853   4.176  14.919 -1.5754 -2.0423  0.3782
  404TIP3   OH222626   2.250   0.250   3.120 -0.1188  0.6726  0.2264
  404TIP3    H122627   2.158   0.225   3.113 -1.0140  2.1653  4.0402
  404TIP3    H222628   2.293   0.173   3.158  0.4988 -0.3115 -2.2734
  405TIP3   OH222629   1.986   3.074  16.031  0.0935 -0.6507 -0.6232
  405TIP3    H122630   2.057   3.012  16.049  0.7965  0.5162  0.9036
  405TIP3    H222631   2.003   3.147  16.091 -2.0704 -0.0668 -0.6519
  406TIP3   OH222632   6.396   6.320  15.559  0.4779 -0.5903 -0.4638
  406TIP3    H122633   6.378   6.315  15.653 -0.1048  0.1242 -0.5287
  406TIP3    H222634   6.351   6.399  15.530  0.5261 -0.8863 -1.3812
  407TIP3   OH222635   1.861   2.565   4.331  0.3515  0.1804  0.5563
  407TIP3    H122636   1.866   2.506   4.406 -3.3828 -0.8800  0.1406
  407TIP3    H222637   1.775   2.605   4.337  1.5151  3.2304 -0.9880
  408TIP3   OH222638   3.317   4.643   4.785 -0.3242 -0.1234  0.1757
  408TIP3    H122639   3.307   4.572   4.721  0.1966 -1.6624  1.7457
  408TIP3    H222640   3.376   4.608   4.851  1.2075  2.3410  0.2484
  409TIP3   OH222641   5.334   4.235   1.832  0.0174  0.4838 -0.1377
  409TIP3    H122642   5.396   4.288   1.883  0.1585 -0.0575  0.2660
  409TIP3    H222643   5.263   4.295   1.811  1.9467  1.9942 -3.1160
  410TIP3   OH222644   6.223   2.754  14.083  0.4558 -0.3103  0.1700
  410TIP3    H122645   6.193   2.753  14.174 -1.7861  3.5352 -0.3244
  410TIP3    H222646   6.306   2.802  14.086 -0.0966  0.6758  0.1438
  411TIP3   OH222647   1.197   0.213   5.738  0.2849  0.7894  0.1398
  411TIP3    H122648   1.184   0.174   5.652  1.7491  0.8373 -0.1245
  411TIP3    H222649   1.168   0.146   5.800 -2.1196  1.2648 -0.3634
  412TIP3   OH222650   1.835   3.016  15.821 -0.0519  0.3045  0.0401
  412TIP3    H122651   1.893   3.041  15.892  0.3193 -0.7648  0.1294
  412TIP3    H222652   1.869   2.932  15.790 -0.9672  0.1293 -0.5509
  413TIP3   OH222653   4.307   1.632   2.261 -0.3996 -0.1333  0.4382
  413TIP3    H122654   4.282   1.656   2.350 -0.5754  1.0510  0.0979
  413TIP3    H222655   4.323   1.538   2.265 -2.6403 -0.5655  1.2087
  414TIP3   OH222656   5.184   4.002  12.544  0.0020 -0.0853 -0.2016
  414TIP3    H122657   5.215   4.049  12.621 -0.9651 -1.1695  0.8803
  414TIP3    H222658   5.261   3.997  12.487  1.3935 -1.2126  1.6587
  415TIP3   OH222659   4.750   1.173   1.133  0.2892  0.3555  0.5588
  415TIP3    H122660   4.795   1.154   1.216 -0.3146  0.5635  0.9395
  415TIP3    H222661   4.703   1.255   1.150  0.4782  0.6132 -0.1214
  416TIP3   OH222662   3.565   3.746   2.895 -0.9160  0.5471  0.2142
  416TIP3    H122663   3.601   3.778   2.812 -1.1035  0.3424  0.0528
  416TIP3    H222664   3.623   3.782   2.962 -0.8449  0.8268  0.0025
  417TIP3   OH222665   2.213   6.001   1.056  0.2068 -0.3116  0.0639
  417TIP3    H122666   2.148   6.063   1.021  0.0072 -0.1830  0.6385
  417TIP3    H222667   2.262   5.971   0.980  0.6675  0.9722 -0.1736
  418TIP3   OH222668   6.291   0.367   0.916 -0.1066  0.0549  0.2503
  418TIP3    H122669   6.325   0.358   1.005 -2.2848 -2.5024  0.9684
  418TIP3    H222670   6.207   0.411   0.926 -0.7798 -1.0234 -0.3820
  419TIP3   OH222671   0.683   0.734  13.716 -0.1381 -0.2888  0.5040
  419TIP3    H122672   0.708   0.644  13.737 -2.0834 -0.9127  0.3757
  419TIP3    H222673   0.624   0.760  13.788  0.7404  1.0649  0.7766
  420TIP3   OH222674   5.380   2.621   4.245  1.0831 -0.3189  0.3291
  420TIP3    H122675   5.300   2.572   4.228  1.6378 -1.0370 -0.3174
  420TIP3    H222676   5.351   2.703   4.286  0.1994 -1.7425  2.7928
  421TIP3   OH222677   4.268   0.836   3.746 -0.3076 -0.0528  0.4123
  421TIP3    H122678   4.349   0.882   3.724 -0.1564 -0.6555 -0.3538
  421TIP3    H222679   4.201   0.877   3.691  0.0618 -1.5336 -1.2346
  422TIP3   OH222680   3.639   1.247  10.753 -0.4430 -0.7367  0.5251
  422TIP3    H122681   3.613   1.309  10.685  0.0544 -0.5461  0.5027
  422TIP3    H222682   3.610   1.287  10.835  1.5443  0.4845  0.7048
  423TIP3   OH222683   6.371   2.129  13.987  0.1396  0.6588 -0.1186
  423TIP3    H122684   6.425   2.056  13.956 -0.7648 -0.5839  1.1379
  423TIP3    H222685   6.290   2.123  13.936 -0.2994  0.2083  0.6120
  424TIP3   OH222686   3.700   3.638   3.587  0.3690  0.1862  0.1116
  424TIP3    H122687   3.783   3.651   3.542 -0.5553 -1.5167 -2.3482
  424TIP3    H222688   3.692   3.543   3.596 -0.9956  0.3463  0.8889
  425TIP3   OH222689   6.517   1.464   1.850 -0.2543  0.4859  0.4425
  425TIP3    H122690   6.538   1.410   1.926 -3.1102  0.9879  1.6990
  425TIP3    H222691   6.481   1.402   1.786 -1.5376  0.5462  1.0702
  426TIP3   OH222692   5.001   4.434   3.779 -0.5522 -0.9275 -0.6530
  426TIP3    H122693   4.930   4.394   3.730 -0.9119 -1.7965  0.5368
  426TIP3    H222694   5.078   4.421   3.725 -1.1757 -0.5343 -1.6673
  427TIP3   OH222695   1.989   0.173  11.677  0.0772 -0.4575 -0.5864
  427TIP3    H122696   2.008   0.128  11.595  1.2935 -0.1647 -0.4917
  427TIP3    H222697   2.075   0.187  11.717 -0.5521 -1.6242  1.3070
  428TIP3   OH222698   4.807   6.466  15.497  0.6060  0.4991 -0.2444
  428TIP3    H122699   4.849   6.502  15.419  2.2315  1.6327  1.0712
  428TIP3    H222700   4.859   6.500  15.570  0.3776 -2.0791  1.2704
  429TIP3   OH222701   6.253   4.118  11.588  0.0900 -0.4629 -0.0822
  429TIP3    H122702   6.195   4.123  11.512 -2.0982 -0.4050  1.5096
  429TIP3    H222703   6.340   4.101  11.551 -0.5959  1.1637 -2.6811
  430TIP3   OH222704   6.731   4.824  15.332  1.2434  0.0674  0.7595
  430TIP3    H122705   6.752   4.814  15.239  0.8320  3.1036  0.2314
  430TIP3    H222706   6.673   4.750  15.351 -1.5393  1.1365 -2.4170
  431TIP3   OH222707   2.885   4.240   5.222  0.3033  0.1763 -0.3335
  431TIP3    H122708   2.955   4.224   5.285 -0.0020  1.0476  0.2348
  431TIP3    H222709   2.846   4.323   5.249 -2.0420 -1.0696  0.3744
  432TIP3   OH222710   0.985   6.352  14.934 -0.3493  0.2689 -0.3944
  432TIP3    H122711   0.998   6.259  14.956 -0.3085  0.4650  0.4403
  432TIP3    H222712   0.890   6.361  14.928 -0.3679  0.2346 -0.1747
  433TIP3   OH222713   1.428   5.165   3.087 -0.0675  0.4106  0.0905
  433TIP3    H122714   1.384   5.248   3.072 -0.3531  0.1538 -0.5621
  433TIP3    H222715   1.493   5.159   3.018 -2.3813 -1.4563 -2.1307
  434TIP3   OH222716   1.948   3.057   3.235 -0.1839 -0.4181 -0.3258
  434TIP3    H122717   1.885   2.991   3.208 -0.5783  0.2546 -1.0885
  434TIP3    H222718   1.911   3.094   3.315 -1.1566  0.4933 -1.1752
  435TIP3   OH222719   6.449   5.247  12.574  0.2359 -0.0340 -0.2003
  435TIP3    H122720   6.424   5.162  12.539 -0.7543 -0.1077  0.6393
  435TIP3    H222721   6.463   5.232  12.667  0.8785  0.5629 -0.1906
  436TIP3   OH222722   3.727   1.385   5.913  0.5767  0.0074 -0.9690
  436TIP3    H122723   3.713   1.317   5.979 -0.7510 -0.0137 -1.2379
  436TIP3    H222724   3.738   1.466   5.964 -1.1679  0.1140 -0.6872
  437TIP3   OH222725   0.178   0.444   3.361 -0.2244 -0.3883 -0.0696
  437TIP3    H122726   0.126   0.524   3.355  1.4329  0.8277  0.7083
  437TIP3    H222727   0.154   0.393   3.284 -0.7471  1.2282 -1.0200
  438TIP3   OH222728   4.200   4.046   5.823 -0.2351 -0.2128 -0.4241
  438TIP3    H122729   4.208   4.141   5.811  0.2286  0.0080  1.3618
  438TIP3    H222730   4.138   4.037   5.896 -0.7521 -1.3120 -0.9845
  439TIP3   OH222731   6.110   4.524  14.342 -0.2969  0.1331  0.1654
  439TIP3    H122732   6.108   4.598  14.403 -1.9146  1.8941 -1.8096
  439TIP3    H222733   6.018   4.511  14.318  0.2424 -0.6691 -1.6281
  440TIP3   OH222734   4.194   1.727   5.757 -0.2933  0.5063 -0.1821
  440TIP3    H122735   4.123   1.754   5.815 -0.5424  1.3020 -0.8414
  440TIP3    H222736   4.220   1.807   5.712  0.3560  0.0308 -0.6669
  441TIP3   OH222737   3.944   0.963  15.221  0.2317 -0.5404  0.5562
  441TIP3    H122738   3.960   0.913  15.140  1.0896  1.3493 -0.5071
  441TIP3    H222739   3.851   0.982  15.218  0.3910  0.1852 -0.4308
  442TIP3   OH222740   1.078   6.591  15.643  0.1947  0.0482  0.6791
  442TIP3    H122741   1.020   6.519  15.666 -0.9781  0.0886 -1.8388
  442TIP3    H222742   1.029   6.670  15.664  0.4417  0.0998  1.0658
  443TIP3   OH222743   1.060   2.615   0.862  0.5481  0.2829 -0.0014
  443TIP3    H122744   1.150   2.588   0.843  0.6709  0.7290 -0.0589
  443TIP3    H222745   1.066   2.660   0.947  0.4104  0.4702 -0.0913
  444TIP3   OH222746   1.794   6.266  13.765  0.0920  0.8132  0.1433
  444TIP3    H122747   1.853   6.210  13.715 -0.3203  1.0445 -0.6113
  444TIP3    H222748   1.833   6.269  13.853  1.3269  1.1320 -0.3827
  445TIP3   OH222749   0.711   5.272   5.922 -0.0301 -0.1488 -0.1204
  445TIP3    H122750   0.699   5.358   5.881  1.3958  0.1642  0.0623
  445TIP3    H222751   0.725   5.292   6.015 -0.8208 -0.6786  0.1275
  446TIP3   OH222752   3.910   4.141  12.997  0.3487 -0.0649  0.0916
  446TIP3    H122753   3.982   4.177  13.049  2.4038 -2.6114 -0.7498
  446TIP3    H222754   3.886   4.060  13.041  0.8092 -1.2924 -1.7901
  447TIP3   OH222755   4.209   0.075   6.476  0.1737  0.0482  0.4412
  447TIP3    H122756   4.214   0.091   6.382 -0.1729  1.2478  0.6143
  447TIP3    H222757   4.286   0.119   6.512  1.1557 -1.6996  0.5804
  448TIP3   OH222758   2.167   3.044   0.557  0.4557  0.1884 -0.3546
  448TIP3    H122759   2.076   3.028   0.532 -0.0329  0.4625  1.1458
  448TIP3    H222760   2.217   2.981   0.505 -0.8324 -1.7408  0.6148
  449TIP3   OH222761   1.606   4.853  16.203  0.2459  0.5095  0.4700
  449TIP3    H122762   1.602   4.759  16.225  0.3602  0.2862 -0.4367
  449TIP3    H222763   1.680   4.859  16.142  0.8795  1.3532  1.2893
  450TIP3   OH222764   5.929   0.572   5.845  0.3265 -0.3804  0.3315
  450TIP3    H122765   5.912   0.479   5.854  0.4792 -0.4594 -0.1800
  450TIP3    H222766   5.841   0.612   5.838  0.2572 -0.4658  0.6853
  451TIP3   OH222767   1.021   3.953   3.293 -0.1986 -0.0488 -0.1524
  451TIP3    H122768   1.104   3.996   3.312 -0.7115  0.3796  1.1944
  451TIP3    H222769   1.004   3.897   3.369  0.5691 -2.9109 -1.9338
  452TIP3   OH222770   0.784   5.583   5.361 -0.6596  0.6096 -0.3097
  452TIP3    H122771   0.754   5.533   5.436 -0.3584 -0.2838 -0.7753
  452TIP3    H222772   0.833   5.656   5.399  0.8042 -0.6633  0.3670
  453TIP3   OH222773   2.375   2.909  11.331 -0.0635  1.0596 -0.1313
  453TIP3    H122774   2.403   2.880  11.244 -0.6250 -0.7603  0.2506
  453TIP3    H222775   2.352   3.001  11.319 -0.6389  0.7193 -2.0323
  454TIP3   OH222776   5.931   4.196  16.513  0.2686  0.3646 -0.0045
  454TIP3    H122777   5.985   4.118  16.498  1.6082  1.1801  0.3323
  454TIP3    H222778   5.919   4.234  16.426 -0.8839 -0.4970 -0.2476
  455TIP3   OH222779   5.921   3.351   0.098  0.1843 -0.4585  0.5353
  455TIP3    H122780   5.944   3.258   0.093  0.4557 -0.3486 -0.3198
  455TIP3    H222781   5.837   3.352   0.144 -0.3633 -1.2191 -0.4022
  456TIP3   OH222782   3.877   1.529  16.745 -0.0396 -0.3120 -0.0268
  456TIP3    H122783   3.783   1.510  16.738 -0.3248  1.1262 -0.3798
  456TIP3    H222784   3.882   1.607  16.800  0.9117 -0.0264 -0.4981
  457TIP3   OH222785   4.187   2.886   4.002  0.3749 -0.0464 -0.2304
  457TIP3    H122786   4.136   2.945   3.946 -0.8955  0.6453  1.5430
  457TIP3    H222787   4.176   2.799   3.962  0.2930  0.5450 -1.5492
  458TIP3   OH222788   6.773   0.864   0.060 -0.2062  0.3495 -0.0818
  458TIP3    H122789   6.800   0.833  -0.027  2.0249 -1.0625  1.0391
  458TIP3    H222790   6.854   0.871   0.110 -1.4165  1.2317  1.8852
  459TIP3   OH222791   4.905   1.660   0.777 -0.2309  0.0340  0.3216
  459TIP3    H122792   4.860   1.579   0.755 -2.4388  1.8298 -2.5351
  459TIP3    H222793   4.978   1.664   0.716 -0.6090  0.5395 -0.1064
  460TIP3   OH222794   3.410   3.381   3.579  0.0399  0.8421  0.3420
  460TIP3    H122795   3.454   3.397   3.663 -0.1474  0.0848  0.5951
  460TIP3    H222796   3.471   3.325   3.530 -1.1157 -1.2939  1.1921
  461TIP3   OH222797   1.806   1.206   3.344 -0.2743  0.3331 -0.4564
  461TIP3    H122798   1.787   1.289   3.389  1.0349 -0.2026  1.2135
  461TIP3    H222799   1.866   1.229   3.274 -2.1206  1.1568 -1.8291
  462TIP3   OH222800   3.121   5.543  15.772  0.1457 -0.7033 -0.1853
  462TIP3    H122801   3.097   5.452  15.788  1.6941 -0.8882  1.3256
  462TIP3    H222802   3.137   5.579  15.859 -2.1735  1.5567 -0.5836
  463TIP3   OH222803   4.893   5.105  15.510 -0.0579  0.1273 -0.2532
  463TIP3    H122804   4.861   5.016  15.495  2.0109 -0.4851 -1.3045
  463TIP3    H222805   4.919   5.136  15.423 -0.1346  1.5291  0.2001
  464TIP3   OH222806   4.490   3.687  16.674  0.4667 -0.1697  0.4421
  464TIP3    H122807   4.435   3.644  16.739 -1.3031  0.4626 -0.5912
  464TIP3    H222808   4.467   3.779  16.680  0.8023 -0.0066 -0.5773
  465TIP3   OH222809   5.221   1.352   3.944 -0.0268 -0.2445  0.4803
  465TIP3    H122810   5.210   1.359   3.849  0.7219  0.5585  0.4417
  465TIP3    H222811   5.140   1.388   3.980  0.2236  0.6773  0.1517
  466TIP3   OH222812   1.711   6.740  13.585  0.0055  0.9231 -0.2256
  466TIP3    H122813   1.695   6.741  13.491  0.3442  1.3178 -0.2818
  466TIP3    H222814   1.664   6.663  13.617 -0.2835  0.9056 -0.6858
  467TIP3   OH222815   5.877   5.202   5.802 -0.5851 -0.4103 -0.2881
  467TIP3    H122816   5.888   5.138   5.731 -1.0375 -1.4385  0.5435
  467TIP3    H222817   5.812   5.264   5.769  2.1958  1.6499 -2.4480
  468TIP3   OH222818   1.675   4.859  11.156 -0.5727 -0.1433 -0.1375
  468TIP3    H122819   1.658   4.931  11.217  1.1665 -1.9545  2.6651
  468TIP3    H222820   1.769   4.862  11.140 -0.3655 -2.0383  0.4573
  469TIP3   OH222821   6.699   4.739   0.885  0.0483  0.1950 -0.0684
  469TIP3    H122822   6.635   4.737   0.956  1.5286 -1.1421  1.2923
  469TIP3    H222823   6.783   4.722   0.927  1.2407  1.1868 -1.9035
  470TIP3   OH222824   5.601   6.760  16.079 -0.3784 -0.1431  0.2323
  470TIP3    H122825   5.613   6.696  16.150 -1.3745 -0.0122  0.5312
  470TIP3    H222826   5.656   6.727  16.009 -0.0524 -0.7559  0.7588
  471TIP3   OH222827   6.514   5.217   2.865  0.7625 -0.0011 -0.1838
  471TIP3    H122828   6.594   5.268   2.853  1.2310 -1.2225 -2.7731
  471TIP3    H222829   6.448   5.264   2.815  0.2393  0.1112  0.5989
  472TIP3   OH222830   4.775   0.196   3.980  0.1645 -0.5247 -0.1781
  472TIP3    H122831   4.831   0.125   3.951  1.9378  0.6703  0.1673
  472TIP3    H222832   4.714   0.210   3.907  0.5650 -1.5806 -0.7298
  473TIP3   OH222833   6.692   5.505  12.944  0.1246 -0.4956  0.2012
  473TIP3    H122834   6.694   5.414  12.974  1.3137 -0.6254 -0.2065
  473TIP3    H222835   6.698   5.500  12.849 -1.3701 -0.0147  0.0533
  474TIP3   OH222836   2.782   1.261   1.849 -0.1040  0.0999  0.9147
  474TIP3    H122837   2.739   1.247   1.764  0.7284  2.4243  0.0463
  474TIP3    H222838   2.875   1.258   1.829  0.1123 -0.3179  1.9524
  475TIP3   OH222839   4.776   0.081  12.038  0.1750 -0.4022 -0.3197
  475TIP3    H122840   4.845   0.146  12.056 -0.6940  0.1867  1.0330
  475TIP3    H222841   4.766   0.082  11.942  0.6358  0.9777 -0.3697
  476TIP3   OH222842   5.316   2.695   0.649 -0.1736 -0.0264  0.0228
  476TIP3    H122843   5.303   2.608   0.687  0.5381 -0.7329 -1.2382
  476TIP3    H222844   5.409   2.713   0.663 -0.4323  0.7802  0.7415
  477TIP3   OH222845   6.494   1.968   1.038 -0.0189 -0.3263 -0.4747
  477TIP3    H122846   6.406   1.932   1.049 -0.1462 -0.2429 -1.1497
  477TIP3    H222847   6.551   1.892   1.036 -0.0361 -0.3636  0.2856
  478TIP3   OH222848   6.656   5.544   2.165 -1.0350  0.5932 -0.2304
  478TIP3    H122849   6.697   5.464   2.132  0.1162  1.6562 -1.5087
  478TIP3    H222850   6.582   5.560   2.106 -1.5546  0.2431  0.3107
  479TIP3   OH222851   4.269   4.415  16.265 -0.2012  0.3573  0.7293
  479TIP3    H122852   4.271   4.509  16.281  1.1689  0.4482  0.1249
  479TIP3    H222853   4.278   4.406  16.170 -0.1850 -0.3936  0.7944
  480TIP3   OH222854   4.838   4.908  12.255  0.7797 -0.1739  0.0405
  480TIP3    H122855   4.818   4.888  12.346 -0.0779 -1.4188 -0.3849
  480TIP3    H222856   4.927   4.942  12.256 -0.0691  2.2871  1.6202
  481TIP3   OH222857   2.008   6.022   3.871  0.4844 -0.0327 -0.4134
  481TIP3    H122858   2.027   6.095   3.930 -0.2648 -1.9267  2.3967
  481TIP3    H222859   1.912   6.022   3.863  0.4875 -0.5749 -0.5253
  482TIP3   OH222860   4.903   5.861   3.460  0.0362  0.0892  0.2152
  482TIP3    H122861   4.916   5.905   3.545 -0.7944 -0.2047  0.5008
  482TIP3    H222862   4.931   5.926   3.395 -0.7420  0.8782  0.6523
  483TIP3   OH222863   6.522   1.767  13.053  0.2605  0.3633  0.2290
  483TIP3    H122864   6.426   1.766  13.053  0.2656 -0.4543  0.1615
  483TIP3    H222865   6.547   1.789  12.964  0.1359  0.3370  0.1883
  484TIP3   OH222866   3.865   2.464  12.190  0.0044  0.0705 -0.6373
  484TIP3    H122867   3.854   2.552  12.156 -0.5909  0.1950 -0.1609
  484TIP3    H222868   3.789   2.416  12.157 -0.7356  0.2685  0.6963
  485TIP3   OH222869   6.356   1.161   0.599 -0.5008 -0.8247 -0.2277
  485TIP3    H122870   6.378   1.083   0.548 -0.8631 -0.5827 -0.7691
  485TIP3    H222871   6.299   1.129   0.668  0.0304 -1.1653  0.0528
  486TIP3   OH222872   0.278   1.314  12.901  0.1466  0.0824  0.0312
  486TIP3    H122873   0.243   1.379  12.963  0.2288 -0.0213  0.1867
  486TIP3    H222874   0.208   1.303  12.837 -0.5589 -0.9358  0.9401
  487TIP3   OH222875   6.038   3.980  12.900 -0.3951 -0.5010  0.0339
  487TIP3    H122876   6.039   4.020  12.813 -0.8152  1.2164  0.7718
  487TIP3    H222877   6.130   3.980  12.927 -0.3391 -0.4211 -0.1543
  488TIP3   OH222878   2.241   2.552  12.485  0.8756 -0.7808 -0.1302
  488TIP3    H122879   2.182   2.578  12.556  0.1651 -1.9020 -0.2874
  488TIP3    H222880   2.238   2.457  12.485  3.7409 -0.9531  0.7250
  489TIP3   OH222881   0.206   0.331  12.905  0.2003 -0.0617  0.2240
  489TIP3    H122882   0.142   0.389  12.864  1.0359  0.0260 -0.9783
  489TIP3    H222883   0.176   0.243  12.884 -1.2870 -0.1466  2.3746
  490TIP3   OH222884   1.434   0.194   4.258 -0.2206  0.2476 -0.6239
  490TIP3    H122885   1.497   0.159   4.321 -1.7719 -0.1175  0.7887
  490TIP3    H222886   1.488   0.229   4.188  1.5758  0.3515  0.7296
  491TIP3   OH222887   3.975   3.228  14.581  0.3733 -0.0039 -0.3975
  491TIP3    H122888   4.059   3.220  14.625 -0.5472  1.7342  1.9057
  491TIP3    H222889   3.988   3.187  14.495  2.1488 -4.1242  1.6053
  492TIP3   OH222890   2.271   6.432  13.227 -0.7202  0.8962 -0.1023
  492TIP3    H122891   2.258   6.477  13.144 -1.1702 -0.9743 -1.1096
  492TIP3    H222892   2.204   6.468  13.285 -0.9743  1.5980 -0.8151
  493TIP3   OH222893   2.572   2.411   6.043  0.7246 -0.0136 -0.4905
  493TIP3    H122894   2.522   2.334   6.016 -0.5859  0.0769  1.4566
  493TIP3    H222895   2.598   2.392   6.133  3.2527  0.4777 -1.0318
  494TIP3   OH222896   2.230   3.878   4.946 -0.1920 -0.0683  0.1169
  494TIP3    H122897   2.150   3.861   4.895  0.1392  2.4239 -1.4155
  494TIP3    H222898   2.214   3.835   5.030 -3.2854  0.5163 -0.0334
  495TIP3   OH222899   3.093   4.474  11.841  0.5685  0.0156 -0.3820
  495TIP3    H122900   3.156   4.422  11.790  1.3596  0.7562 -0.1801
  495TIP3    H222901   3.074   4.549  11.785 -4.1160 -2.5068 -2.8123
  496TIP3   OH222902   0.149   4.532  16.622 -0.6903 -0.1255  0.0203
  496TIP3    H122903   0.108   4.613  16.655  0.4898  0.5004  0.0107
  496TIP3    H222904   0.230   4.525  16.672  0.5800  0.2214 -1.8879
  497TIP3   OH222905   1.733   0.713  16.043  0.7530 -0.3530 -0.2930
  497TIP3    H122906   1.785   0.651  16.093  0.5031 -0.6840 -0.4398
  497TIP3    H222907   1.793   0.784  16.023  1.6478 -1.4904 -1.8872
  498TIP3   OH222908   6.030   0.181  12.891  0.0799  0.0484  0.1582
  498TIP3    H122909   5.958   0.119  12.904  0.6716 -0.3010  2.1117
  498TIP3    H222910   6.041   0.186  12.796 -2.6179  0.2446 -0.2296
  499TIP3   OH222911   4.571   1.044   3.984 -0.0644 -0.1643  0.4517
  499TIP3    H122912   4.503   1.107   4.006 -1.2615 -1.4184  0.4697
  499TIP3    H222913   4.653   1.092   3.995 -0.9639  2.0384 -1.6576
  500TIP3   OH222914   4.480   1.652  11.980  0.2642  0.3119  0.3983
  500TIP3    H122915   4.442   1.736  12.005  0.7000  1.2713 -1.9043
  500TIP3    H222916   4.410   1.609  11.931 -0.3824 -1.2653  2.5598
  501TIP3   OH222917   4.152   4.964   0.603  0.7395  0.1848  0.3267
  501TIP3    H122918   4.069   4.916   0.602 -0.3630  1.9281 -1.9553
  501TIP3    H222919   4.217   4.900   0.574  0.2016 -1.1533  1.9483
  502TIP3   OH222920   6.625   4.907   3.424 -0.4320 -0.1442 -0.4853
  502TIP3    H122921   6.617   4.904   3.328 -0.5512  1.3387 -0.5433
  502TIP3    H222922   6.718   4.893   3.441 -0.2684  0.4036 -0.8842
  503TIP3   OH222923   1.026   4.846  10.980 -0.4664 -0.2014 -0.3153
  503TIP3    H122924   0.974   4.880  10.906 -0.2803  0.1965 -0.2643
  503TIP3    H222925   0.973   4.774  11.015 -0.8261 -0.0211 -0.4798
  504TIP3   OH222926   0.924   0.038   1.048 -0.1799  0.6190  0.6288
  504TIP3    H122927   0.866  -0.032   1.077  0.2516  0.6866  1.7174
  504TIP3    H222928   0.909   0.045   0.954 -0.5408 -0.6357  0.5825
  505TIP3   OH222929   2.037   2.625   3.594 -0.1808 -0.2147  0.5302
  505TIP3    H122930   2.105   2.634   3.660  2.4180 -1.5641 -1.7528
  505TIP3    H222931   2.012   2.533   3.598 -0.2225 -0.2380 -0.1349
  506TIP3   OH222932   3.233   1.312  15.587  0.0270 -0.0836  0.3807
  506TIP3    H122933   3.210   1.222  15.609 -1.4939  0.2733  0.3612
  506TIP3    H222934   3.265   1.307  15.497 -0.4136 -0.5592  0.2464
  507TIP3   OH222935   6.457   6.032   1.493 -0.1228 -0.2612  0.3285
  507TIP3    H122936   6.418   5.945   1.480 -1.7346  0.5605 -0.6465
  507TIP3    H222937   6.550   6.020   1.471 -0.2431 -1.8111  0.5587
  508TIP3   OH222938   1.807   6.309  13.364 -0.1773 -0.3152  0.2137
  508TIP3    H122939   1.797   6.331  13.457  1.3582 -1.6059  0.7303
  508TIP3    H222940   1.730   6.348  13.322  0.5592  2.8623  1.5300
  509TIP3   OH222941   5.125   2.657   3.597  0.5203  0.0547  0.0728
  509TIP3    H122942   5.142   2.588   3.661 -0.4354 -1.3027 -1.0894
  509TIP3    H222943   5.201   2.715   3.604  1.2441 -0.9733  1.2289
  510TIP3   OH222944   3.298   6.322  12.188  0.6528 -0.4447  0.0623
  510TIP3    H122945   3.304   6.335  12.282 -1.0966 -2.6590  0.5445
  510TIP3    H222946   3.219   6.371  12.162  0.5531 -0.6807 -0.0806
  511TIP3   OH222947   3.824   2.275  13.040  0.0473 -0.5566  0.2790
  511TIP3    H122948   3.808   2.365  13.012 -0.0255 -0.4596  0.6343
  511TIP3    H222949   3.900   2.281  13.098  2.0186 -1.1126 -2.0770
  512TIP3   OH222950   5.098   5.124   0.744  0.1401  0.0565 -0.9310
  512TIP3    H122951   5.071   5.040   0.708 -1.2246 -0.6836  1.5424
  512TIP3    H222952   5.116   5.106   0.837 -2.4848  2.8049  0.3148
  513TIP3   OH222953   5.092   3.361  16.082  0.4164  0.3741  0.6452
  513TIP3    H122954   5.178   3.393  16.055  1.0781 -1.4070  0.5235
  513TIP3    H222955   5.092   3.370  16.177  0.8271  0.1691  0.6659
  514TIP3   OH222956   0.736   4.422   0.185 -0.5775 -0.2442 -0.7051
  514TIP3    H122957   0.699   4.338   0.213 -0.4639  0.1001  0.5375
  514TIP3    H222958   0.818   4.430   0.235  0.5422 -0.3921 -2.4481
  515TIP3   OH222959   0.453   3.832  14.274 -0.0968  0.2946 -0.2115
  515TIP3    H122960   0.506   3.758  14.247 -0.3382  0.5274 -1.3625
  515TIP3    H222961   0.395   3.849  14.200 -0.7607  0.9788  0.4402
  516TIP3   OH222962   5.136   2.370  15.031  0.3496  0.4136  0.2498
  516TIP3    H122963   5.131   2.377  14.935  1.1866 -0.2564  0.1522
  516TIP3    H222964   5.047   2.346  15.057  0.2604 -0.0266 -0.4224
  517TIP3   OH222965   1.829   3.864  14.074 -0.0926  0.1358  0.2079
  517TIP3    H122966   1.817   3.920  13.998 -1.2850 -0.4673 -0.0764
  517TIP3    H222967   1.887   3.794  14.044 -0.2215  0.1278 -0.0229
  518TIP3   OH222968   1.064   3.079  14.203 -0.2599  0.4141  0.3510
  518TIP3    H122969   1.103   3.034  14.278  1.2586 -1.1114 -1.2777
  518TIP3    H222970   1.004   3.015  14.165 -2.0940  1.6592  0.9823
  519TIP3   OH222971   4.573   3.606  11.372  0.3515 -0.1549 -0.3674
  519TIP3    H122972   4.492   3.587  11.420 -0.0883 -0.6088 -1.2454
  519TIP3    H222973   4.595   3.523  11.330  0.3182  0.3901 -1.5143
  520TIP3   OH222974   2.675   1.933   5.863 -0.2916  0.8340  0.1267
  520TIP3    H122975   2.732   1.857   5.847 -2.1490 -0.5782 -0.2191
  520TIP3    H222976   2.672   1.978   5.779  1.3929  1.7685  0.5184
  521TIP3   OH222977   1.537   1.141  11.963 -0.0927 -0.7977 -0.2690
  521TIP3    H122978   1.506   1.178  12.046  1.4807 -0.9465  0.4251
  521TIP3    H222979   1.604   1.077  11.988  1.2622 -0.0114 -1.6777
  522TIP3   OH222980   6.374   0.586   5.600 -0.1250  0.1548 -0.3208
  522TIP3    H122981   6.445   0.564   5.659  0.5555  0.4555 -1.0130
  522TIP3    H222982   6.299   0.603   5.658  0.7004  1.1295  0.5078
  523TIP3   OH222983   0.951   5.659   2.052  0.2443  0.4092  0.6547
  523TIP3    H122984   0.985   5.679   1.964 -1.1902 -1.6437 -0.4507
  523TIP3    H222985   1.028   5.636   2.103  1.2237  2.5899  0.2824
  524TIP3   OH222986   6.629   2.487  14.458 -0.0815 -0.0196 -0.0788
  524TIP3    H122987   6.584   2.571  14.448  0.8170  0.3769 -0.9736
  524TIP3    H222988   6.708   2.507  14.507 -0.0803 -0.4275  0.0934
  525TIP3   OH222989   1.083   3.808  11.994 -0.1957  0.1950  0.3711
  525TIP3    H122990   1.145   3.863  12.041  0.0728 -0.5520  0.9200
  525TIP3    H222991   1.028   3.770  12.063  0.8747 -1.7466  0.2382
  526TIP3   OH222992   0.376   2.671  13.604 -0.1654 -0.1237  0.6260
  526TIP3    H122993   0.398   2.669  13.511  0.0456  1.0936  0.6368
  526TIP3    H222994   0.395   2.582  13.635  1.1957 -0.1389 -0.1704
  527TIP3   OH222995   5.236   5.858   0.802  0.2227 -0.1760  0.3462
  527TIP3    H122996   5.225   5.931   0.741  0.4968  0.6063  1.2033
  527TIP3    H222997   5.151   5.850   0.846 -0.2425 -1.2836 -0.6872
  528TIP3   OH222998   2.700   2.995  11.933  0.1228 -0.2982 -0.1912
  528TIP3    H122999   2.661   2.940  12.001 -0.3182  0.2764  0.0294
  528TIP3    H223000   2.781   2.950  11.909 -0.2616 -1.0686 -0.0597
  529TIP3   OH223001   6.166   6.742  15.694  0.0109 -0.1565 -0.4374
  529TIP3    H123002   6.207   6.673  15.644  0.8555  0.5075 -0.6797
  529TIP3    H223003   6.169   6.819  15.637 -1.8292 -0.1353 -0.5812
  530TIP3   OH223004   2.817   3.253   0.519 -0.3700  0.0464 -0.5833
  530TIP3    H123005   2.879   3.220   0.455 -0.0313  0.0872 -0.2772
  530TIP3    H223006   2.869   3.308   0.577 -0.4518 -0.8960  0.4009
  531TIP3   OH223007   3.770   5.274  12.129  0.1768  0.0827  0.4309
  531TIP3    H123008   3.850   5.268  12.075 -0.2641 -0.3293 -0.1905
  531TIP3    H223009   3.774   5.196  12.184 -0.4440 -0.6545 -0.5277
  532TIP3   OH223010   1.265   1.144  12.424  0.9184  0.7078 -0.0477
  532TIP3    H123011   1.178   1.153  12.462  0.8507  0.7715 -0.2142
  532TIP3    H223012   1.254   1.174  12.334  1.0295  0.3752 -0.1742
  533TIP3   OH223013   2.359   1.474   1.154 -0.3260  0.0284 -0.1985
  533TIP3    H123014   2.432   1.531   1.131  0.5081 -1.0641 -0.3241
  533TIP3    H223015   2.384   1.388   1.120 -1.0936 -0.6479  0.8885
  534TIP3   OH223016   0.737   1.463  13.265 -0.4857 -0.0402 -0.3180
  534TIP3    H123017   0.822   1.458  13.222 -0.7635  0.4476 -0.9314
  534TIP3    H223018   0.739   1.546  13.313 -1.2927  0.8721 -1.8170
  535TIP3   OH223019   0.111   6.562   2.618 -0.4909  1.0960  0.3995
  535TIP3    H123020   0.181   6.602   2.669 -1.1045  0.9615  1.3785
  535TIP3    H223021   0.034   6.568   2.674 -0.7982 -0.6645  0.2317
  536TIP3   OH223022   1.093   3.461  11.027  0.2141  0.1445  0.1322
  536TIP3    H123023   1.065   3.401  11.097 -1.0167  0.9647  0.3741
  536TIP3    H223024   1.086   3.408  10.947 -1.4746  0.1084  0.2612
  537TIP3   OH223025   4.146   4.017   1.221 -0.4372 -0.3705  0.1511
  537TIP3    H123026   4.195   4.078   1.167 -1.1814 -0.2517 -0.3954
  537TIP3    H223027   4.188   3.932   1.205  0.7708  0.0072  1.1184
  538TIP3   OH223028   5.790   3.751  16.794 -0.6368 -0.6120 -0.7114
  538TIP3    H123029   5.814   3.819  16.857  0.4845  1.3845 -3.1146
  538TIP3    H223030   5.696   3.739  16.806 -0.4238 -0.5090  1.4669
  539TIP3   OH223031   5.223   4.227   1.188 -0.6032  0.1472 -0.1441
  539TIP3    H123032   5.135   4.236   1.153 -1.1522 -0.5318  1.0078
  539TIP3    H223033   5.218   4.260   1.278 -0.1014 -1.4011  0.4895
  540TIP3   OH223034   2.447   3.200   5.530 -0.5474 -0.1768  0.0239
  540TIP3    H123035   2.437   3.285   5.488  0.4227 -0.1565 -0.2026
  540TIP3    H223036   2.535   3.202   5.567 -0.9496 -0.6500  1.0327
  541TIP3   OH223037   3.393   6.002   4.067 -0.1775 -0.1717 -0.2521
  541TIP3    H123038   3.467   5.946   4.090  0.4445  0.8998  0.4716
  541TIP3    H223039   3.415   6.088   4.104 -3.0159 -0.4449  2.6033
  542TIP3   OH223040   4.951   0.002  11.553  0.3132 -0.4595 -0.0148
  542TIP3    H123041   4.909   0.066  11.611 -0.7397 -0.4402 -0.7780
  542TIP3    H223042   5.013   0.054  11.501 -0.7874  0.0310 -0.8789
  543TIP3   OH223043   3.331   0.495   4.909  0.7241 -0.5868 -0.2864
  543TIP3    H123044   3.317   0.421   4.968 -0.1671 -0.5978 -0.5011
  543TIP3    H223045   3.299   0.571   4.959 -0.6247 -0.6738 -0.9559
  544TIP3   OH223046   1.213   2.168  14.115 -0.3155 -0.2217 -0.1409
  544TIP3    H123047   1.250   2.133  14.034 -0.5957  0.3423 -0.5174
  544TIP3    H223048   1.177   2.253  14.091 -1.1010 -0.3870  0.3964
  545TIP3   OH223049   6.224   4.151   4.993  0.5621  0.4059 -0.6305
  545TIP3    H123050   6.241   4.208   5.068  2.5313 -1.5356  0.4938
  545TIP3    H223051   6.290   4.175   4.928  0.2710  0.5911 -0.8593
  546TIP3   OH223052   6.566   5.575  16.325 -0.4089  0.3265 -0.2826
  546TIP3    H123053   6.510   5.608  16.256 -2.3863 -1.0941  0.5342
  546TIP3    H223054   6.562   5.642  16.394 -0.6949  0.4740 -0.4406
  547TIP3   OH223055   2.946   1.549   1.000  0.5246 -0.4055  0.2474
  547TIP3    H123056   3.000   1.580   1.072  1.4047 -1.6901  0.1884
  547TIP3    H223057   2.990   1.581   0.921 -0.0964  0.4809  0.2489
  548TIP3   OH223058   2.130   4.000  16.154  0.1021 -0.2192 -0.8935
  548TIP3    H123059   2.121   3.910  16.123  1.7969 -0.3277 -1.1769
  548TIP3    H223060   2.146   4.051  16.075 -0.7444  0.3275 -0.7234
  549TIP3   OH223061   1.264   5.078   3.527 -0.2548 -0.3822 -0.3384
  549TIP3    H123062   1.356   5.091   3.504 -0.7777 -0.6705 -2.9496
  549TIP3    H223063   1.225   5.165   3.523 -0.2675 -0.3751 -0.0867
  550TIP3   OH223064   4.749   3.300   5.969 -0.3546  0.1958  0.1192
  550TIP3    H123065   4.694   3.222   5.979 -1.5160  1.2283  2.7342
  550TIP3    H223066   4.823   3.284   6.028 -0.0046  0.5720 -0.2174
  551TIP3   OH223067   2.983   4.470   2.398 -0.0352  0.1936 -0.1228
  551TIP3    H123068   3.055   4.529   2.378 -1.0502  1.0327 -1.4522
  551TIP3    H223069   3.014   4.383   2.372  0.4083  0.5810 -0.9128
  552TIP3   OH223070   2.412   0.351   2.087  0.3873  0.2342  0.1598
  552TIP3    H123071   2.413   0.297   2.007 -1.5381  0.2259  0.0866
  552TIP3    H223072   2.472   0.306   2.147  0.2633 -0.9557 -0.5636
  553TIP3   OH223073   0.351   5.471   0.440 -0.1968  0.2458  0.4358
  553TIP3    H123074   0.281   5.406   0.432 -0.4866  0.6975 -1.1311
  553TIP3    H223075   0.312   5.543   0.490 -0.5851  0.1201  0.3209
  554TIP3   OH223076   1.107   1.482  12.889  0.3290 -0.0809 -0.3835
  554TIP3    H123077   1.077   1.503  12.977  1.7854  1.0722 -0.1304
  554TIP3    H223078   1.028   1.486  12.835 -0.5627 -0.7102  0.8359
  555TIP3   OH223079   6.545   0.896  12.319  0.7010 -0.1265  0.0670
  555TIP3    H123080   6.513   0.845  12.245 -0.5848 -0.0601  0.5521
  555TIP3    H223081   6.533   0.987  12.293  1.0548 -0.0906  0.0216
  556TIP3   OH223082   0.794   0.907   4.209  0.2085 -0.9213  0.3339
  556TIP3    H123083   0.863   0.841   4.213 -0.4460 -1.5969  0.8209
  556TIP3    H223084   0.717   0.863   4.245 -0.6516 -0.3921 -0.7927
  557TIP3   OH223085   4.129   0.250  16.099 -0.1809 -0.3872 -0.0448
  557TIP3    H123086   4.057   0.314  16.107 -0.0517 -0.3540  1.0681
  557TIP3    H223087   4.208   0.304  16.099 -0.0404 -0.5483  1.5151
  558TIP3   OH223088   1.096   4.343   3.211  0.4323  0.7692 -1.1364
  558TIP3    H123089   1.064   4.365   3.299 -0.0578 -1.6606 -0.6547
  558TIP3    H223090   1.129   4.427   3.177  0.7555  1.7676  1.3884
  559TIP3   OH223091   2.827   1.085  16.939  0.3822 -0.0273  0.0424
  559TIP3    H123092   2.885   1.097  17.014 -3.0140  0.2266  2.8676
  559TIP3    H223093   2.832   0.992  16.918 -0.3271 -0.6112  2.2247
  560TIP3   OH223094   2.773   4.044   5.489  0.0371  0.5252 -0.2409
  560TIP3    H123095   2.765   4.038   5.584 -0.5628 -0.1922 -0.3340
  560TIP3    H223096   2.822   3.965   5.464 -3.6130 -1.7264 -0.9541
  561TIP3   OH223097   2.075   2.924   6.211 -0.2281 -0.3560 -0.5456
  561TIP3    H123098   2.042   2.939   6.299 -1.0899 -0.7037 -0.7925
  561TIP3    H223099   2.082   3.011   6.172 -0.3251 -0.2399 -0.3033
  562TIP3   OH223100   6.375   1.392  12.576 -0.4056  0.5433  0.1957
  562TIP3    H123101   6.414   1.322  12.524  0.6392  1.2070  0.0371
  562TIP3    H223102   6.431   1.468  12.558 -0.4656  0.9741  1.7158
  563TIP3   OH223103   2.308   2.219   4.981 -0.2019  0.0173 -0.1452
  563TIP3    H123104   2.396   2.250   4.960 -0.3478  1.9814  1.7924
  563TIP3    H223105   2.249   2.281   4.936 -0.6044 -0.5269 -0.3876
  564TIP3   OH223106   4.185   0.904  11.608  0.2456  0.4340  0.2884
  564TIP3    H123107   4.157   0.961  11.536 -1.5828 -0.5011  0.1972
  564TIP3    H223108   4.218   0.963  11.675 -0.6646  1.5451 -0.2119
  565TIP3   OH223109   5.930   2.793  14.051 -0.4265 -0.1212  0.4791
  565TIP3    H123110   6.020   2.768  14.030 -0.7099  0.2195 -1.2836
  565TIP3    H223111   5.939   2.869  14.109  0.4168 -0.5522  0.9218
  566TIP3   OH223112   3.273   1.346  17.198  0.2952  0.0960  0.3705
  566TIP3    H123113   3.234   1.263  17.169 -2.1981  1.2940  0.0649
  566TIP3    H223114   3.280   1.399  17.119  0.4665  0.7176  0.7924
  567TIP3   OH223115   1.281   4.189  16.366 -0.5179 -0.8462  0.8711
  567TIP3    H123116   1.344   4.118  16.383 -0.6438 -0.7569  1.7757
  567TIP3    H223117   1.333   4.269  16.378 -0.2324 -0.7682 -0.7146
  568TIP3   OH223118   4.342   5.639   6.678  0.3044  0.0923  0.6258
  568TIP3    H123119   4.261   5.685   6.699 -0.1916 -0.4592 -0.0346
  568TIP3    H223120   4.362   5.666   6.588  0.0527 -0.8958  0.2617
  569TIP3   OH223121   5.392   4.613  13.146 -0.2291  0.4743 -0.4025
  569TIP3    H123122   5.436   4.588  13.227 -1.7391  1.3810  0.7452
  569TIP3    H223123   5.455   4.670  13.101  0.4206  0.3831  0.3824
  570TIP3   OH223124   4.652   5.267   3.041  0.0890 -0.1373 -0.0074
  570TIP3    H123125   4.643   5.311   2.957 -1.6213  0.0857  0.2437
  570TIP3    H223126   4.742   5.236   3.043 -0.2151 -1.4564 -2.5636
  571TIP3   OH223127   3.245   1.305   0.800  0.6160  0.0024 -0.1159
  571TIP3    H123128   3.287   1.241   0.858  0.3345 -1.9160 -1.9065
  571TIP3    H223129   3.269   1.277   0.712 -1.1320  1.2247 -1.0425
  572TIP3   OH223130   0.027   5.696   0.942  0.1458 -0.2792 -0.3682
  572TIP3    H123131   0.007   5.789   0.931  0.0186 -0.2980 -0.3014
  572TIP3    H223132  -0.053   5.651   0.917  1.2508 -0.6017 -3.8980
  573TIP3   OH223133   2.530   4.407   1.061 -0.5153 -0.0950 -0.2621
  573TIP3    H123134   2.444   4.382   1.028 -0.3724 -2.3854  0.8643
  573TIP3    H223135   2.590   4.385   0.990 -0.7163  0.0681 -0.4835
  574TIP3   OH223136   3.396   6.698  16.124  0.2620 -0.0310 -0.1059
  574TIP3    H123137   3.411   6.758  16.051 -2.1611  1.3405  0.4178
  574TIP3    H223138   3.484   6.678  16.157  1.4137 -0.5077 -3.1756
  575TIP3   OH223139   3.093   3.796  11.781 -0.3561 -0.2782 -0.6369
  575TIP3    H123140   3.096   3.804  11.877  1.1595 -1.1415 -0.5880
  575TIP3    H223141   3.076   3.703  11.765  0.5612 -0.3530 -1.2073
  576TIP3   OH223142   1.759   5.564   2.145  0.1285 -0.4584 -0.2659
  576TIP3    H123143   1.808   5.557   2.227  0.8013  2.2526 -0.3293
  576TIP3    H223144   1.694   5.494   2.149 -0.1797 -0.1286  2.8113
  577TIP3   OH223145   4.520   3.452  17.042 -0.0652 -0.2893 -0.4849
  577TIP3    H123146   4.587   3.456  17.110  0.0996 -3.4314 -0.3196
  577TIP3    H223147   4.470   3.373  17.062 -1.7295  0.1677 -2.5098
  578TIP3   OH223148   4.541   1.560   4.172 -0.0491 -0.2751 -0.5555
  578TIP3    H123149   4.614   1.576   4.113  1.1925  1.3602  1.2910
  578TIP3    H223150   4.493   1.642   4.175 -0.1463 -0.3529  0.5927
  579TIP3   OH223151   5.625   4.111   1.340 -0.0606 -0.3015  0.3668
  579TIP3    H123152   5.589   4.154   1.417 -0.1443 -0.8594  0.6453
  579TIP3    H223153   5.550   4.101   1.281  0.1488  0.7882 -0.1041
  580TIP3   OH223154   2.920   0.838   5.552 -0.8936 -0.1147 -0.0430
  580TIP3    H123155   2.972   0.759   5.564  0.1732  0.7071  0.9312
  580TIP3    H223156   2.954   0.877   5.471  1.2970  1.2888  1.4210
  581TIP3   OH223157   1.722   3.686  13.394  0.0140 -0.1870  0.5594
  581TIP3    H123158   1.710   3.760  13.453 -0.6110  0.2533 -0.1017
  581TIP3    H223159   1.759   3.723  13.314  1.6419 -0.9021  0.9456
  582TIP3   OH223160   0.331   0.691  17.053 -0.3288 -0.0782 -0.0027
  582TIP3    H123161   0.381   0.696  17.134  4.1389  1.1715 -2.4802
  582TIP3    H223162   0.327   0.598  17.033  1.8550 -0.2464  0.0165
  583TIP3   OH223163   1.831   5.976  11.720 -0.2496  0.4371 -0.1048
  583TIP3    H123164   1.869   5.973  11.808 -1.0567 -1.0682  0.2294
  583TIP3    H223165   1.744   6.012  11.733 -1.1591 -1.6896  0.0746
  584TIP3   OH223166   1.844   1.380   2.706 -0.2103  0.3864  0.3834
  584TIP3    H123167   1.857   1.474   2.708 -0.0568  0.4205 -1.2204
  584TIP3    H223168   1.927   1.343   2.734  0.0065  0.7160  0.1730
  585TIP3   OH223169   2.366   6.642   4.409 -0.1539 -0.1016  0.7596
  585TIP3    H123170   2.413   6.616   4.489 -1.1770  2.1753  2.2141
  585TIP3    H223171   2.373   6.737   4.407 -2.3190  0.1055 -0.4815
  586TIP3   OH223172   1.184   1.932  16.474 -0.2118 -0.3780 -0.1317
  586TIP3    H123173   1.164   1.897  16.387 -0.0315 -0.5179 -0.1180
  586TIP3    H223174   1.111   1.989  16.495 -1.1017 -1.6410  0.3381
  587TIP3   OH223175   6.393   4.912   3.585  0.5183 -0.4094  0.3268
  587TIP3    H123176   6.311   4.902   3.537  0.1156  0.9041  0.6984
  587TIP3    H223177   6.459   4.924   3.517  0.4772 -1.7507  0.0157
  588TIP3   OH223178   2.388   5.158   0.891 -0.1300 -0.0579 -0.0644
  588TIP3    H123179   2.435   5.237   0.917  1.7958 -1.6018  1.5036
  588TIP3    H223180   2.438   5.124   0.816 -1.4252  0.5739 -1.2611
  589TIP3   OH223181   6.641   3.593  14.145 -0.0755 -0.8645  0.2035
  589TIP3    H123182   6.729   3.564  14.123 -1.0972 -2.9825 -1.5374
  589TIP3    H223183   6.633   3.679  14.104  1.0361 -0.8459  0.0121
  590TIP3   OH223184   2.760   1.475  11.447  0.5223 -0.6238 -0.4575
  590TIP3    H123185   2.830   1.410  11.448  0.2435 -0.9379 -1.1712
  590TIP3    H223186   2.805   1.559  11.447  0.8852 -0.7955  0.6338
  591TIP3   OH223187   3.225   1.860   6.341 -0.1588  0.3897  0.0668
  591TIP3    H123188   3.272   1.862   6.258 -2.4135 -1.0492 -1.3352
  591TIP3    H223189   3.144   1.908   6.324 -0.4819  0.4216  1.5608
  592TIP3   OH223190   4.372   5.868  11.922  0.2942  0.5228 -0.0022
  592TIP3    H123191   4.310   5.795  11.931  1.1083  0.0413  2.4496
  592TIP3    H223192   4.446   5.831  11.875  0.1006  0.1593 -0.0265
  593TIP3   OH223193   5.880   3.208  16.320  0.0682  0.1063  0.3226
  593TIP3    H123194   5.858   3.301  16.325 -2.5559 -0.4261  0.2403
  593TIP3    H223195   5.837   3.169  16.396 -1.1399 -1.3636 -1.0169
  594TIP3   OH223196   3.209   2.320  10.910 -0.3390 -0.2363  0.5051
  594TIP3    H123197   3.294   2.277  10.900 -0.3082 -0.4751  1.6707
  594TIP3    H223198   3.216   2.399  10.856 -0.8259 -2.1969 -2.7195
  595TIP3   OH223199   5.772   4.225   5.761 -0.4618 -0.1397 -0.7308
  595TIP3    H123200   5.678   4.222   5.778 -0.2632  1.9482  0.9965
  595TIP3    H223201   5.812   4.181   5.836  0.0056 -0.1274 -0.9676
  596TIP3   OH223202   1.300   3.323  15.403 -0.3243  0.0406 -0.4528
  596TIP3    H123203   1.389   3.292  15.387  0.5810  2.6881 -1.0601
  596TIP3    H223204   1.248   3.243  15.415  2.2967 -1.5687  1.0706
  597TIP3   OH223205   5.910   6.143  11.150 -0.3133  0.0686  0.2752
  597TIP3    H123206   6.000   6.162  11.125 -0.7645  0.9185 -0.7876
  597TIP3    H223207   5.916   6.109  11.239  0.9406  1.1669  0.6320
  598TIP3   OH223208   2.294   2.842   0.078  0.0600 -0.3845 -0.1596
  598TIP3    H123209   2.266   2.814   0.165  1.2548  0.7309  0.6373
  598TIP3    H223210   2.383   2.875   0.091 -0.3215  1.3197 -1.4814
  599TIP3   OH223211   2.214   4.118  15.875 -0.3882  0.0756  0.5423
  599TIP3    H123212   2.210   4.048  15.810 -0.7214  0.2091  0.4145
  599TIP3    H223213   2.191   4.197  15.826  0.7304  0.3957  0.5126
  600TIP3   OH223214   1.137   2.291   1.774  0.6361  0.0346 -0.0677
  600TIP3    H123215   1.139   2.212   1.828  0.6350 -0.8732 -1.3396
  600TIP3    H223216   1.168   2.261   1.688 -2.3452  0.6633 -1.4964
  601TIP3   OH223217   1.022   0.790  16.292  0.1182  0.2021  0.0005
  601TIP3    H123218   1.002   0.746  16.374 -0.9540  0.5949 -0.0331
  601TIP3    H223219   1.020   0.720  16.226 -2.1937  0.3369 -0.1503
  602TIP3   OH223220   5.461   0.502   1.954  0.3903  0.3461  0.1755
  602TIP3    H123221   5.516   0.441   2.002 -1.7935 -2.4831 -0.5958
  602TIP3    H223222   5.471   0.476   1.862 -2.9581 -1.1892  0.0801
  603TIP3   OH223223   3.230   6.245  14.153  0.6854  0.2946 -0.5731
  603TIP3    H123224   3.278   6.321  14.119  0.8655  0.4484  0.0191
  603TIP3    H223225   3.264   6.233  14.241  2.7663 -2.2448 -1.6114
  604TIP3   OH223226   3.925   6.006  16.050  0.0878  0.3192 -0.6398
  604TIP3    H123227   3.997   5.946  16.030 -0.9966 -0.1112 -3.7651
  604TIP3    H223228   3.956   6.091  16.021 -0.1727  0.3440 -0.8578
  605TIP3   OH223229   2.024   6.328   1.725 -0.3691 -0.5568  0.7418
  605TIP3    H123230   1.934   6.317   1.757  0.5131  0.2649  3.8236
  605TIP3    H223231   2.013   6.373   1.640 -2.8543 -0.3783  1.0697
  606TIP3   OH223232   2.086   5.324  13.720 -0.2764  0.5193 -0.6713
  606TIP3    H123233   2.097   5.358  13.631  0.1697 -1.7032 -1.5288
  606TIP3    H223234   2.064   5.231  13.708  0.7661 -0.0813  1.5527
  607TIP3   OH223235   6.457   3.058  12.051  0.1720 -0.2734 -0.2657
  607TIP3    H123236   6.438   3.078  11.959  0.6233  0.4615 -0.2079
  607TIP3    H223237   6.413   3.127  12.100  1.0952  0.1612 -0.0173
  608TIP3   OH223238   1.983   3.425  16.422 -0.8076 -0.1864 -0.0707
  608TIP3    H123239   2.047   3.497  16.420 -0.0395 -0.8710 -0.6771
  608TIP3    H223240   1.932   3.441  16.501  0.5651  0.0038  0.8126
  609TIP3   OH223241   3.474   4.494  15.174 -0.2880  0.2418 -0.4551
  609TIP3    H123242   3.435   4.407  15.180  0.3380  0.0333  1.2627
  609TIP3    H223243   3.509   4.499  15.085 -2.0765 -0.4744 -1.2374
  610TIP3   OH223244   2.929   4.300  11.345 -0.1722  0.0216 -0.0415
  610TIP3    H123245   2.940   4.301  11.250 -1.7318  1.2291 -0.2484
  610TIP3    H223246   2.927   4.207  11.369 -0.0721 -0.2943 -1.2198
  611TIP3   OH223247   4.750   0.212  11.019 -0.5748 -0.2451 -0.1654
  611TIP3    H123248   4.815   0.206  11.089 -1.3306 -1.4152  0.4685
  611TIP3    H223249   4.794   0.260  10.949  0.8934 -0.8411  0.3211
  612TIP3   OH223250   6.300   5.866  16.933  0.1470  0.3890 -0.1699
  612TIP3    H123251   6.242   5.800  16.972  1.5049 -1.2245 -0.7797
  612TIP3    H223252   6.309   5.933  17.001 -1.1575 -0.0933  0.5215
  613TIP3   OH223253   1.522   5.740  11.879 -0.4391 -0.1429 -1.1126
  613TIP3    H123254   1.484   5.765  11.794  1.4227  0.3103 -1.8653
  613TIP3    H223255   1.486   5.653  11.896  1.0970 -1.4078 -3.6841
  614TIP3   OH223256   4.788   6.228   3.229 -0.4843  0.4226  0.1825
  614TIP3    H123257   4.733   6.166   3.181  0.4638 -0.3363  0.0483
  614TIP3    H223258   4.793   6.304   3.171 -0.3068 -0.0280 -0.4036
  615TIP3   OH223259   1.999   5.163   4.097 -0.2849  0.6208  0.0076
  615TIP3    H123260   1.997   5.163   4.193 -3.4965  1.1940  0.0799
  615TIP3    H223261   1.928   5.104   4.072  0.6310  0.3105 -2.0423
  616TIP3   OH223262   1.699   5.341   2.447 -0.2398  0.0709  0.0157
  616TIP3    H123263   1.773   5.394   2.421  0.3513 -0.3128  0.8717
  616TIP3    H223264   1.629   5.404   2.466 -0.0480  0.4439 -0.5223
  617TIP3   OH223265   4.708   1.700  15.518 -0.2080  0.1782  0.0835
  617TIP3    H123266   4.656   1.679  15.440  0.4170 -0.2503 -0.2244
  617TIP3    H223267   4.746   1.617  15.544  0.4171  0.5109  0.2379
  618TIP3   OH223268   1.872   1.887   2.100 -0.0826  0.9221  0.7047
  618TIP3    H123269   1.890   1.820   2.033 -1.6625  1.2726 -0.1251
  618TIP3    H223270   1.930   1.865   2.172  0.1477 -0.7652  0.0562
  619TIP3   OH223271   3.135   6.104  15.647 -0.5384  0.1042 -0.2324
  619TIP3    H123272   3.062   6.086  15.706 -0.7530  0.8483 -0.2664
  619TIP3    H223273   3.127   6.197  15.626  0.2133  0.1107 -0.5161
  620TIP3   OH223274   1.782   2.235  11.167  0.0327 -0.4455 -0.4689
  620TIP3    H123275   1.860   2.180  11.175  1.4807  1.4856 -0.5558
  620TIP3    H223276   1.811   2.322  11.196 -1.5708  0.7584 -2.2532
  621TIP3   OH223277   5.920   3.482  12.738 -0.5545 -0.5590 -0.1071
  621TIP3    H123278   5.994   3.533  12.772  0.4944 -0.3724 -2.5221
  621TIP3    H223279   5.908   3.513  12.649 -4.5191  0.4080  0.5790
  622TIP3   OH223280   6.347   1.183   3.879 -0.6287  0.4012  0.0392
  622TIP3    H123281   6.351   1.125   3.955  1.9565  0.0518 -0.3004
  622TIP3    H223282   6.332   1.124   3.804  2.9909 -0.1068 -0.4385
  623TIP3   OH223283   1.766   5.425  17.010 -0.6300 -0.0182  0.1000
  623TIP3    H123284   1.694   5.362  17.007 -0.6403 -0.0037  0.0532
  623TIP3    H223285   1.729   5.502  17.053 -0.1242 -0.6951  1.8667
  624TIP3   OH223286   4.296   1.950  12.672  0.5738  0.3320  0.2480
  624TIP3    H123287   4.375   1.997  12.646  1.6645 -0.9667  1.0938
  624TIP3    H223288   4.278   1.979  12.761  0.8026 -0.2354  0.4891
  625TIP3   OH223289   5.644   3.599   5.685  0.5492  0.2060 -0.0210
  625TIP3    H123290   5.659   3.507   5.707 -3.3764 -0.5162  0.4212
  625TIP3    H223291   5.605   3.597   5.597  1.7229  1.6423 -0.6277
  626TIP3   OH223292   1.984   1.264   3.805 -0.4501 -0.7084 -0.1088
  626TIP3    H123293   2.010   1.211   3.730 -1.2411 -0.9029 -0.2555
  626TIP3    H223294   2.064   1.310   3.831 -0.6688  1.3002 -2.6152
  627TIP3   OH223295   3.554   5.985   2.378  0.3068 -0.3790  0.1343
  627TIP3    H123296   3.617   6.056   2.373  2.1140 -2.0201 -1.6718
  627TIP3    H223297   3.479   6.016   2.328  1.8295 -0.4002 -2.2951
  628TIP3   OH223298   3.428   4.787   5.257 -0.0587  0.4786 -0.3345
  628TIP3    H123299   3.448   4.700   5.222  3.6073  1.2831 -0.7021
  628TIP3    H223300   3.343   4.778   5.300 -1.4366 -2.3492 -3.3164
  629TIP3   OH223301   2.592   3.441  12.601 -0.1244 -0.0994  0.7129
  629TIP3    H123302   2.497   3.452  12.603 -0.0043  1.6147 -0.5146
  629TIP3    H223303   2.606   3.367  12.541 -0.6638  1.1227 -1.0081
  630TIP3   OH223304   1.785   6.136   4.997 -0.0582 -0.2619  0.2952
  630TIP3    H123305   1.778   6.186   5.078  1.1274 -0.3417  0.4516
  630TIP3    H223306   1.694   6.111   4.977 -0.6232  1.4911  0.4844
  631TIP3   OH223307   1.101   3.897   2.737  0.8154  0.1003  0.9674
  631TIP3    H123308   1.135   3.969   2.791  1.3383 -1.2002  2.4494
  631TIP3    H223309   1.006   3.909   2.738  0.9014  0.8524  1.0621
  632TIP3   OH223310   0.709   4.676   4.478 -0.1595 -0.4271 -0.4010
  632TIP3    H123311   0.786   4.624   4.501  0.2317 -0.2481 -1.2590
  632TIP3    H223312   0.712   4.682   4.382  0.4001  2.0396 -0.3042
  633TIP3   OH223313   6.695   0.562  14.264 -0.2140 -0.1515 -0.5804
  633TIP3    H123314   6.648   0.504  14.324  0.5647  2.5007  2.8878
  633TIP3    H223315   6.627   0.617  14.225 -0.4880  0.6204  0.9005
  634TIP3   OH223316   2.935   0.263  11.240 -0.3036 -0.4785 -0.1521
  634TIP3    H123317   2.949   0.334  11.303  1.4245 -0.1196 -0.8608
  634TIP3    H223318   2.887   0.304  11.168 -0.6016 -0.4042  0.0876
  635TIP3   OH223319   1.300   3.893  14.836 -0.5723 -0.2712 -0.2442
  635TIP3    H123320   1.385   3.936  14.829 -0.7699 -0.1188 -2.4444
  635TIP3    H223321   1.311   3.810  14.791 -1.2825 -0.8071  0.5332
  636TIP3   OH223322   4.384   5.961  12.646 -0.0105 -0.1037 -0.3391
  636TIP3    H123323   4.291   5.972  12.663  0.0168  1.2530 -0.9382
  636TIP3    H223324   4.425   5.965  12.733 -0.2525  2.4229 -0.2745
  637TIP3   OH223325   4.172   5.390   4.301 -0.1562  0.1788  0.3561
  637TIP3    H123326   4.247   5.331   4.299 -1.8431 -2.3165  2.9729
  637TIP3    H223327   4.179   5.434   4.386 -1.8203 -0.4368  0.8534
  638TIP3   OH223328   0.936   3.555   6.578 -0.5282  0.3947 -0.1407
  638TIP3    H123329   0.900   3.598   6.656 -1.6293 -3.0921  1.4548
  638TIP3    H223330   1.028   3.541   6.599 -1.0971 -1.7270  1.2549
  639TIP3   OH223331   1.472   1.581   5.497 -0.0559 -0.5579  0.1020
  639TIP3    H123332   1.408   1.561   5.429  1.4552 -0.6452 -1.3474
  639TIP3    H223333   1.422   1.579   5.578 -1.8397 -0.8204 -0.9581
  640TIP3   OH223334   5.571   4.806   0.784  0.1692  0.7094  0.2288
  640TIP3    H123335   5.610   4.772   0.865  2.0935  1.2518 -0.4230
  640TIP3    H223336   5.480   4.824   0.807  0.4797  0.1184  2.0551
  641TIP3   OH223337   6.246   5.673   4.670 -0.0089  0.4285  0.1436
  641TIP3    H123338   6.190   5.672   4.748 -0.6261 -3.0611 -0.1474
  641TIP3    H223339   6.332   5.697   4.702 -0.7469  1.4853  1.4241
  642TIP3   OH223340   0.086   2.965  14.549 -0.0251 -0.6885 -0.3103
  642TIP3    H123341   0.175   2.933  14.540  0.1663 -0.2974  0.1638
  642TIP3    H223342   0.074   3.026  14.476  0.4334  0.0092  0.1815
  643TIP3   OH223343   2.088   4.132   5.757 -0.5412  0.2646  0.1621
  643TIP3    H123344   2.046   4.192   5.696  0.7467  0.0505 -0.9935
  643TIP3    H223345   2.144   4.189   5.811  0.3951  0.1903 -0.6884
  644TIP3   OH223346   2.429   0.628   4.785 -0.0992  0.3952  0.0570
  644TIP3    H123347   2.493   0.684   4.830 -1.2470  1.0826  0.9099
  644TIP3    H223348   2.482   0.567   4.733  1.2228  1.2963  0.2915
  645TIP3   OH223349   4.859   4.311  12.593 -0.1652 -0.1896  0.5775
  645TIP3    H123350   4.864   4.304  12.688 -1.7679 -0.1969  0.6751
  645TIP3    H223351   4.857   4.405  12.575 -0.5803 -0.1962  0.5926
  646TIP3   OH223352   2.420   0.424  15.596  0.2761  0.0248 -0.3730
  646TIP3    H123353   2.434   0.347  15.651  2.1114  1.0017  0.6251
  646TIP3    H223354   2.476   0.410  15.520  0.6517  0.3647 -0.1661
  647TIP3   OH223355   2.654   4.473  14.268  0.3014 -0.4220 -0.0925
  647TIP3    H123356   2.583   4.414  14.293  0.5770 -1.8758 -2.4294
  647TIP3    H223357   2.612   4.541  14.216  0.5505 -1.1799 -1.3184
  648TIP3   OH223358   5.201   1.981   3.162 -0.0829 -1.1336 -0.0050
  648TIP3    H123359   5.253   1.975   3.082 -0.4655 -1.6825 -0.2187
  648TIP3    H223360   5.246   2.047   3.215 -0.9608  0.8108 -1.5297
  649TIP3   OH223361   0.204   3.683  12.458 -0.5798 -0.1119 -0.3918
  649TIP3    H123362   0.144   3.693  12.384  1.9113 -0.8295 -2.6696
  649TIP3    H223363   0.246   3.598  12.444 -0.7620 -0.7911  2.5182
  650TIP3   OH223364   5.338   4.564   2.202 -0.7025  0.5522 -0.4268
  650TIP3    H123365   5.325   4.479   2.245 -1.0461  0.9425  0.2587
  650TIP3    H223366   5.416   4.600   2.243 -2.1544  1.8318  1.4221
  651TIP3   OH223367   6.157   6.085  10.277  0.7752  0.7342  0.2133
  651TIP3    H123368   6.101   6.053  10.349 -2.6142  2.2544 -1.4987
  651TIP3    H223369   6.164   6.179  10.292  0.9338  0.9058 -0.8583
  652TIP3   OH223370   6.133   2.195  13.459 -0.2208  0.0622 -0.5753
  652TIP3    H123371   6.097   2.283  13.448 -0.6428 -0.3820 -3.8025
  652TIP3    H223372   6.103   2.147  13.381  0.3445 -2.8365  0.8598
  653TIP3   OH223373   2.169   6.626   1.737  0.1075  0.3117  0.3102
  653TIP3    H123374   2.079   6.597   1.753  0.3458 -0.0229  1.1024
  653TIP3    H223375   2.195   6.670   1.818  0.5075  0.8055 -0.0770
  654TIP3   OH223376   1.418   2.230   2.861 -0.5326 -0.1225 -0.0614
  654TIP3    H123377   1.383   2.292   2.924 -0.6893 -0.4899  0.2146
  654TIP3    H223378   1.480   2.176   2.911 -0.2105 -0.0318 -0.3526
  655TIP3   OH223379   3.038   4.902  17.078  0.2569  0.3592  0.2387
  655TIP3    H123380   2.975   4.838  17.112  1.2592 -1.1786 -0.6247
  655TIP3    H223381   3.123   4.867  17.103  0.9302  0.2412 -1.9746
  656TIP3   OH223382   2.494   1.413   1.686 -0.6108 -0.9161  0.1572
  656TIP3    H123383   2.427   1.382   1.747 -1.0093  0.9078  0.7335
  656TIP3    H223384   2.447   1.433   1.606 -0.5349 -0.8995  0.1166
  657TIP3   OH223385   6.753   2.859   0.412 -0.1432 -0.1336 -0.3223
  657TIP3    H123386   6.692   2.806   0.360  1.0194 -1.1064 -0.7472
  657TIP3    H223387   6.819   2.888   0.349  0.8865 -0.7125  0.4534
  658TIP3   OH223388   6.589   5.021   1.388 -0.6331  0.6239  0.6953
  658TIP3    H123389   6.672   5.009   1.435 -0.0829  0.3170 -0.3306
  658TIP3    H223390   6.615   5.033   1.296 -1.7334  0.4737  0.3563
  659TIP3   OH223391   5.944   2.775   2.697 -0.4782 -0.5611 -0.4433
  659TIP3    H123392   5.858   2.804   2.727  0.3415  2.8109 -1.0165
  659TIP3    H223393   5.990   2.750   2.778 -1.3083 -0.4067  0.0840
  660TIP3   OH223394   2.213   0.314  11.738 -0.6817 -0.0146  0.2541
  660TIP3    H123395   2.154   0.389  11.744 -1.0415 -0.2234 -0.5244
  660TIP3    H223396   2.298   0.348  11.765  0.0512  1.6900 -3.4821
  661TIP3   OH223397   0.907   0.069   0.054  0.8851  0.2039 -0.1375
  661TIP3    H123398   0.992   0.111   0.065  0.1411  1.2761  2.2670
  661TIP3    H223399   0.847   0.121   0.107 -0.7339 -2.0725  0.4622
  662TIP3   OH223400   4.623   3.877  15.716  0.1600 -0.0162 -0.6294
  662TIP3    H123401   4.623   3.813  15.644 -1.5250 -1.3742  0.4664
  662TIP3    H223402   4.633   3.823  15.794 -0.2971  1.1784  0.2706
  663TIP3   OH223403   4.392   0.263   4.164  0.0751  0.3870 -0.0294
  663TIP3    H123404   4.379   0.297   4.075  1.5551  1.6404  0.1991
  663TIP3    H223405   4.372   0.170   4.157 -3.4508  1.0227 -0.8587
  664TIP3   OH223406   3.212   4.841   5.529 -0.2038  0.4953 -0.5905
  664TIP3    H123407   3.161   4.894   5.468  0.9405 -0.4040 -2.4298
  664TIP3    H223408   3.303   4.869   5.516 -0.0603  1.7471  2.2820
  665TIP3   OH223409   5.877   2.911   6.347 -0.8649  0.1966  0.3049
  665TIP3    H123410   5.785   2.911   6.373 -1.0774  1.0847 -0.4109
  665TIP3    H223411   5.913   2.831   6.387 -1.6730  0.4039  1.4914
  666TIP3   OH223412   0.003   6.603   5.334 -0.0407  0.3409  0.0776
  666TIP3    H123413   0.006   6.534   5.400 -1.2074 -0.5363 -0.7332
  666TIP3    H223414  -0.032   6.560   5.256 -0.2220  1.7075 -0.6330
  667TIP3   OH223415   5.080   6.739  15.865 -0.1612  0.4450 -0.6161
  667TIP3    H123416   5.019   6.799  15.909 -2.1387 -1.5108 -0.5386
  667TIP3    H223417   5.033   6.708  15.788 -0.4166 -3.0493  0.7578
  668TIP3   OH223418   2.489   4.728   1.456  0.6485 -0.2284 -0.5509
  668TIP3    H123419   2.488   4.669   1.532  0.1268  0.6035  0.0996
  668TIP3    H223420   2.460   4.812   1.491  2.0613  0.6054 -1.3107
  669TIP3   OH223421   6.329   2.877   3.216  0.4536  0.2140 -0.3280
  669TIP3    H123422   6.257   2.921   3.261 -0.8237 -0.8694 -1.2232
  669TIP3    H223423   6.396   2.945   3.204 -0.9969  1.6175 -0.7197
  670TIP3   OH223424   2.467   6.563  14.116 -0.1507 -0.5602 -0.3921
  670TIP3    H123425   2.435   6.482  14.076  1.2641 -1.6298  0.5453
  670TIP3    H223426   2.388   6.606  14.149 -1.2800 -0.0756 -3.3677
  671TIP3   OH223427   4.123   4.517  14.545  0.4795  0.2453  0.0182
  671TIP3    H123428   4.116   4.473  14.460 -2.1068 -0.3877  0.4493
  671TIP3    H223429   4.122   4.446  14.609  1.4956  0.7485  0.6077
  672TIP3   OH223430   4.409   4.740  15.314 -0.1817  0.4715 -0.5127
  672TIP3    H123431   4.334   4.753  15.372  0.7635  0.9668  0.6451
  672TIP3    H223432   4.417   4.645  15.307 -1.1968  0.4126 -1.0440
  673TIP3   OH223433   3.911   1.384   3.853  0.1807  0.3149 -0.1944
  673TIP3    H123434   3.872   1.385   3.766 -0.7491  0.6580  0.2025
  673TIP3    H223435   3.892   1.471   3.889  1.1958  0.4313  0.0772
  674TIP3   OH223436   0.907   6.387  13.375 -0.4056  0.0337  0.0158
  674TIP3    H123437   0.864   6.303  13.389  1.2761 -0.6460  1.4201
  674TIP3    H223438   0.841   6.452  13.399 -1.9327 -0.7938 -1.6536
  675TIP3   OH223439   2.983   2.442   3.386  0.0925 -0.2479  0.3067
  675TIP3    H123440   2.912   2.482   3.436 -0.3393 -0.3492 -0.2192
  675TIP3    H223441   3.063   2.482   3.421 -0.3078  0.8274  0.0011
  676TIP3   OH223442   4.261   1.678  15.992 -0.0697 -0.5259  0.2126
  676TIP3    H123443   4.344   1.683  15.944  0.9519  0.5591  2.0039
  676TIP3    H223444   4.194   1.694  15.925  1.0955 -1.9499 -1.3717
  677TIP3   OH223445   4.363   3.062  14.377 -0.3920  0.2556 -0.4150
  677TIP3    H123446   4.389   3.004  14.305 -1.1587 -0.1036 -0.4138
  677TIP3    H223447   4.374   3.008  14.455  3.1357  1.4794  0.1148
  678TIP3   OH223448   2.306   4.759  12.283  0.2222  0.4684  0.0615
  678TIP3    H123449   2.330   4.667  12.294 -1.0536  0.1938  0.6298
  678TIP3    H223450   2.270   4.785  12.367 -0.1642  1.2734 -0.3422
  679TIP3   OH223451   5.422   5.506   5.804 -0.0847  0.3623  0.3837
  679TIP3    H123452   5.399   5.560   5.729  0.6655  1.6829  1.0801
  679TIP3    H223453   5.505   5.541   5.836  1.4065 -2.3204 -0.2021
  680TIP3   OH223454   0.249   0.078   4.968  0.0004  0.4026 -0.1957
  680TIP3    H123455   0.311   0.066   5.039  0.0533 -1.8340 -0.5388
  680TIP3    H223456   0.191   0.002   4.974 -0.6379  0.7028 -1.8954
  681TIP3   OH223457   5.880   0.827   4.911 -0.1679 -0.1524 -0.3126
  681TIP3    H123458   5.879   0.767   4.837 -2.7224 -0.7466  0.1314
  681TIP3    H223459   5.934   0.783   4.977  0.1396 -0.7313 -0.9426
  682TIP3   OH223460   3.115   0.327   2.764  0.2788  0.4289  0.4429
  682TIP3    H123461   3.187   0.321   2.702 -0.9196 -0.0975 -0.9589
  682TIP3    H223462   3.107   0.421   2.782 -0.2073  0.7655 -1.3121
  683TIP3   OH223463   0.153   1.714   6.593  0.1587 -0.6301  0.2660
  683TIP3    H123464   0.174   1.626   6.626  0.0097 -0.3259  1.1994
  683TIP3    H223465   0.107   1.756   6.665  1.9502  0.9109  0.5799
  684TIP3   OH223466   0.614   3.736  13.279 -0.4564  0.2141  0.2907
  684TIP3    H123467   0.632   3.706  13.367 -1.9172  1.9736  1.2721
  684TIP3    H223468   0.527   3.775  13.284 -1.0598 -0.6249 -2.2061
  685TIP3   OH223469   3.628   6.461  16.903 -0.1187  0.1892 -0.2828
  685TIP3    H123470   3.719   6.482  16.882  0.2356 -1.5925 -0.7591
  685TIP3    H223471   3.582   6.468  16.819 -0.2558  0.3513 -0.1940
  686TIP3   OH223472   2.177   0.514  11.174  0.6375 -0.0940  0.5400
  686TIP3    H123473   2.151   0.473  11.256  0.0760 -0.3488  0.2411
  686TIP3    H223474   2.225   0.446  11.127 -1.8896 -1.0751 -0.7570
  687TIP3   OH223475   1.641   5.616  11.199  0.2176  0.2888  0.0542
  687TIP3    H123476   1.574   5.679  11.226  1.4132  0.7207  2.1610
  687TIP3    H223477   1.719   5.640  11.249  1.6053 -0.9887 -1.3870
  688TIP3   OH223478   1.466   2.929  16.390  0.8066  0.0444 -0.3622
  688TIP3    H123479   1.431   2.937  16.301 -1.2194 -0.4569  0.3493
  688TIP3    H223480   1.509   3.013  16.406  0.8525  0.2948 -1.6646
  689TIP3   OH223481   3.929   2.583  11.530  0.4348  0.1404 -0.4543
  689TIP3    H123482   3.886   2.649  11.474  1.7804  0.9792 -0.5389
  689TIP3    H223483   3.874   2.580  11.609  0.7241  1.9343 -0.1355
  690TIP3   OH223484   3.605   6.724   2.320  0.1506  0.1029  0.5474
  690TIP3    H123485   3.635   6.655   2.261  1.0697  2.1019 -1.4633
  690TIP3    H223486   3.685   6.758   2.359 -0.0906  1.2373  0.0812
  691TIP3   OH223487   0.042   2.720  12.511  0.1720 -0.5021  0.0475
  691TIP3    H123488   0.114   2.657  12.504  0.7916  0.2332 -0.2180
  691TIP3    H223489  -0.031   2.676  12.467 -0.0559 -1.9647  1.7500
  692TIP3   OH223490   5.692   1.368  16.721  0.3730 -0.2002 -0.2290
  692TIP3    H123491   5.647   1.298  16.770  1.2360  0.5798  1.8025
  692TIP3    H223492   5.653   1.448  16.755  2.3575  0.4428  0.6873
  693TIP3   OH223493   5.406   2.772  14.834  0.7147 -0.3184 -0.2469
  693TIP3    H123494   5.470   2.703  14.849  1.2931  0.4825  1.1225
  693TIP3    H223495   5.379   2.800  14.921 -1.7599 -0.8240 -0.7467
  694TIP3   OH223496   3.975   4.505   5.903  0.2134 -0.0850  0.6644
  694TIP3    H123497   4.025   4.489   5.823 -1.6464  0.2753 -0.6065
  694TIP3    H223498   3.968   4.600   5.908 -1.3417 -0.1522  0.1608
  695TIP3   OH223499   0.748   4.915   1.982  0.6474 -0.4550  0.6927
  695TIP3    H123500   0.771   4.964   2.061  0.5112  2.2415 -0.8080
  695TIP3    H223501   0.827   4.865   1.961  1.2059 -0.0403  1.7301
  696TIP3   OH223502   1.515   3.450   6.430  0.0957 -0.3019 -0.2476
  696TIP3    H123503   1.537   3.525   6.486 -2.7998  0.6200 -0.1920
  696TIP3    H223504   1.524   3.374   6.488  0.2925  0.3017  0.5324
  697TIP3   OH223505   0.473   0.558  12.524  0.2783  0.0931  0.0851
  697TIP3    H123506   0.533   0.483  12.522  0.3512  0.0774  1.7700
  697TIP3    H223507   0.443   0.563  12.614 -1.9950  0.3371 -0.6201
  698TIP3   OH223508   3.518   6.666  13.828  0.4650  0.4515 -0.0492
  698TIP3    H123509   3.472   6.705  13.902  0.7576 -0.1628  0.4643
  698TIP3    H223510   3.463   6.686  13.752 -0.3399  0.2261  0.4703
  699TIP3   OH223511   5.840   4.344   1.261  0.6496 -0.0560 -0.2214
  699TIP3    H123512   5.767   4.391   1.301  0.2589 -0.1874 -0.7608
  699TIP3    H223513   5.808   4.254   1.251  0.4874  0.1218 -1.4198
  700TIP3   OH223514   4.465   6.670   0.926  0.0479  0.1722 -0.0341
  700TIP3    H123515   4.544   6.687   0.876  0.6153 -0.2609  0.6923
  700TIP3    H223516   4.469   6.576   0.947  0.3422  0.5226  1.6438
  701TIP3   OH223517   4.412   5.039  11.175  0.4056 -0.2106 -0.1362
  701TIP3    H123518   4.355   5.103  11.219  0.1942 -0.7424  0.3788
  701TIP3    H223519   4.357   5.002  11.105 -0.2641 -1.4647  0.9991
  702TIP3   OH223520   6.348   2.359   3.593  0.3726  0.5572  0.1449
  702TIP3    H123521   6.315   2.365   3.504  2.3133  2.8156 -0.5368
  702TIP3    H223522   6.360   2.265   3.609 -0.8736  0.0677 -1.5969
  703TIP3   OH223523   3.425   0.891   2.513  0.5635 -0.2155 -0.1513
  703TIP3    H123524   3.519   0.907   2.510  0.7631 -1.4829 -2.2268
  703TIP3    H223525   3.416   0.813   2.568  0.5455  0.7770  1.3028
  704TIP3   OH223526   0.883   0.587   4.560 -0.0116  0.3210 -0.0675
  704TIP3    H123527   0.966   0.550   4.532 -0.3253 -0.4113 -0.0509
  704TIP3    H223528   0.882   0.675   4.522  1.1713  0.6994  0.7072
  705TIP3   OH223529   3.891   5.200  14.683  0.1913 -0.8448 -0.3249
  705TIP3    H123530   3.863   5.225  14.595  2.0325  0.8127 -0.4961
  705TIP3    H223531   3.857   5.269  14.740  0.5210 -0.9598  0.0189
  706TIP3   OH223532   1.658   0.293  12.991  0.0422 -0.1292 -0.1052
  706TIP3    H123533   1.648   0.368  12.933 -0.0884 -1.4460 -1.8896
  706TIP3    H223534   1.587   0.233  12.965  0.8303 -1.3461  0.4482
  707TIP3   OH223535   2.228   4.933   2.639 -0.0342  0.1008  0.4690
  707TIP3    H123536   2.155   4.980   2.679  0.1251 -0.4230  1.3959
  707TIP3    H223537   2.306   4.974   2.676  0.1174 -0.3304  0.6291
  708TIP3   OH223538   6.300   0.646   0.281  0.1502  0.5099  0.4897
  708TIP3    H123539   6.255   0.697   0.214  0.0466  0.2567  0.3683
  708TIP3    H223540   6.355   0.710   0.326 -1.0669  1.0281  1.2967
  709TIP3   OH223541   1.310   4.988   5.661  0.5633  0.3439 -0.3697
  709TIP3    H123542   1.287   4.957   5.749 -2.7155  0.6335 -0.9963
  709TIP3    H223543   1.396   5.029   5.672  0.4866 -0.0489  2.5863
  710TIP3   OH223544   3.196   0.863  14.191  0.3139  0.0806  0.5420
  710TIP3    H123545   3.280   0.819  14.206  0.5470 -0.0115 -0.9074
  710TIP3    H223546   3.220   0.954  14.172 -0.1283  0.7761  2.9048
  711TIP3   OH223547   1.727   2.851   6.114 -0.2182  0.2478 -0.2728
  711TIP3    H123548   1.673   2.865   6.192 -1.6941 -0.2591 -1.1632
  711TIP3    H223549   1.748   2.757   6.117 -0.8127  0.0926 -0.8006
  712TIP3   OH223550   0.967   1.000  15.161 -0.4039  0.3019 -0.3821
  712TIP3    H123551   0.957   0.970  15.252 -2.6438 -0.2910 -0.7474
  712TIP3    H223552   1.039   0.947  15.126  0.0473  0.0642  0.8427
  713TIP3   OH223553   1.321   0.444   3.371  0.5430 -0.0521  0.5419
  713TIP3    H123554   1.332   0.491   3.454  2.0599  1.3467 -0.3896
  713TIP3    H223555   1.403   0.457   3.325 -0.4220 -0.4241 -1.3762
  714TIP3   OH223556   4.834   4.760   0.985 -0.0498  0.2954 -0.0672
  714TIP3    H123557   4.756   4.800   0.945  0.2484 -0.3775 -1.3988
  714TIP3    H223558   4.811   4.667   0.994  0.3798  0.1999  0.0731
  715TIP3   OH223559   1.904   1.565  15.037 -0.1895  0.0972 -0.6572
  715TIP3    H123560   1.854   1.603  14.964 -1.2781  0.2695  0.1375
  715TIP3    H223561   1.837   1.525  15.093  0.8000 -1.6828 -0.6835
  716TIP3   OH223562   2.794   5.884  14.315  0.2267 -0.1526 -0.0647
  716TIP3    H123563   2.877   5.884  14.267  0.7976 -1.8381  0.8057
  716TIP3    H223564   2.777   5.791  14.333  0.7606  0.3321  4.0498
  717TIP3   OH223565   1.761   6.397   6.025 -0.7891 -0.3239  0.4276
  717TIP3    H123566   1.709   6.369   6.100  0.7570  1.2729  2.2029
  717TIP3    H223567   1.827   6.456   6.062 -0.2730  0.9524 -2.2544
  718TIP3   OH223568   4.163   1.183   4.753  0.1414 -0.6206 -0.1322
  718TIP3    H123569   4.217   1.105   4.760  0.4544 -0.5676 -1.6475
  718TIP3    H223570   4.102   1.164   4.682  0.6650  0.7407 -0.9928
  719TIP3   OH223571   3.128   5.695   0.472 -0.1370  0.5336  0.2735
  719TIP3    H123572   3.216   5.678   0.440 -0.2452 -2.2768  1.1996
  719TIP3    H223573   3.118   5.638   0.548 -2.7006  0.9122  0.3366
  720TIP3   OH223574   0.647   2.699  16.859 -0.4959  0.2163  0.1858
  720TIP3    H123575   0.607   2.618  16.827 -0.3019 -0.4583  1.5392
  720TIP3    H223576   0.724   2.711  16.804 -0.3150 -0.7520  0.2018
  721TIP3   OH223577   2.503   0.113   2.529 -0.0810  0.4837 -0.3877
  721TIP3    H123578   2.518   0.018   2.534  0.8925  0.5424 -1.6997
  721TIP3    H223579   2.570   0.150   2.585 -0.7928  0.3939  0.5473
  722TIP3   OH223580   4.086   1.776  16.375  0.3097  0.2448 -0.0711
  722TIP3    H123581   3.994   1.793  16.353 -0.1995 -1.2706  0.7622
  722TIP3    H223582   4.083   1.698  16.431  2.2661 -1.1940 -1.8138
  723TIP3   OH223583   6.061   3.174  13.913 -0.4434  0.4462 -0.3922
  723TIP3    H123584   6.119   3.199  13.986 -1.4894  0.4427  0.4657
  723TIP3    H223585   5.996   3.244  13.909 -1.0864 -0.1492 -0.5474
  724TIP3   OH223586   2.876   2.614   2.558 -0.0417  0.6029  0.1737
  724TIP3    H123587   2.797   2.668   2.553 -0.1979  0.3622 -0.0140
  724TIP3    H223588   2.856   2.549   2.625 -0.4954 -0.2377 -0.7572
  725TIP3   OH223589   5.270   1.322   5.651 -0.3024 -0.7499  0.2896
  725TIP3    H123590   5.323   1.294   5.725 -0.4912 -2.1411 -0.0693
  725TIP3    H223591   5.332   1.364   5.591  0.4382 -2.2909 -0.0973
  726TIP3   OH223592   4.759   2.327  14.359 -0.5609 -0.3294  0.6663
  726TIP3    H123593   4.727   2.418  14.354  0.7773  0.2445  1.8474
  726TIP3    H223594   4.833   2.331  14.419  0.1101 -2.0646  0.0198
  727TIP3   OH223595   4.600   4.202   4.032 -0.0309  0.1353  0.2033
  727TIP3    H123596   4.529   4.167   4.085  0.7879 -0.5097  0.8984
  727TIP3    H223597   4.671   4.139   4.042  0.0214 -0.2592 -2.0084
  728TIP3   OH223598   5.383   3.151  15.631  0.2941  0.8695  0.1378
  728TIP3    H123599   5.333   3.072  15.612  1.0948  0.6009 -0.9592
  728TIP3    H223600   5.425   3.133  15.716 -1.0982  0.9355  0.8634
  729TIP3   OH223601   6.093   6.307  14.047  0.1906 -0.6629 -0.7078
  729TIP3    H123602   6.156   6.379  14.046  0.7727 -1.1369  0.1868
  729TIP3    H223603   6.019   6.340  14.099  0.8017 -0.9597  0.3933
  730TIP3   OH223604   0.411   4.878  15.434  0.3073 -0.0867 -0.0398
  730TIP3    H123605   0.358   4.799  15.437 -3.2056  2.0730  0.3989
  730TIP3    H223606   0.373   4.929  15.362  1.0070  2.0627  1.0311
  731TIP3   OH223607   4.735   0.495   1.185  0.0544 -0.5651  0.5380
  731TIP3    H123608   4.734   0.573   1.241 -0.9743  0.8784 -1.3399
  731TIP3    H223609   4.645   0.485   1.155  0.0380 -2.9015  1.2018
  732TIP3   OH223610   3.635   3.487  15.203 -0.0494 -0.0326 -0.1042
  732TIP3    H123611   3.617   3.540  15.281 -1.1735 -0.8460  0.2164
  732TIP3    H223612   3.657   3.401  15.238 -1.6586 -0.7219 -0.6779
  733TIP3   OH223613   3.426   5.156  16.170  0.7477  0.0231  0.3587
  733TIP3    H123614   3.443   5.126  16.081 -0.1722  0.2588  0.0971
  733TIP3    H223615   3.513   5.159  16.211  1.0243 -1.6356 -0.0298
  734TIP3   OH223616   4.579   0.553   2.258  0.1466  0.1563 -0.4357
  734TIP3    H123617   4.554   0.543   2.349  0.8530  1.9787  0.0012
  734TIP3    H223618   4.581   0.464   2.223  1.4083 -0.7353  1.7403
  735TIP3   OH223619   4.969   3.769  16.655 -0.5317 -0.4562  0.8359
  735TIP3    H123620   5.035   3.724  16.709 -0.0611 -0.3954  0.3246
  735TIP3    H223621   5.012   3.849  16.626 -0.1039 -1.3125 -1.0876
  736TIP3   OH223622   1.136   2.171  11.637 -0.4220  0.1322 -0.1375
  736TIP3    H123623   1.069   2.117  11.679  1.3498 -2.2999 -0.1426
  736TIP3    H223624   1.143   2.135  11.548 -0.1348  1.3206 -0.6097
  737TIP3   OH223625   4.191   0.679   5.577  0.0426 -0.0583  0.0149
  737TIP3    H123626   4.185   0.720   5.663 -0.9576  0.5057 -0.3067
  737TIP3    H223627   4.179   0.586   5.594  0.3693 -0.0084  0.5415
  738TIP3   OH223628   6.682   3.534  15.076 -0.5692 -0.5987  0.2212
  738TIP3    H123629   6.737   3.482  15.017  1.2049 -0.4789  1.7033
  738TIP3    H223630   6.598   3.540  15.030  0.8865  0.0718 -2.6488
  739TIP3   OH223631   4.138   6.757  15.782  0.0962 -0.3354 -0.2052
  739TIP3    H123632   4.194   6.807  15.842 -0.4003  0.0548 -0.0651
  739TIP3    H223633   4.082   6.822  15.741 -0.8086 -0.8099  0.2507
  740TIP3   OH223634   4.284   0.181  13.727 -0.1104  0.2922 -0.4013
  740TIP3    H123635   4.364   0.133  13.752  0.6512  2.1516  0.9262
  740TIP3    H223636   4.231   0.116  13.680  1.7082 -1.2904 -0.3821
  741TIP3   OH223637   1.088   0.432  15.668 -0.0242  0.0195 -0.1698
  741TIP3    H123638   1.043   0.384  15.598 -0.8912  0.6408 -0.0492
  741TIP3    H223639   1.138   0.499  15.623 -0.5208  0.3693 -0.2065
  742TIP3   OH223640   5.883   5.311   4.167  0.1687  0.1346 -0.1202
  742TIP3    H123641   5.800   5.266   4.183 -0.0683  0.7574  0.4325
  742TIP3    H223642   5.944   5.272   4.230 -0.1612  0.9072  0.7038
  743TIP3   OH223643   4.092   4.885  12.354 -0.1208  0.0666  0.3055
  743TIP3    H123644   4.092   4.849  12.266 -0.3679  1.0905 -0.1267
  743TIP3    H223645   4.183   4.881  12.383  0.1218  0.5631 -0.3616
  744TIP3   OH223646   1.181   5.450  16.035 -0.0809 -0.4838 -0.3428
  744TIP3    H123647   1.198   5.421  15.946  1.8707  1.5738 -0.7324
  744TIP3    H223648   1.266   5.442  16.079 -1.0260 -1.5676  1.4068
  745TIP3   OH223649   1.423   1.102   1.380  0.5786  0.4879 -0.5823
  745TIP3    H123650   1.406   1.189   1.417 -1.4967 -0.4040  0.7622
  745TIP3    H223651   1.350   1.087   1.320 -0.9250 -1.5189  1.5827
  746TIP3   OH223652   2.216   3.395  14.695  0.0320  0.0644 -0.8695
  746TIP3    H123653   2.263   3.355  14.768 -2.3393 -1.3562  0.0041
  746TIP3    H223654   2.261   3.478  14.679  1.4929 -0.2646  1.2290
  747TIP3   OH223655   0.990   2.101  16.590  0.0799 -0.7114 -0.1136
  747TIP3    H123656   0.948   2.040  16.651  1.9524 -1.0798  0.8613
  747TIP3    H223657   1.003   2.181  16.641  2.0000 -1.1477  0.1390
  748TIP3   OH223658   1.085   1.334  14.035 -0.1637  0.2130  0.7532
  748TIP3    H123659   1.028   1.346  13.959  1.1665  4.3083  0.1528
  748TIP3    H223660   1.170   1.312  13.997  0.8259  3.5327  0.7653
  749TIP3   OH223661   0.478   1.496  15.281 -0.0867  0.4105 -0.0385
  749TIP3    H123662   0.466   1.572  15.223 -2.9691  0.5071  0.5444
  749TIP3    H223663   0.534   1.437  15.231 -0.1580  1.6789 -1.7381
  750TIP3   OH223664   1.383   4.976   4.499  0.1242 -0.6803  0.0448
  750TIP3    H123665   1.362   4.885   4.524  0.9033 -0.7284  0.5490
  750TIP3    H223666   1.477   4.984   4.516  0.6154 -0.5556 -2.4221
  751TIP3   OH223667   3.490   2.549  16.887  0.1773  0.1470 -0.4283
  751TIP3    H123668   3.463   2.605  16.814  0.1174 -0.8291 -1.1844
  751TIP3    H223669   3.456   2.593  16.965  0.2107  1.1966 -0.9808
  752TIP3   OH223670   3.497   1.806  16.457 -0.4619 -0.1359  0.2497
  752TIP3    H123671   3.484   1.720  16.416 -0.3230 -1.0884  2.0970
  752TIP3    H223672   3.412   1.849  16.448 -0.5076 -0.4230 -0.7883
  753TIP3   OH223673   0.073   6.289  17.130  0.8512  0.3068  0.4130
  753TIP3    H123674   0.128   6.277  17.208 -0.3047 -3.1541  0.8643
  753TIP3    H223675  -0.017   6.289  17.164  0.4002  0.9125 -0.7394
  754TIP3   OH223676   1.884   2.503  17.004  0.3847 -0.4496  0.5627
  754TIP3    H123677   1.839   2.467  16.928  2.7997  1.6109 -2.0516
  754TIP3    H223678   1.948   2.435  17.028  0.1147 -0.8009  0.3013
  755TIP3   OH223679   6.141   1.559  11.482 -0.1795 -0.4644  0.4635
  755TIP3    H123680   6.108   1.575  11.571  0.2988 -1.2327  0.7846
  755TIP3    H223681   6.203   1.631  11.467 -0.8846  0.1543  0.4119
  756TIP3   OH223682   0.426   2.559   4.587  0.4221  0.1177 -0.5936
  756TIP3    H123683   0.408   2.631   4.647  1.6679 -1.1987  1.4781
  756TIP3    H223684   0.340   2.521   4.569  0.0687  0.0643  1.0356
  757TIP3   OH223685   5.765   6.351  13.497  0.0144 -0.5654 -0.5526
  757TIP3    H123686   5.707   6.294  13.547  0.7127 -0.0186  0.9474
  757TIP3    H223687   5.831   6.293  13.460 -0.1021 -0.8980 -0.2389
  758TIP3   OH223688   3.635   5.915  11.107 -0.1334 -0.0758  0.0559
  758TIP3    H123689   3.656   5.843  11.167 -0.2570 -1.6096 -1.6382
  758TIP3    H223690   3.678   5.891  11.025 -0.6301  1.5429 -0.7151
  759TIP3   OH223691   5.184   3.605  16.498  0.1272 -0.0858  0.0143
  759TIP3    H123692   5.100   3.650  16.502  0.6601  0.8847  0.6592
  759TIP3    H223693   5.164   3.515  16.525 -0.8965 -0.1847 -0.9876
  760TIP3   OH223694   0.560   2.069   4.223 -0.1023 -0.4715  0.5621
  760TIP3    H123695   0.516   2.026   4.150  0.3121 -0.3868  0.2679
  760TIP3    H223696   0.582   2.156   4.191 -0.3233 -0.2707  0.9370
  761TIP3   OH223697   3.312   6.084   5.284  0.0024  0.4550  0.0258
  761TIP3    H123698   3.246   6.127   5.230 -1.8301 -0.9510  1.0317
  761TIP3    H223699   3.316   5.995   5.251  0.4833  0.1795  0.7851
  762TIP3   OH223700   4.118   3.732   1.106  0.3187  0.2095  0.1517
  762TIP3    H123701   4.158   3.645   1.107  0.1724  0.1415  0.1026
  762TIP3    H223702   4.026   3.716   1.126  0.2778  0.3464  0.0727
  763TIP3   OH223703   5.955   5.950  15.809  0.0349 -0.3163 -0.0168
  763TIP3    H123704   5.984   5.909  15.728  0.2348  1.9533 -1.1788
  763TIP3    H223705   6.037   5.972  15.855  0.0082  0.4824 -0.3322
  764TIP3   OH223706   0.035   2.327  12.990  0.0482 -0.3948  0.0266
  764TIP3    H123707  -0.005   2.264  13.050  0.2537 -0.3148  0.2479
  764TIP3    H223708   0.034   2.283  12.905  2.5932 -1.7794  0.6259
  765TIP3   OH223709   6.545   1.749  13.691 -0.0163 -0.1262  0.1080
  765TIP3    H123710   6.494   1.719  13.617  1.3062 -0.3825 -0.7398
  765TIP3    H223711   6.620   1.795  13.652  0.7775 -0.3873  1.2537
  766TIP3   OH223712   2.017   4.372   3.948  0.0877  0.2121 -0.5408
  766TIP3    H123713   2.060   4.455   3.928  0.1554  0.7157  1.4161
  766TIP3    H223714   1.983   4.384   4.037 -1.7159 -1.1413 -0.9795
  767TIP3   OH223715   3.203   2.168   6.386  0.2262  0.2086  0.1689
  767TIP3    H123716   3.282   2.125   6.419  0.9731  0.3839 -1.2962
  767TIP3    H223717   3.140   2.162   6.458  1.5195 -0.0765  1.3204
  768TIP3   OH223718   5.110   2.638   5.883  0.1183  0.0824 -0.0959
  768TIP3    H123719   5.070   2.702   5.942  1.5795  0.8919  0.0831
  768TIP3    H223720   5.117   2.558   5.935 -2.5350 -0.5505 -0.5990
  769TIP3   OH223721   4.354   2.814  10.745  0.3699 -0.9329 -0.4117
  769TIP3    H123722   4.401   2.891  10.713  0.4360  0.3100  2.3867
  769TIP3    H223723   4.274   2.810  10.693 -0.7989  2.5279  0.8250
  770TIP3   OH223724   3.067   4.560   1.047 -0.1182 -0.2629 -0.1810
  770TIP3    H123725   3.117   4.551   0.966  1.0484 -0.8463  0.5752
  770TIP3    H223726   2.999   4.624   1.026  1.3639  1.1081 -1.0687
  771TIP3   OH223727   6.284   1.283   1.759 -0.0336  0.3321 -0.4937
  771TIP3    H123728   6.274   1.321   1.847 -1.3358  0.6800 -0.7688
  771TIP3    H223729   6.253   1.193   1.769 -1.4284  0.7512 -0.8611
  772TIP3   OH223730   0.937   2.659   1.593  0.1321 -0.3361 -0.2342
  772TIP3    H123731   0.977   2.715   1.527  0.5845  0.8717  1.0278
  772TIP3    H223732   0.857   2.626   1.551 -0.3568  1.5552 -0.8950
  773TIP3   OH223733   0.701   2.511  11.730 -0.5321 -0.2799  0.3071
  773TIP3    H123734   0.702   2.445  11.799  0.5420 -0.6987 -0.0840
  773TIP3    H223735   0.764   2.577  11.760  0.3748 -0.7525 -0.5365
  774TIP3   OH223736   4.593   5.857  17.246 -0.0453  0.0731  0.1048
  774TIP3    H123737   4.601   5.839  17.339  1.5363  1.3934  0.2696
  774TIP3    H223738   4.501   5.881  17.234 -0.6501 -1.6651  0.9945
  775TIP3   OH223739   3.581   5.933  15.522  0.2893 -0.4975  0.5548
  775TIP3    H123740   3.511   5.990  15.555  0.5920  0.1924  0.0269
  775TIP3    H223741   3.546   5.895  15.442  1.1565  1.3342 -0.7881
  776TIP3   OH223742   1.839   2.520  11.219  0.6138  0.9341 -0.0702
  776TIP3    H123743   1.752   2.551  11.196  0.5112  0.1058 -0.8994
  776TIP3    H223744   1.899   2.584  11.180  0.4120  0.1516 -1.7760
  777TIP3   OH223745   5.449   5.087   4.929 -0.0054 -0.0894  0.0708
  777TIP3    H123746   5.353   5.085   4.936 -0.2582  1.7267 -1.9587
  777TIP3    H223747   5.476   5.160   4.984  0.2079 -0.3795  0.3599
  778TIP3   OH223748   4.353   5.056   4.965  0.4906  0.0982  0.3191
  778TIP3    H123749   4.446   5.060   4.990  0.4591 -0.0302  0.4629
  778TIP3    H223750   4.351   5.002   4.887  0.8293  2.1242 -1.1727
  779TIP3   OH223751   6.458   5.750  14.051 -0.5380 -0.3007 -0.8082
  779TIP3    H123752   6.389   5.728  13.988 -0.6296 -0.7892 -0.5403
  779TIP3    H223753   6.450   5.684  14.119 -0.9524  0.6868  0.1271
  780TIP3   OH223754   6.564   3.652   1.210  0.7387  0.0828  0.2021
  780TIP3    H123755   6.497   3.585   1.200  0.2187  0.1398  2.6261
  780TIP3    H223756   6.516   3.734   1.209  0.3530  0.0726  3.6015
  781TIP3   OH223757   6.141   1.121   0.798  1.2073 -0.7938 -0.2291
  781TIP3    H123758   6.090   1.169   0.732  1.3838 -1.5390 -0.9250
  781TIP3    H223759   6.153   1.183   0.869 -0.9577 -0.6775  0.1090
  782TIP3   OH223760   5.031   4.313   5.774  0.4295  0.0210 -0.4762
  782TIP3    H123761   4.947   4.311   5.730 -0.3090  1.5733  0.7705
  782TIP3    H223762   5.037   4.228   5.818 -0.8250  0.1481 -0.0110
  783TIP3   OH223763   4.665   1.017  14.407 -0.3436  1.0202 -0.3183
  783TIP3    H123764   4.738   0.973  14.451 -1.0685  1.4997  1.4592
  783TIP3    H223765   4.706   1.077  14.345  0.7105 -0.1331 -0.7687
  784TIP3   OH223766   6.307   4.968   2.063  0.2778 -0.2064 -0.1292
  784TIP3    H123767   6.309   4.934   1.973 -0.2452  0.6510 -0.4787
  784TIP3    H223768   6.399   4.979   2.087  0.4207  0.6884 -1.0136
  785TIP3   OH223769   4.451   6.733  15.524  0.2950 -0.2101  0.3934
  785TIP3    H123770   4.361   6.701  15.535 -0.0047  0.0482 -1.0754
  785TIP3    H223771   4.456   6.810  15.580 -0.2500 -0.5064  0.8552
  786TIP3   OH223772   1.510   0.965   0.002  0.2716  0.1071 -0.4890
  786TIP3    H123773   1.450   0.981  -0.071  1.4551  2.1195 -1.1000
  786TIP3    H223774   1.524   1.051   0.041  0.6581 -0.7438  1.3489
  787TIP3   OH223775   5.158   0.477   2.069 -0.6007 -0.4717  0.3898
  787TIP3    H123776   5.244   0.492   2.108  0.3742  2.0260 -2.3297
  787TIP3    H223777   5.153   0.382   2.056  1.4277 -0.7409  1.2618
  788TIP3   OH223778   0.962   0.224   1.934  0.4133 -0.1169  0.1292
  788TIP3    H123779   0.870   0.247   1.918 -0.3020 -0.3426  3.2510
  788TIP3    H223780   0.969   0.133   1.906 -0.7905 -0.5858  1.2295
  789TIP3   OH223781   2.472   0.814  12.607  0.0632 -0.1040 -0.4196
  789TIP3    H123782   2.490   0.772  12.691  0.3602 -0.5165 -0.6789
  789TIP3    H223783   2.457   0.906  12.628  1.9018  0.1669 -0.0947
  790TIP3   OH223784   5.001   0.257   3.070 -0.2190 -0.3498  0.0454
  790TIP3    H123785   4.997   0.235   2.977 -4.0723 -1.5423  0.3206
  790TIP3    H223786   5.002   0.352   3.072 -0.5740 -0.2966 -1.2357
  791TIP3   OH223787   0.812   3.003   0.952  0.1473 -0.1712 -0.3355
  791TIP3    H123788   0.752   2.987   1.025  1.4477 -1.6862  0.4533
  791TIP3    H223789   0.761   2.978   0.875 -0.1069 -1.9645  0.3598
  792TIP3   OH223790   1.704   1.846  15.293  0.7002  0.2066 -0.0785
  792TIP3    H123791   1.662   1.765  15.263  0.7834  0.5149 -1.0675
  792TIP3    H223792   1.780   1.856  15.235  0.7071  0.9827  0.0566
  793TIP3   OH223793   1.957   6.590  12.284 -0.1378 -0.2326 -0.0150
  793TIP3    H123794   1.966   6.573  12.378  0.3366  0.1961  0.0216
  793TIP3    H223795   1.928   6.681  12.279 -1.6417 -0.6996 -0.2421
  794TIP3   OH223796   3.469   5.679  13.494  0.1041  0.0117  0.3783
  794TIP3    H123797   3.455   5.770  13.518 -3.0312  0.4224 -2.2659
  794TIP3    H223798   3.452   5.630  13.575  1.2567  1.6889  1.6913
  795TIP3   OH223799   4.129   2.696  14.223  0.5724  0.2308 -0.1830
  795TIP3    H123800   4.096   2.678  14.135 -0.0035 -0.5106  0.1723
  795TIP3    H223801   4.062   2.752  14.262  0.2342 -0.4204  0.1847
  796TIP3   OH223802   4.881   5.926   0.695 -0.1358  0.5168  0.3065
  796TIP3    H123803   4.842   5.842   0.669  1.7401 -0.4505  0.4490
  796TIP3    H223804   4.907   5.913   0.786  0.7487  1.0207  0.1311
  797TIP3   OH223805   3.175   5.866  15.875 -0.4950 -0.6320  0.3067
  797TIP3    H123806   3.269   5.850  15.881 -0.4664 -0.3524  0.6549
  797TIP3    H223807   3.167   5.936  15.810 -0.5220 -1.1567 -0.2642
  798TIP3   OH223808   1.397   4.535  16.408  0.1312  0.0618 -0.4122
  798TIP3    H123809   1.346   4.609  16.442  0.2256  0.4720 -1.1523
  798TIP3    H223810   1.354   4.511  16.326 -0.2296 -1.0683  0.0923
  799TIP3   OH223811   2.668   2.517   4.237 -0.3466 -0.3621 -0.6465
  799TIP3    H123812   2.624   2.538   4.319 -0.0648  0.1876 -0.6304
  799TIP3    H223813   2.685   2.423   4.242  0.2293 -0.2176  0.2012
  800TIP3   OH223814   0.964   5.625   2.377 -0.0449 -0.6981  0.3125
  800TIP3    H123815   1.042   5.675   2.355  0.2830 -1.7963 -1.1498
  800TIP3    H223816   0.951   5.641   2.471  1.1361  0.5731  0.2869
  801TIP3   OH223817   3.893   0.755   3.056  0.2192 -0.0766  0.0211
  801TIP3    H123818   3.856   0.729   3.140 -0.3797  0.9075  0.0787
  801TIP3    H223819   3.980   0.787   3.077  0.4290 -0.6926  0.1303
  802TIP3   OH223820   1.781   0.839  12.579 -0.5855  0.3148 -0.0046
  802TIP3    H123821   1.826   0.757  12.598 -0.2515  0.6533  0.7096
  802TIP3    H223822   1.769   0.838  12.484 -0.4457 -0.4821 -0.0244
  803TIP3   OH223823   1.100   5.312  11.817 -0.4181 -0.2445 -0.1377
  803TIP3    H123824   1.107   5.259  11.737 -0.1992 -0.6396  0.1420
  803TIP3    H223825   1.008   5.340  11.819 -0.8381 -1.5752  0.3195
  804TIP3   OH223826   6.563   4.452   5.758 -0.0804  0.0800 -0.2513
  804TIP3    H123827   6.503   4.436   5.685  0.2759  0.3587 -0.6128
  804TIP3    H223828   6.534   4.536   5.795 -0.0519  0.1069 -0.2891
  805TIP3   OH223829   3.943   4.694   2.617 -0.2671 -0.2281  0.5622
  805TIP3    H123830   3.946   4.600   2.635  0.6441 -0.1678  0.8241
  805TIP3    H223831   3.979   4.703   2.529  1.2243 -0.0079  1.1593
  806TIP3   OH223832   1.288   0.479  13.319  0.5465  0.1917  0.6735
  806TIP3    H123833   1.342   0.416  13.271 -0.1353 -1.3265  1.8164
  806TIP3    H223834   1.198   0.446  13.308  0.1099  1.3104  0.8076
  807TIP3   OH223835   1.801   5.766   5.014 -0.3947  0.2805  0.1166
  807TIP3    H123836   1.707   5.774   4.996 -0.2011 -0.1092 -1.1171
  807TIP3    H223837   1.843   5.796   4.934  0.5039 -1.8941 -0.2749
  808TIP3   OH223838   3.847   4.729  10.639 -0.3772 -0.1714  0.1818
  808TIP3    H123839   3.852   4.639  10.606  2.1959 -0.2351  0.5027
  808TIP3    H223840   3.857   4.784  10.562 -0.8110 -0.1832  0.1169
  809TIP3   OH223841   3.317   6.717  14.325 -1.1066 -0.1414  0.3247
  809TIP3    H123842   3.291   6.701  14.234 -2.8222  0.1417  0.7347
  809TIP3    H223843   3.290   6.638  14.372  1.1467 -0.9428  0.3710
  810TIP3   OH223844   3.854   0.329  12.499 -0.0478 -0.0569  0.2599
  810TIP3    H123845   3.815   0.247  12.531  0.0206 -1.0125 -1.9352
  810TIP3    H223846   3.855   0.319  12.404  1.7353  1.7136  0.0431
  811TIP3   OH223847   3.721   2.318   2.979 -0.0542  0.4113 -0.0841
  811TIP3    H123848   3.697   2.254   3.045 -1.0706  0.7732 -0.0825
  811TIP3    H223849   3.638   2.357   2.952 -0.0529 -1.4585 -3.4034
  812TIP3   OH223850   5.603   3.155   4.216  0.2807  0.7047  0.3705
  812TIP3    H123851   5.567   3.194   4.136 -0.1032 -0.8697 -0.2720
  812TIP3    H223852   5.660   3.085   4.184  1.3467  1.0505  1.4602
  813TIP3   OH223853   2.069   6.701  14.572 -0.8010 -0.2793 -0.4498
  813TIP3    H123854   2.108   6.697  14.659  0.8074 -3.4148 -1.1281
  813TIP3    H223855   2.119   6.768  14.526  1.6754 -1.8572 -0.2616
  814TIP3   OH223856   0.886   5.186   4.937 -0.0825 -0.4688  0.3609
  814TIP3    H123857   0.922   5.265   4.978  0.6202 -0.5261 -0.1397
  814TIP3    H223858   0.941   5.171   4.861 -0.3619 -1.3090  0.3148
  815TIP3   OH223859   0.227   1.087  12.284  0.4187  0.0810  0.1651
  815TIP3    H123860   0.241   1.011  12.227  1.9387  0.6713 -0.3020
  815TIP3    H223861   0.258   1.161  12.232  2.2506  0.5887  1.8804
  816TIP3   OH223862   4.570   2.683  13.058 -0.3219 -0.1595 -0.2295
  816TIP3    H123863   4.634   2.734  13.107  0.3811  0.6491 -1.9444
  816TIP3    H223864   4.526   2.746  13.002 -3.5828 -0.4258  1.7664
  817TIP3   OH223865   1.637   0.738  14.249  0.2155  0.5467 -0.3810
  817TIP3    H123866   1.676   0.766  14.331 -3.5420  1.4352  1.3299
  817TIP3    H223867   1.605   0.819  14.209  0.4357 -0.0716 -1.8856
  818TIP3   OH223868   2.846   1.465   4.000 -0.3426 -0.4671 -0.1324
  818TIP3    H123869   2.872   1.377   4.026  0.8420  0.1058  0.7560
  818TIP3    H223870   2.761   1.479   4.041 -1.1974 -1.6554 -1.4011
  819TIP3   OH223871   4.993   0.893   0.599  0.3362  0.3136 -0.1296
  819TIP3    H123872   4.957   0.916   0.513 -0.1747  1.8092  0.4452
  819TIP3    H223873   4.941   0.945   0.661  2.1620  1.0084  0.8938
  820TIP3   OH223874   0.148   6.704  14.837 -0.0471 -0.0118  0.0635
  820TIP3    H123875   0.130   6.788  14.880  0.1156 -0.5682  1.2541
  820TIP3    H223876   0.224   6.722  14.781 -0.8805  0.9760 -0.7981
  821TIP3   OH223877   4.540   3.863  11.982  0.1109  0.1357  0.3473
  821TIP3    H123878   4.618   3.853  12.037  0.8650 -0.7832 -0.8446
  821TIP3    H223879   4.486   3.927  12.029  1.5876  0.8229  1.1888
  822TIP3   OH223880   5.471   5.946   2.271  0.3518  0.2257 -0.4013
  822TIP3    H123881   5.512   5.908   2.194 -1.0985 -2.2692 -0.0506
  822TIP3    H223882   5.543   5.960   2.333  1.3059  0.8140 -1.5999
  823TIP3   OH223883   6.616   1.091   5.784 -0.1373 -0.5552  0.0012
  823TIP3    H123884   6.528   1.106   5.818 -0.2294 -0.2716 -0.3592
  823TIP3    H223885   6.608   1.012   5.730  0.0720 -1.1808  0.8566
  824TIP3   OH223886   3.256   2.605   3.477  0.3855  0.3209  0.3244
  824TIP3    H123887   3.262   2.693   3.440  2.3156  0.4557  0.8259
  824TIP3    H223888   3.348   2.578   3.489 -0.1662 -1.1884  1.4949
  825TIP3   OH223889   2.496   1.517   0.645 -0.4516  0.3677  0.2307
  825TIP3    H123890   2.422   1.461   0.670  1.1741 -1.4925  1.1532
  825TIP3    H223891   2.572   1.459   0.650  1.0142  2.0609 -1.2508
  826TIP3   OH223892   4.401   2.235   4.592 -0.3690 -0.3790  0.6264
  826TIP3    H123893   4.465   2.222   4.662 -1.1517  0.0277  1.4498
  826TIP3    H223894   4.317   2.237   4.638 -0.9920 -1.0880 -0.4513
  827TIP3   OH223895   2.774   2.102   3.137 -0.6415 -0.1530  0.4114
  827TIP3    H123896   2.750   2.047   3.062 -2.4359  3.0584 -1.5791
  827TIP3    H223897   2.692   2.115   3.185  0.0116 -0.2184  1.5951
  828TIP3   OH223898   1.550   3.855   5.858 -0.0801  0.6157 -0.2573
  828TIP3    H123899   1.467   3.808   5.858 -0.1968  0.8258 -0.6897
  828TIP3    H223900   1.606   3.805   5.798 -0.2624  1.1284 -0.8610
  829TIP3   OH223901   3.976   2.756   0.505 -0.1818  0.3299 -0.5751
  829TIP3    H123902   4.008   2.722   0.588  0.7325  2.8744  0.1890
  829TIP3    H223903   3.956   2.677   0.454  3.5855 -1.4717  0.3135
  830TIP3   OH223904   0.038   2.804   1.994  0.0356  0.4982  0.0785
  830TIP3    H123905   0.000   2.826   1.909 -3.0451  1.6948  1.6109
  830TIP3    H223906   0.065   2.712   1.986 -1.1758  0.2738 -1.8550
  831TIP3   OH223907   4.293   2.873  13.801 -0.1047  0.1822 -0.1231
  831TIP3    H123908   4.218   2.825  13.837 -1.5891  1.0816 -1.8714
  831TIP3    H223909   4.281   2.963  13.831  0.5772  0.2285  0.0184
  832TIP3   OH223910   6.729   2.860  15.318 -0.2400 -0.3145 -0.2333
  832TIP3    H123911   6.678   2.932  15.355  2.0230  1.3300 -0.1547
  832TIP3    H223912   6.810   2.859  15.368  0.5764 -1.6805 -1.4891
  833TIP3   OH223913   6.519   0.771  17.221  0.2161 -0.2397 -0.6402
  833TIP3    H123914   6.533   0.678  17.204  0.8825 -0.1058 -0.8266
  833TIP3    H223915   6.607   0.808  17.227 -0.0543  0.5012 -1.2167
  834TIP3   OH223916   2.607   5.067   0.718  0.2124 -0.4513 -0.2370
  834TIP3    H123917   2.643   5.156   0.716 -0.0229 -0.3625 -0.6882
  834TIP3    H223918   2.613   5.041   0.809 -0.7747  0.4607  0.1126
  835TIP3   OH223919   4.656   5.362  10.629  0.0652  0.3691  0.0064
  835TIP3    H123920   4.722   5.402  10.686  1.2392 -0.6860 -0.5539
  835TIP3    H223921   4.573   5.380  10.673  0.6566  2.0975  0.5254
  836TIP3   OH223922   0.488   0.536   2.586 -0.3002 -0.9442  0.6959
  836TIP3    H123923   0.443   0.614   2.619 -0.1457  0.1820 -1.5579
  836TIP3    H223924   0.581   0.560   2.586 -0.1642 -1.4526  0.7546
  837TIP3   OH223925   2.059   4.429   5.934 -0.1012 -0.0843  0.4126
  837TIP3    H123926   2.031   4.408   5.845  0.8492 -0.2602  0.1446
  837TIP3    H223927   2.020   4.514   5.952 -2.2127 -1.0423  0.7033
  838TIP3   OH223928   6.732   0.373  15.518  0.4214  0.0837 -0.3637
  838TIP3    H123929   6.697   0.285  15.507  1.3854 -0.5745  1.3757
  838TIP3    H223930   6.660   0.432  15.493 -0.2784 -1.1638 -1.4159
  839TIP3   OH223931   6.038   4.766   4.504 -0.6135 -1.2263 -0.1337
  839TIP3    H123932   6.062   4.752   4.596 -1.3085  1.7039  0.5729
  839TIP3    H223933   5.953   4.809   4.508 -0.1577 -0.0549 -2.1009
  840TIP3   OH223934   5.585   2.331   5.801  0.3391  0.1895 -0.4378
  840TIP3    H123935   5.618   2.339   5.890 -0.9934  0.1215  0.0825
  840TIP3    H223936   5.504   2.382   5.800 -0.8270 -1.5821 -0.9865
  841TIP3   OH223937   3.477   4.485  13.753 -0.6158 -0.0060 -0.0111
  841TIP3    H123938   3.472   4.540  13.675  0.5573  1.0815  0.6500
  841TIP3    H223939   3.569   4.462  13.761 -1.0979 -2.3573 -0.4085
  842TIP3   OH223940   6.688   2.761   3.165  0.4901 -0.2160 -0.6902
  842TIP3    H123941   6.713   2.789   3.077  0.9030 -0.4965 -0.6662
  842TIP3    H223942   6.717   2.832   3.222 -1.5121  0.8766 -0.9557
  843TIP3   OH223943   5.918   1.902   0.875  0.7873  0.2853  0.3526
  843TIP3    H123944   5.952   1.950   0.800 -0.8335 -0.9540 -1.2461
  843TIP3    H223945   5.837   1.947   0.899  1.5230  0.9597  1.7308
  844TIP3   OH223946   3.259   1.950  13.632  0.2664 -0.5963  0.1889
  844TIP3    H123947   3.354   1.944  13.634  0.3476  0.4111 -0.2077
  844TIP3    H223948   3.238   2.029  13.682 -0.2772 -0.1379 -0.7310
  845TIP3   OH223949   3.217   5.274   0.000 -0.2441 -0.0361 -0.4579
  845TIP3    H123950   3.263   5.357   0.006 -1.5620  0.6221  2.8023
  845TIP3    H223951   3.132   5.296  -0.039 -1.4236  0.7214  2.2600
  846TIP3   OH223952   3.466   1.072   6.169  0.1050 -0.1467  0.2081
  846TIP3    H123953   3.391   1.012   6.163 -0.5439  0.7117 -0.6344
  846TIP3    H223954   3.437   1.140   6.230  1.3855 -1.4080  2.3189
  847TIP3   OH223955   1.499   1.884   4.625  0.1438  0.2545  0.1225
  847TIP3    H123956   1.438   1.955   4.603  0.7249  0.7939  0.2216
  847TIP3    H223957   1.489   1.820   4.554 -0.8483  0.1266  0.3577
  848TIP3   OH223958   4.343   6.357  14.295  0.2381  0.0564 -0.1303
  848TIP3    H123959   4.432   6.368  14.262  0.5206 -0.0354  0.5837
  848TIP3    H223960   4.296   6.314  14.224  1.5026 -2.6089  0.5268
  849TIP3   OH223961   2.033   2.965   5.267  0.0317  0.3416 -0.5170
  849TIP3    H123962   2.001   2.945   5.179  0.9667 -0.0373 -0.7804
  849TIP3    H223963   1.998   3.052   5.286  0.1339  0.5894 -1.4145
  850TIP3   OH223964   5.378   4.314   4.389  0.8018  0.4671  0.1826
  850TIP3    H123965   5.448   4.254   4.415  0.9786  0.0757 -1.1056
  850TIP3    H223966   5.423   4.397   4.374  1.2735 -0.1157 -1.9636
  851TIP3   OH223967   6.283   3.164   4.417 -0.8188  1.2212 -0.3476
  851TIP3    H123968   6.228   3.139   4.491  1.3743  0.2353  1.0595
  851TIP3    H223969   6.337   3.236   4.451 -0.5611  1.5102 -1.3450
  852TIP3   OH223970   0.163   1.535   2.198 -0.0544 -0.5653  0.1062
  852TIP3    H123971   0.238   1.479   2.175  1.2133  0.8624  0.5615
  852TIP3    H223972   0.200   1.602   2.255 -1.9552 -0.5016  1.3492
  853TIP3   OH223973   6.255   3.854   5.392  0.2981 -0.6481  0.0778
  853TIP3    H123974   6.191   3.815   5.451 -1.7554  0.4548 -1.3350
  853TIP3    H223975   6.204   3.904   5.328  2.6096  1.4798 -0.2995
  854TIP3   OH223976   4.153   5.876   4.626 -0.6357  0.5062 -0.0112
  854TIP3    H123977   4.157   5.961   4.669  3.6059  0.3454  0.3013
  854TIP3    H223978   4.172   5.813   4.695 -0.9845 -0.4607 -0.7735
  855TIP3   OH223979   4.891   4.813   2.528  0.0129 -0.8190  0.1553
  855TIP3    H123980   4.840   4.879   2.480 -1.8222 -3.0057 -1.1090
  855TIP3    H223981   4.966   4.795   2.471 -0.2698 -0.8513 -0.2136
  856TIP3   OH223982   4.159   2.124   2.922  0.0493  0.4654  0.0645
  856TIP3    H123983   4.139   2.198   2.865  1.4388 -0.1420 -1.3121
  856TIP3    H223984   4.253   2.132   2.938  0.1629 -0.8421  0.1181
  857TIP3   OH223985   5.472   0.905   0.686  0.1389  0.9774 -0.4784
  857TIP3    H123986   5.526   0.832   0.657 -1.4093 -0.7618  0.7527
  857TIP3    H223987   5.528   0.957   0.743  0.8842  0.0041 -0.3214
  858TIP3   OH223988   5.064   4.634   6.627  0.3276  0.6410  0.1543
  858TIP3    H123989   5.109   4.567   6.574  1.7986  0.7700  1.1641
  858TIP3    H223990   5.032   4.698   6.563  0.4056 -0.1556 -0.7020
  859TIP3   OH223991   4.302   4.165   4.902 -0.2711 -0.3930 -0.6234
  859TIP3    H123992   4.299   4.260   4.911 -2.4567 -0.3949 -0.6870
  859TIP3    H223993   4.213   4.141   4.876 -0.1775 -2.5869  0.8230
  860TIP3   OH223994   2.267   3.954  12.497  0.5530 -0.0428 -0.1419
  860TIP3    H123995   2.214   3.877  12.515  0.2371 -0.1745 -1.5760
  860TIP3    H223996   2.350   3.937  12.542  0.3673 -1.0620 -0.1686
  861TIP3   OH223997   3.832   2.782  16.174 -0.2388 -0.0926 -0.3312
  861TIP3    H123998   3.796   2.834  16.246  0.9538  0.3862 -0.0482
  861TIP3    H223999   3.788   2.698  16.181 -2.5058  0.9581 -1.0349
  862TIP3   OH224000   4.170   1.971   2.353 -0.1271 -0.2146  0.4722
  862TIP3    H124001   4.259   1.948   2.324  1.0663  3.2106  1.0019
  862TIP3    H224002   4.183   2.010   2.439 -2.2849 -0.3134  0.8808
  863TIP3   OH224003   4.852   6.647   1.943 -0.1197  0.3319 -0.2525
  863TIP3    H124004   4.914   6.690   2.003  0.0685  1.3943 -1.1607
  863TIP3    H224005   4.870   6.688   1.858 -1.2009 -0.2774 -0.7888
  864TIP3   OH224006   6.494   5.106   5.943 -0.1749  0.0224 -0.1353
  864TIP3    H124007   6.494   5.056   5.861 -0.7589  0.0237 -0.1404
  864TIP3    H224008   6.404   5.137   5.952  0.0854  0.7440  0.0754
  865TIP3   OH224009   3.426   0.317  16.096 -0.3084 -0.4922  0.1725
  865TIP3    H124010   3.458   0.335  16.185 -1.7965 -0.4154  0.7335
  865TIP3    H224011   3.362   0.387  16.079 -1.8647 -1.8786  0.0588
  866TIP3   OH224012   4.089   0.586   5.052 -0.0468 -0.7799  0.5368
  866TIP3    H124013   4.156   0.654   5.048 -0.4037 -0.4708 -1.1334
  866TIP3    H224014   4.024   0.619   5.113 -0.5359  0.7360 -0.7342
  867TIP3   OH224015   6.583   0.501   2.571  0.2333  0.5486  0.9658
  867TIP3    H124016   6.585   0.573   2.508 -0.7084  0.9749  1.4026
  867TIP3    H224017   6.516   0.442   2.538  0.1336  0.4921  1.2665
  868TIP3   OH224018   0.290   2.729   2.606  0.4086 -0.1985 -0.0512
  868TIP3    H124019   0.205   2.768   2.625  0.5802 -0.4397  1.2655
  868TIP3    H224020   0.333   2.793   2.548  0.0810  0.8483  0.8273
  869TIP3   OH224021   1.338   6.447  11.962 -0.4400 -0.3837 -0.4619
  869TIP3    H124022   1.368   6.534  11.936  0.5930 -0.0100  1.7680
  869TIP3    H224023   1.374   6.434  12.049 -2.1031 -2.3114  0.0240
  870TIP3   OH224024   4.686   5.122   5.604  0.0713 -0.1844  0.1637
  870TIP3    H124025   4.731   5.046   5.640 -0.7929  0.2782  2.3959
  870TIP3    H224026   4.756   5.175   5.566  0.8864 -1.3156  0.0172
  871TIP3   OH224027   6.468   6.089  13.429 -0.0302  0.3491  0.8150
  871TIP3    H124028   6.441   5.997  13.429  0.2211  0.2739  0.3637
  871TIP3    H224029   6.425   6.126  13.506 -0.0292 -0.1788  1.0810
  872TIP3   OH224030   4.890   1.302  12.192 -0.2943 -0.0518 -0.3706
  872TIP3    H124031   4.928   1.339  12.271  0.9756 -0.5386 -0.7249
  872TIP3    H224032   4.935   1.218  12.180 -0.7976 -0.1996 -1.3545
  873TIP3   OH224033   5.095   6.004   1.790  0.3785  0.1824 -0.1568
  873TIP3    H124034   5.190   6.004   1.785  0.3881  1.0528 -0.1034
  873TIP3    H224035   5.069   6.091   1.760 -0.5106 -0.6445 -1.9941
  874TIP3   OH224036   0.667   1.187   4.950  0.3364 -0.8082  0.1677
  874TIP3    H124037   0.738   1.205   4.888  0.2111  0.8734  0.4747
  874TIP3    H224038   0.599   1.146   4.898  1.1668 -1.6105 -0.3133
  875TIP3   OH224039   5.731   6.127  13.839  0.2005 -0.5788 -0.0007
  875TIP3    H124040   5.743   6.169  13.924 -1.3224 -0.8550  0.3785
  875TIP3    H224041   5.819   6.121  13.802  0.6952  1.0132  0.8440
  876TIP3   OH224042   6.176   1.310   0.057 -0.6411 -0.4667 -0.0582
  876TIP3    H124043   6.227   1.390   0.072  0.4169 -1.2671  0.8388
  876TIP3    H224044   6.161   1.275   0.145 -0.7272 -1.4560 -0.4544
  877TIP3   OH224045   1.471   1.496  11.775  0.5223 -0.8703 -0.4396
  877TIP3    H124046   1.443   1.550  11.701  0.6803  0.1328  0.2131
  877TIP3    H224047   1.389   1.467  11.815  0.3787  0.8837  0.6188
  878TIP3   OH224048   3.168   2.374  16.656 -0.8101 -0.0346 -0.1658
  878TIP3    H124049   3.253   2.419  16.661 -0.0976 -1.4906  1.8708
  878TIP3    H224050   3.112   2.436  16.609  0.8600  1.7777  0.0749
  879TIP3   OH224051   1.923   4.618  11.578 -0.3769  0.1968 -0.1266
  879TIP3    H124052   1.905   4.542  11.633  1.4004 -0.9328 -1.0349
  879TIP3    H224053   1.956   4.684  11.640  2.1621 -1.2482  0.2258
  880TIP3   OH224054   3.474   4.039  16.568 -0.2006 -0.4911 -0.2078
  880TIP3    H124055   3.452   4.040  16.475  0.0145 -0.1489 -0.2547
  880TIP3    H224056   3.565   4.067  16.572 -0.1670 -0.6394  0.0954
  881TIP3   OH224057   1.668   4.287   0.142 -0.3018 -0.9334  0.7502
  881TIP3    H124058   1.623   4.309   0.061  0.3031 -0.1724  0.6071
  881TIP3    H224059   1.636   4.200   0.165  0.8185 -1.9194 -1.2404
  882TIP3   OH224060   3.816   5.514   4.984  0.4375  0.2058 -0.1160
  882TIP3    H124061   3.783   5.485   4.898 -0.3912  1.2911 -0.1783
  882TIP3    H224062   3.780   5.450   5.046  0.0252  0.1165 -0.4400
  883TIP3   OH224063   2.699   0.558   5.495  0.3995 -0.5834  0.4757
  883TIP3    H124064   2.706   0.586   5.587  2.6665  1.3650 -0.1915
  883TIP3    H224065   2.620   0.602   5.463  1.0129  0.8441  0.8492
  884TIP3   OH224066   2.725   6.703  17.184  0.0368  0.3221 -0.2472
  884TIP3    H124067   2.655   6.696  17.250  0.6759 -0.0750  0.4061
  884TIP3    H224068   2.735   6.614  17.151 -0.7209  0.6360 -1.3643
  885TIP3   OH224069   3.837   2.220   1.711 -0.5953  0.0765  0.9128
  885TIP3    H124070   3.848   2.174   1.794  0.3332 -1.6341 -0.1086
  885TIP3    H224071   3.743   2.238   1.706 -0.7566 -0.4002  2.0054
  886TIP3   OH224072   5.458   0.046   1.976 -0.7739 -0.0345 -0.5587
  886TIP3    H124073   5.442   0.017   2.066 -0.7290 -0.0575 -0.5584
  886TIP3    H224074   5.404   0.125   1.967 -0.3726  0.2711 -0.3419
  887TIP3   OH224075   4.010   4.508   0.569  0.2268 -0.0177 -0.0782
  887TIP3    H124076   3.999   4.603   0.562  2.0793  0.1696 -1.2552
  887TIP3    H224077   4.105   4.495   0.560 -0.1451 -2.1004 -1.7198
  888TIP3   OH224078   2.755   0.128   6.307  0.2308  0.1050 -0.0685
  888TIP3    H124079   2.844   0.115   6.272  0.2523  0.5252 -0.1719
  888TIP3    H224080   2.742   0.053   6.365  0.4281 -0.2745 -0.5025
  889TIP3   OH224081   2.894   2.134   4.072 -0.5212 -0.3221 -0.6407
  889TIP3    H124082   2.873   2.052   4.027  0.4219 -1.1785  0.4168
  889TIP3    H224083   2.990   2.138   4.072 -0.5572  1.0758 -1.1639
  890TIP3   OH224084   1.603   6.544  12.368  0.5046  0.5069 -0.1082
  890TIP3    H124085   1.566   6.522  12.453  0.8733 -0.6452 -0.2268
  890TIP3    H224086   1.685   6.494  12.364  0.9858  1.3210 -0.7389
  891TIP3   OH224087   0.597   0.105   0.720  0.1021  0.2798 -0.3247
  891TIP3    H124088   0.562   0.194   0.709 -1.7263 -0.3925 -0.2855
  891TIP3    H224089   0.551   0.053   0.655 -1.4055 -1.2820  1.8556
  892TIP3   OH224090   5.330   5.512   6.718  0.5415 -0.1696 -0.2737
  892TIP3    H124091   5.343   5.448   6.648  1.2697 -0.2236 -0.0951
  892TIP3    H224092   5.235   5.522   6.724  0.4742 -0.1288 -1.2981
  893TIP3   OH224093   5.455   2.600  13.153 -1.2385  0.3018 -0.5626
  893TIP3    H124094   5.505   2.532  13.107  0.6900  1.2534  0.0309
  893TIP3    H224095   5.380   2.553  13.190  0.4446 -1.7160  0.5129
  894TIP3   OH224096   1.878   2.281   0.212  0.1928 -0.3235 -0.3051
  894TIP3    H124097   1.960   2.238   0.186  0.5837  0.7448 -0.9287
  894TIP3    H224098   1.810   2.217   0.194  0.9672 -1.6644  1.2951
  895TIP3   OH224099   3.983   3.145   4.511 -0.1222  0.2069  0.0395
  895TIP3    H124100   4.029   3.080   4.564  0.0691  0.2602 -0.0605
  895TIP3    H224101   3.892   3.115   4.509 -0.1238  0.1838  0.3679
  896TIP3   OH224102   4.586   2.346  11.417  0.3533  0.1136  1.0420
  896TIP3    H124103   4.537   2.266  11.436  0.0941  0.0685  0.2401
  896TIP3    H224104   4.671   2.333  11.460  1.0425 -1.4529 -0.6415
  897TIP3   OH224105   2.998   5.841  14.155  0.3172  0.4773 -0.0730
  897TIP3    H124106   2.942   5.835  14.077 -0.3203  1.7739  0.2489
  897TIP3    H224107   3.078   5.795  14.130 -0.9589 -1.6938 -0.4485
  898TIP3   OH224108   3.814   2.320  16.789 -0.1394 -0.0022  0.1821
  898TIP3    H124109   3.843   2.407  16.761 -0.2308  0.0838  0.3521
  898TIP3    H224110   3.873   2.260  16.744  0.8254  0.1975  1.1311
  899TIP3   OH224111   0.373   2.972   3.485 -0.1742  0.1752 -0.0628
  899TIP3    H124112   0.392   2.922   3.406 -0.2372  1.3373 -0.8526
  899TIP3    H224113   0.336   3.055   3.453  0.3393  0.9162  1.1493
  900TIP3   OH224114   6.194   3.461   2.349 -0.4105 -0.7479  0.3328
  900TIP3    H124115   6.104   3.432   2.334  0.3846 -3.7589  0.6534
  900TIP3    H224116   6.221   3.413   2.428  1.4640  0.0918  0.2499
  901TIP3   OH224117   6.077   4.364   3.329  0.5803  0.2756 -0.3041
  901TIP3    H124118   6.129   4.295   3.287  1.5109  0.7089  0.0970
  901TIP3    H224119   6.140   4.410   3.385 -0.0729  1.3314 -0.4172
  902TIP3   OH224120   0.828   0.853   5.209  0.5719  0.2952  0.1759
  902TIP3    H124121   0.756   0.792   5.223  0.7021  0.5071  2.1258
  902TIP3    H224122   0.791   0.939   5.228  1.5006  0.3129  2.2512
  903TIP3   OH224123   6.598   5.688   2.690  0.0228 -0.3640  0.1623
  903TIP3    H124124   6.658   5.694   2.616 -1.3383 -1.3780 -1.0928
  903TIP3    H224125   6.622   5.606   2.733  0.4557 -0.0485  0.5333
  904TIP3   OH224126   6.629   6.781  17.134  0.2981  0.5106  0.1960
  904TIP3    H124127   6.627   6.734  17.051 -1.8098  2.2476 -0.8625
  904TIP3    H224128   6.549   6.753  17.179 -0.5827  2.3561 -0.1162
  905TIP3   OH224129   6.629   5.279  15.629  0.1080 -0.3411  0.2049
  905TIP3    H124130   6.606   5.328  15.550 -0.6541  2.0062  1.7602
  905TIP3    H224131   6.724   5.281  15.632  0.1084  0.7587  0.0164
  906TIP3   OH224132   3.832   1.830   2.874 -0.1916  0.0987 -0.3068
  906TIP3    H124133   3.841   1.885   2.952 -1.5529 -1.9234  1.4263
  906TIP3    H224134   3.806   1.890   2.804  1.0418  1.9853  0.7627
  907TIP3   OH224135   1.255   3.153  12.642  0.5479  0.3483 -0.7252
  907TIP3    H124136   1.214   3.236  12.664 -0.9043  0.0231 -1.9980
  907TIP3    H224137   1.194   3.112  12.580  0.9286 -1.9130  0.2890
  908TIP3   OH224138   5.198   1.713  15.248 -0.0580  0.3857 -0.2091
  908TIP3    H124139   5.117   1.745  15.210 -0.0049 -0.5701 -1.1655
  908TIP3    H224140   5.237   1.789  15.291 -0.9285  1.0923 -0.6622
  909TIP3   OH224141   4.515   1.233  14.521  0.1236 -0.0823  0.3429
  909TIP3    H124142   4.426   1.196  14.524 -0.4231  1.1467 -0.0763
  909TIP3    H224143   4.572   1.157  14.510 -0.8884 -0.8758  0.3833
  910TIP3   OH224144   3.025   4.053   1.980 -0.4073  0.3762 -0.2668
  910TIP3    H124145   3.112   4.084   2.005 -0.8534  1.3654  0.0887
  910TIP3    H224146   2.988   4.123   1.927 -0.8108 -0.2430 -0.8165
  911TIP3   OH224147   3.787   5.608  13.608 -0.1488  0.1899  0.4018
  911TIP3    H124148   3.865   5.612  13.663  0.9944 -0.4446 -1.1146
  911TIP3    H224149   3.807   5.662  13.533 -1.4098  0.4693  0.2358
  912TIP3   OH224150   1.188   1.441   5.715 -0.2538 -0.1718 -0.2254
  912TIP3    H124151   1.235   1.514   5.755 -1.8880  1.4287 -1.1059
  912TIP3    H224152   1.165   1.471   5.628 -1.0323 -1.7265 -0.5925
  913TIP3   OH224153   5.038   4.038   4.929 -0.1469  0.2289  0.2712
  913TIP3    H124154   5.127   4.021   4.960  0.0242 -0.4734 -0.5507
  913TIP3    H224155   4.985   3.969   4.969 -0.2849  0.5309  0.6070
  914TIP3   OH224156   0.331   6.133   4.327 -0.1049 -0.2512  0.5419
  914TIP3    H124157   0.302   6.158   4.240  0.8763  0.0779  0.2940
  914TIP3    H224158   0.261   6.076   4.361 -1.2300  0.8551  0.1625
  915TIP3   OH224159   4.946   3.546  10.619  0.3081  0.3533  0.4664
  915TIP3    H124160   4.935   3.501  10.702  1.0253 -0.7415 -0.0065
  915TIP3    H224161   5.041   3.561  10.613  0.3019  0.1236 -0.2938
  916TIP3   OH224162   1.921   2.351   2.782 -0.3888  0.4069  0.1424
  916TIP3    H124163   1.971   2.270   2.796 -1.2510  0.1850  2.3017
  916TIP3    H224164   1.848   2.324   2.725 -0.9942 -0.5238  1.3003
  917TIP3   OH224165   1.403   0.598   5.839 -0.3858  0.0883 -0.6066
  917TIP3    H124166   1.458   0.578   5.915 -0.5344  0.2448 -0.4540
  917TIP3    H224167   1.442   0.677   5.801  0.3737 -0.6551 -1.3819
  918TIP3   OH224168   1.726   3.639  13.019 -0.4219 -0.0552  0.0626
  918TIP3    H124169   1.674   3.719  13.028 -2.3476 -1.3486  1.0643
  918TIP3    H224170   1.767   3.647  12.932 -0.5817  1.9784  0.1373
  919TIP3   OH224171   4.262   5.433   3.414  0.2143 -0.4317  0.1175
  919TIP3    H124172   4.172   5.403   3.421  0.0190  0.3293  0.9928
  919TIP3    H224173   4.303   5.407   3.497  0.8112 -0.7878 -0.2758
  920TIP3   OH224174   4.720   2.344   3.035  0.3174 -0.3227  0.4623
  920TIP3    H124175   4.786   2.318   3.099  2.0155  1.6951 -0.3407
  920TIP3    H224176   4.647   2.377   3.088  0.9788 -0.2697  1.3753
  921TIP3   OH224177   3.323   2.817   5.260  0.2522 -0.1021  0.4304
  921TIP3    H124178   3.253   2.878   5.240 -0.8107 -0.6643  2.2085
  921TIP3    H224179   3.278   2.737   5.288  1.6082 -0.9507  0.2953
  922TIP3   OH224180   3.317   0.073   2.848 -0.3908  0.3332 -0.0533
  922TIP3    H124181   3.353   0.144   2.795  1.5032  1.1544  2.1770
  922TIP3    H224182   3.231   0.105   2.875 -0.8138  0.4618 -1.4592
  923TIP3   OH224183   1.049   0.409  14.898  0.2598  0.2282  0.2839
  923TIP3    H124184   1.043   0.332  14.842 -0.0995  0.9888 -0.7576
  923TIP3    H224185   1.111   0.466  14.853  0.8190  0.3978  1.2435
  924TIP3   OH224186   3.394   3.568   4.203  0.0934 -0.3722 -0.6683
  924TIP3    H124187   3.335   3.615   4.144 -0.2529 -1.6665 -1.3937
  924TIP3    H224188   3.335   3.519   4.261  0.4419 -1.2914 -1.0802
  925TIP3   OH224189   3.759   1.167  13.928 -0.1633  0.0785  0.2985
  925TIP3    H124190   3.732   1.091  13.980  0.4007 -1.0476 -0.9777
  925TIP3    H224191   3.759   1.135  13.837  0.0660  1.6236 -0.2803
  926TIP3   OH224192   0.864   0.128  15.119  1.0121 -0.1203 -0.1014
  926TIP3    H124193   0.777   0.107  15.154  1.3433 -0.0379  0.8078
  926TIP3    H224194   0.875   0.222  15.137  1.1065 -0.0280 -0.6284
  927TIP3   OH224195   5.624   2.412  13.031 -0.1046 -0.1503 -0.3028
  927TIP3    H124196   5.714   2.422  13.063  1.5792 -2.6164 -3.6784
  927TIP3    H224197   5.622   2.463  12.950 -1.5141 -0.7291 -0.6572
  928TIP3   OH224198   0.838   4.824  12.522 -0.2686  0.0756  0.0749
  928TIP3    H124199   0.886   4.784  12.449  2.2800  2.5520  0.2103
  928TIP3    H224200   0.802   4.750  12.570  1.3534 -1.8612 -1.4969
  929TIP3   OH224201   5.611   0.757  16.631 -0.1206 -0.2252 -0.4131
  929TIP3    H124202   5.549   0.823  16.662 -0.6913 -0.4912 -0.9789
  929TIP3    H224203   5.664   0.736  16.708 -0.8564 -0.1288  0.1295
  930TIP3   OH224204   2.546   1.593  15.460  0.1166 -0.0907 -0.7086
  930TIP3    H124205   2.598   1.540  15.521 -1.1522  1.0199  1.4683
  930TIP3    H224206   2.573   1.683  15.477 -0.1426  0.2456 -1.9668
  931TIP3   OH224207   4.020   5.850  11.211  0.8410  0.3138 -0.0772
  931TIP3    H124208   4.035   5.936  11.172 -3.0427  1.8090  1.2219
  931TIP3    H224209   4.014   5.867  11.305  0.3268 -1.4474  0.2501
  932TIP3   OH224210   3.889   2.217   5.214 -0.1043 -0.2021 -0.5239
  932TIP3    H124211   3.982   2.239   5.203 -0.1542  0.7522  0.7468
  932TIP3    H224212   3.884   2.176   5.301 -1.1447  1.6073  0.3297
  933TIP3   OH224213   5.382   0.230   2.595  0.6516 -0.4445  0.0468
  933TIP3    H124214   5.297   0.275   2.591  0.5383 -0.7273 -1.5152
  933TIP3    H224215   5.428   0.260   2.516  1.5457 -1.1927  0.2713
  934TIP3   OH224216   3.124   3.979   4.688  0.0324 -0.1907  0.5978
  934TIP3    H124217   3.078   3.900   4.659  0.4257 -0.0916 -0.3454
  934TIP3    H224218   3.082   4.003   4.770 -0.4110 -1.1094  0.6519
  935TIP3   OH224219   5.634   6.772  11.715 -0.3666 -0.4273  0.1957
  935TIP3    H124220   5.582   6.738  11.788 -0.0478  0.1800  0.7207
  935TIP3    H224221   5.720   6.788  11.753 -0.0678 -0.5238 -0.4311
  936TIP3   OH224222   1.787   3.357   3.887 -0.0066  0.1751  0.1577
  936TIP3    H124223   1.864   3.403   3.854 -0.0691  0.0501 -0.1724
  936TIP3    H224224   1.808   3.264   3.875  0.6174  0.0467  1.9355
  937TIP3   OH224225   2.710   0.909   5.269 -0.7028  0.2405  0.3491
  937TIP3    H124226   2.671   0.913   5.356 -0.4216 -0.7786  0.5379
  937TIP3    H224227   2.804   0.902   5.285 -0.5252  1.4955 -0.0771
  938TIP3   OH224228   5.859   2.697   3.165  0.2483  0.6130  0.2062
  938TIP3    H124229   5.858   2.692   3.261  2.2733  0.2226  0.2618
  938TIP3    H224230   5.811   2.619   3.137 -0.3270  0.7072  0.8990
  939TIP3   OH224231   4.963   1.045   6.056  0.0493 -0.0702  0.3146
  939TIP3    H124232   4.960   1.023   6.149  0.0871 -0.4573  0.2259
  939TIP3    H224233   4.923   0.970   6.012 -3.8774  1.8318  0.2624
  940TIP3   OH224234   2.890   0.735  13.616  0.7561 -0.1666 -0.3604
  940TIP3    H124235   2.899   0.829  13.633  0.8754  0.4462 -3.2368
  940TIP3    H224236   2.976   0.709  13.582  0.5625 -1.2112 -0.0737
  941TIP3   OH224237   0.335   0.566  12.825 -0.3908  0.5516 -0.6049
  941TIP3    H124238   0.288   0.486  12.849 -0.4327  1.0937  1.3613
  941TIP3    H224239   0.277   0.637  12.854  0.2751  1.2670 -0.9874
  942TIP3   OH224240   3.168   6.277  16.146 -0.1375  0.2436  0.8584
  942TIP3    H124241   3.240   6.310  16.200  0.9652 -0.8149  0.0707
  942TIP3    H224242   3.127   6.356  16.110  0.7570  0.8548  1.1407
  943TIP3   OH224243   4.021   6.456   2.276  0.2512  0.2737 -0.0235
  943TIP3    H124244   3.984   6.508   2.347 -2.6064 -0.9705 -0.4522
  943TIP3    H224245   3.951   6.451   2.211  2.1666 -0.0876 -2.1756
  944TIP3   OH224246   2.729   0.338  11.776 -0.2520  0.1853 -0.0093
  944TIP3    H124247   2.742   0.401  11.847  0.5311  1.3832 -1.1618
  944TIP3    H224248   2.798   0.360  11.713 -2.8561  1.3878 -2.6877
  945TIP3   OH224249   0.780   5.248   4.059  0.4308  0.1439  0.2816
  945TIP3    H124250   0.769   5.332   4.015  0.2379  0.0847  0.2114
  945TIP3    H224251   0.836   5.266   4.134  0.5054  0.3078  0.1863
  946TIP3   OH224252   3.302   4.977   3.931 -0.1087 -0.2696  0.3955
  946TIP3    H124253   3.272   4.918   3.862  1.1584 -1.3332  0.7120
  946TIP3    H224254   3.368   5.032   3.889  0.8716 -1.1099  0.7980
  947TIP3   OH224255   6.504   6.462   5.359  0.2663  0.3730 -0.0950
  947TIP3    H124256   6.477   6.489   5.271 -0.4098  1.3109  0.3831
  947TIP3    H224257   6.495   6.541   5.412  2.7911  0.4227  0.3724
  948TIP3   OH224258   6.009   4.003   3.622 -1.5288  0.7576 -0.0886
  948TIP3    H124259   5.979   4.084   3.581  0.3395  0.6252 -1.9179
  948TIP3    H224260   5.963   3.934   3.575 -1.0978  0.6885 -0.4212
  949TIP3   OH224261   2.170   0.214  14.421  0.5414 -0.0940  0.2779
  949TIP3    H124262   2.075   0.216  14.404  0.4380  0.0887  0.8499
  949TIP3    H224263   2.180   0.260  14.504  1.1194 -0.2676  0.3073
  950TIP3   OH224264   1.548   3.492  14.649 -0.3180 -0.1457  0.3154
  950TIP3    H124265   1.548   3.402  14.615  0.2084 -0.3930  0.9230
  950TIP3    H224266   1.630   3.498  14.699  0.0074  0.9154 -0.3176
  951TIP3   OH224267   4.109   6.072  15.697 -0.1948  0.0094  0.6055
  951TIP3    H124268   4.145   6.034  15.777  0.0506 -2.0621 -0.4229
  951TIP3    H224269   4.179   6.126  15.661 -0.4631  1.3202  1.9767
  952TIP3   OH224270   3.928   6.345   0.851 -0.1050 -0.4904 -0.2633
  952TIP3    H124271   4.012   6.368   0.811 -0.0508 -1.5936 -0.8272
  952TIP3    H224272   3.869   6.332   0.777 -0.6797 -0.1052  0.1185
  953TIP3   OH224273   2.270   6.291   4.610 -0.3406  0.1641 -0.0063
  953TIP3    H124274   2.306   6.259   4.693 -0.7520  0.1637  0.1742
  953TIP3    H224275   2.251   6.213   4.560  0.0236  0.1672 -0.1517
  954TIP3   OH224276   0.588   6.713  10.604 -0.0977  0.4591 -0.0773
  954TIP3    H124277   0.517   6.725  10.667  1.4612 -0.9144  2.1059
  954TIP3    H224278   0.658   6.771  10.636  1.4101 -1.6709  0.6782
  955TIP3   OH224279   1.721   6.491   0.915 -0.0887 -0.0192 -0.5728
  955TIP3    H124280   1.640   6.491   0.965  0.2140  0.4865 -0.0693
  955TIP3    H224281   1.772   6.563   0.951  1.3718 -1.4730  0.4086
  956TIP3   OH224282   1.984   0.665   1.539 -0.1021  0.3523  0.1152
  956TIP3    H124283   1.999   0.573   1.517  1.6139 -0.1388  2.8989
  956TIP3    H224284   1.897   0.668   1.577  0.3323 -0.4056  1.2043
  957TIP3   OH224285   4.515   2.335  17.227 -0.2697  0.1531  0.1556
  957TIP3    H124286   4.599   2.299  17.257 -0.8055  1.0875  3.0652
  957TIP3    H224287   4.450   2.271  17.255 -0.6467 -0.1745 -1.3714
  958TIP3   OH224288   4.788   0.839   4.992  0.7279 -0.3918  0.2118
  958TIP3    H124289   4.867   0.869   5.038  1.2433 -0.1530 -0.7863
  958TIP3    H224290   4.821   0.802   4.910 -0.0996 -1.5422  0.3753
  959TIP3   OH224291   4.068   1.902  11.183  0.2568  0.1545 -1.2824
  959TIP3    H124292   4.075   1.902  11.087 -0.2785  0.1783 -1.3229
  959TIP3    H224293   4.072   1.995  11.207  0.4149  0.1471 -1.2803
  960TIP3   OH224294   6.624   5.446   5.299  0.5324  0.4915  0.2300
  960TIP3    H124295   6.614   5.474   5.208 -0.3877 -2.4475 -0.6833
  960TIP3    H224296   6.536   5.450   5.335  0.4444 -0.7693  0.1825
  961TIP3   OH224297   0.737   2.678  11.480 -0.3297 -0.3748  0.3879
  961TIP3    H124298   0.800   2.605  11.473  0.6102  0.3753  0.8695
  961TIP3    H224299   0.712   2.680  11.572 -0.0451  0.1604  0.4559
  962TIP3   OH224300   5.290   4.802  12.389 -0.3386 -0.1481 -0.3406
  962TIP3    H124301   5.257   4.736  12.328  0.3438 -0.9513  0.1258
  962TIP3    H224302   5.371   4.764  12.423 -0.4351  0.5167  0.6665
  963TIP3   OH224303   5.479   3.968   0.490  0.2704  0.1351  0.4877
  963TIP3    H124304   5.494   3.990   0.582  0.2666  0.1622  0.4820
  963TIP3    H224305   5.395   4.009   0.469 -1.2020 -2.2726  1.2836
  964TIP3   OH224306   1.350   4.387   3.338 -0.0358  0.4144  0.2311
  964TIP3    H124307   1.317   4.380   3.428  0.1655  3.4015  0.6356
  964TIP3    H224308   1.328   4.476   3.312  3.7922  1.1315 -1.0840
  965TIP3   OH224309   2.625   1.636  12.575 -0.1189 -0.2701  0.3325
  965TIP3    H124310   2.692   1.598  12.519  0.4917  1.6089 -0.2987
  965TIP3    H224311   2.649   1.611  12.664 -0.2492 -2.0245 -0.0916
  966TIP3   OH224312   0.710   3.139  17.113 -0.3997  0.2677 -0.0188
  966TIP3    H124313   0.672   3.144  17.026 -1.5018 -0.7931  0.3724
  966TIP3    H224314   0.745   3.050  17.120  0.7141  0.7027  0.2284
  967TIP3   OH224315   6.423   0.553   2.777 -0.4950  0.0153 -0.4842
  967TIP3    H124316   6.477   0.541   2.698 -1.0141  0.5297 -0.9290
  967TIP3    H224317   6.443   0.642   2.806  0.8272 -0.6718  0.8565
  968TIP3   OH224318   6.321   5.093  14.066 -0.1173 -0.3934 -0.2525
  968TIP3    H124319   6.321   5.035  13.990 -0.3114  0.5587 -0.9922
  968TIP3    H224320   6.367   5.172  14.037 -1.9845  0.8186 -0.0553
  969TIP3   OH224321   0.865   0.859  14.406  0.3964  0.9979 -0.2805
  969TIP3    H124322   0.897   0.868  14.496 -2.9455  2.6156  0.9321
  969TIP3    H224323   0.872   0.766  14.388  0.3833  0.4744  2.0369
  970TIP3   OH224324   0.917   1.570   5.772  0.3253 -0.2155  0.5677
  970TIP3    H124325   0.967   1.577   5.691  1.7663  2.1608  1.5664
  970TIP3    H224326   0.838   1.622   5.756 -0.3162 -1.3057  0.0890
  971TIP3   OH224327   3.463   6.574  10.809  0.0029 -0.0126 -0.4805
  971TIP3    H124328   3.472   6.505  10.874  0.1648  0.5364  0.0943
  971TIP3    H224329   3.397   6.633  10.845 -0.5453 -0.1582 -1.2315
  972TIP3   OH224330   1.206   4.765  16.307  0.4652 -0.5252 -0.2706
  972TIP3    H124331   1.270   4.836  16.312  1.2146 -1.1396 -0.9489
  972TIP3    H224332   1.173   4.767  16.217  0.7159 -1.2190 -0.3865
  973TIP3   OH224333   3.569   2.929   5.225  0.2081  0.1095 -0.3587
  973TIP3    H124334   3.548   2.932   5.132  1.6858 -2.5786 -0.8627
  973TIP3    H224335   3.502   2.872   5.263  0.5740 -0.1436 -0.0886
  974TIP3   OH224336   2.200   6.764  13.306  0.4080  0.1537  0.3344
  974TIP3    H124337   2.140   6.715  13.362  1.8577 -2.7913 -0.4908
  974TIP3    H224338   2.145   6.796  13.235 -0.5796 -0.5072  0.7722
  975TIP3   OH224339   6.313   5.143   0.374 -0.5690 -0.2886 -0.3449
  975TIP3    H124340   6.364   5.165   0.453 -1.1733 -0.9384  0.2451
  975TIP3    H224341   6.226   5.119   0.408 -1.3725  1.1098 -1.3615
  976TIP3   OH224342   3.984   0.570   3.477  0.5632 -0.2354 -0.3863
  976TIP3    H124343   4.067   0.525   3.490  1.8018  2.2955  1.2322
  976TIP3    H224344   3.967   0.614   3.560 -2.5431 -0.7693 -0.6075
  977TIP3   OH224345   0.967   3.463  16.636  0.4898  0.1139 -0.2176
  977TIP3    H124346   0.936   3.418  16.714  2.1256 -1.1309 -0.2239
  977TIP3    H224347   1.062   3.461  16.644  0.6565  1.1349 -1.6049
  978TIP3   OH224348   2.195   2.492  14.857 -0.7447  0.4383  0.4407
  978TIP3    H124349   2.251   2.415  14.870 -0.1558  0.3920 -1.9013
  978TIP3    H224350   2.256   2.562  14.836 -1.4281  0.9271  0.0584
  979TIP3   OH224351   6.495   3.637   3.524 -0.8989 -0.5196 -0.1525
  979TIP3    H124352   6.578   3.682   3.537  0.5407 -2.8655 -0.6518
  979TIP3    H224353   6.459   3.627   3.612 -0.8184  0.7535  0.0424
  980TIP3   OH224354   1.430   4.877   0.619 -0.6182  0.0565 -0.5780
  980TIP3    H124355   1.464   4.860   0.531 -1.0971  0.8131 -0.9197
  980TIP3    H224356   1.437   4.793   0.665  2.9743  0.3982 -0.1887
  981TIP3   OH224357   0.630   5.199  11.818 -0.4659 -0.2319 -0.2349
  981TIP3    H124358   0.596   5.116  11.851 -0.0665  0.2756  1.5622
  981TIP3    H224359   0.575   5.266  11.860 -0.1843  0.4420 -0.9172
  982TIP3   OH224360   1.535   6.021  15.611  0.2718  1.0744 -0.0319
  982TIP3    H124361   1.538   5.943  15.556 -0.4557  1.1560 -0.2115
  982TIP3    H224362   1.453   6.012  15.660  0.2256  1.6712  0.0118
  983TIP3   OH224363   2.843   1.201   4.046  0.4415 -0.1056 -0.4315
  983TIP3    H124364   2.848   1.117   3.999  1.1627  0.3545 -1.1882
  983TIP3    H224365   2.924   1.206   4.095  0.1710 -0.0750  0.0195
  984TIP3   OH224366   6.301   5.094  11.706 -0.7118  1.1866  0.4664
  984TIP3    H124367   6.309   5.002  11.731  0.1946  0.9123 -0.7544
  984TIP3    H224368   6.392   5.125  11.699 -0.8506  1.2037 -2.5354
  985TIP3   OH224369   5.309   2.783  15.954  0.0469 -0.0142  0.3980
  985TIP3    H124370   5.336   2.840  15.882  1.2494 -0.8765  0.1175
  985TIP3    H224371   5.275   2.705  15.910  1.5812 -0.9071  0.7040
  986TIP3   OH224372   4.068   1.126   0.485 -0.0898  0.2885  0.0514
  986TIP3    H124373   4.007   1.122   0.412 -0.5517 -1.8255  0.4716
  986TIP3    H224374   4.152   1.102   0.447 -0.6032 -2.3339  0.3951
  987TIP3   OH224375   0.830   5.472  14.003  0.0223 -0.5792  0.0872
  987TIP3    H124376   0.878   5.446  14.082  1.8818  0.2631 -0.6919
  987TIP3    H224377   0.755   5.413  14.000 -0.4036 -0.2892  2.7490
  988TIP3   OH224378   4.772   0.206  15.246 -0.8001  0.0654  0.2431
  988TIP3    H124379   4.785   0.207  15.152  0.6773 -0.6313  0.4298
  988TIP3    H224380   4.748   0.116  15.267  0.5713 -0.1976  0.7383
  989TIP3   OH224381   0.416   5.117  12.876 -0.2898 -0.2929  0.5585
  989TIP3    H124382   0.452   5.180  12.813 -0.0688 -0.9946 -0.0362
  989TIP3    H224383   0.335   5.157  12.906 -1.3488 -0.6927 -1.5317
  990TIP3   OH224384   2.412   4.795   1.824 -0.0007 -0.4683  0.0388
  990TIP3    H124385   2.321   4.815   1.845 -0.2009 -0.3313 -0.9158
  990TIP3    H224386   2.449   4.879   1.795  1.0460 -0.0193  2.4272
  991TIP3   OH224387   2.223   4.918  14.212  0.1185  0.5074  0.4277
  991TIP3    H124388   2.211   4.853  14.143  0.3791  0.5929  0.2993
  991TIP3    H224389   2.168   4.888  14.284  0.9593 -0.3713  0.7251
  992TIP3   OH224390   2.587   1.552  13.612 -0.4773  0.0203  0.2620
  992TIP3    H124391   2.605   1.534  13.704 -0.5225 -0.7238  0.1302
  992TIP3    H224392   2.516   1.616  13.613 -3.5235 -3.0631  0.7656
  993TIP3   OH224393   4.272   5.631  15.265 -0.3810 -0.0804  0.2730
  993TIP3    H124394   4.342   5.579  15.224 -0.6877 -0.6527  0.4555
  993TIP3    H224395   4.278   5.717  15.223 -0.6094 -0.6147 -0.9016
  994TIP3   OH224396   6.428   2.613   2.309  0.6687  0.1651 -0.6182
  994TIP3    H124397   6.345   2.659   2.323  0.0396 -0.9830 -0.4042
  994TIP3    H224398   6.495   2.680   2.318 -0.2878  1.3414 -1.8738
  995TIP3   OH224399   1.544   3.760   0.521  0.0536 -0.2745  0.2108
  995TIP3    H124400   1.631   3.800   0.521  0.2987 -0.7954  0.5658
  995TIP3    H224401   1.515   3.764   0.430  0.7696 -0.7932 -0.0495
  996TIP3   OH224402   3.113   4.766  11.972  0.7844 -0.0772  0.2121
  996TIP3    H124403   3.090   4.809  11.890  1.5150  0.1895  0.1379
  996TIP3    H224404   3.208   4.754  11.967  0.9648  0.6905  1.3659
  997TIP3   OH224405   0.627   0.758   3.818  0.6702  0.0771  0.4473
  997TIP3    H124406   0.718   0.787   3.812  0.6307  0.3630  1.2180
  997TIP3    H224407   0.586   0.816   3.882 -0.2129  0.3335 -0.3194
  998TIP3   OH224408   1.290   6.149   6.442  0.6063  0.4903  0.0747
  998TIP3    H124409   1.345   6.071   6.429  0.7519  0.2474  1.8602
  998TIP3    H224410   1.202   6.121   6.418  1.1525  0.8190 -2.6091
  999TIP3   OH224411   2.822   0.574  15.344 -0.0695 -0.1972 -0.3981
  999TIP3    H124412   2.836   0.607  15.433 -0.5330  0.7025 -0.6428
  999TIP3    H224413   2.901   0.598  15.296  0.7377 -1.8078  0.0623
 1000TIP3   OH224414   4.708   1.310   5.132 -0.0295 -0.5760 -0.0913
 1000TIP3    H124415   4.792   1.283   5.169  0.2909 -2.7037 -2.0986
 1000TIP3    H224416   4.649   1.317   5.207  1.3335 -1.4970  1.1167
 1001TIP3   OH224417   1.470   2.188   0.286 -0.3443 -0.1780  0.0948
 1001TIP3    H124418   1.457   2.108   0.338 -0.5972  1.4476  2.6853
 1001TIP3    H224419   1.560   2.214   0.304 -0.8081  1.0679  0.7144
 1002TIP3   OH224420   0.172   6.647  16.002  0.7807 -0.6803 -0.0799
 1002TIP3    H124421   0.122   6.717  15.961  2.0920  0.1848 -0.2676
 1002TIP3    H224422   0.155   6.657  16.096  1.8757  0.6851  0.0093
 1003TIP3   OH224423   1.339   2.803   2.263 -0.1368  0.3230 -0.7175
 1003TIP3    H124424   1.405   2.756   2.314  0.2500  1.6032 -0.0007
 1003TIP3    H224425   1.326   2.748   2.185  2.2247  0.3282 -1.1799
 1004TIP3   OH224426   1.418   4.999  14.583 -0.3890 -0.2663 -0.1007
 1004TIP3    H124427   1.446   5.068  14.523 -0.5518 -2.4563 -2.9089
 1004TIP3    H224428   1.331   4.974  14.552 -0.3160 -1.7663  0.8017
 1005TIP3   OH224429   5.348   6.610  14.412  0.0399  0.1590 -0.5826
 1005TIP3    H124430   5.359   6.703  14.433 -2.8131  0.4512 -0.0151
 1005TIP3    H224431   5.325   6.610  14.319  0.1739 -0.0081 -0.6160
 1006TIP3   OH224432   2.046   2.798  15.490  0.5824 -0.0552  0.1199
 1006TIP3    H124433   2.018   2.800  15.398  0.8553  0.7120  0.0462
 1006TIP3    H224434   2.107   2.871  15.498  1.3749 -0.7561  0.6619
 1007TIP3   OH224435   1.922   1.712  12.691 -0.4063 -0.1037 -0.5395
 1007TIP3    H124436   1.964   1.649  12.750  0.4645 -1.2624 -2.3058
 1007TIP3    H224437   1.877   1.773  12.749  0.1155 -1.3819  1.2998
 1008TIP3   OH224438   2.562   4.656   0.011 -1.0297 -0.6173 -0.5186
 1008TIP3    H124439   2.544   4.598  -0.064  1.1134 -0.5867 -1.1404
 1008TIP3    H224440   2.489   4.641   0.071 -1.4369 -2.6854 -1.4259
 1009TIP3   OH224441   6.403   5.294  15.790  0.0054  0.4168 -0.3944
 1009TIP3    H124442   6.484   5.271  15.744  0.1607 -0.4328  0.2657
 1009TIP3    H224443   6.335   5.242  15.747  0.6725 -3.2104  2.4353
 1010TIP3   OH224444   4.310   4.059  11.431  0.8929 -0.4018 -0.4569
 1010TIP3    H124445   4.368   4.110  11.488  0.0590  1.7598 -1.4182
 1010TIP3    H224446   4.224   4.065  11.472  0.8734 -1.5690 -0.2957
 1011TIP3   OH224447   6.095   2.091   1.086 -0.2719 -0.1518 -0.3271
 1011TIP3    H124448   6.161   2.030   1.121 -0.0734  0.0220 -0.3938
 1011TIP3    H224449   6.111   2.091   0.991 -0.7056 -0.5010 -0.4010
 1012TIP3   OH224450   0.212   0.087   3.937  0.1710  0.4852 -0.1827
 1012TIP3    H124451   0.231  -0.005   3.954  0.6834  0.0009 -2.8859
 1012TIP3    H224452   0.142   0.109   3.997 -1.5983 -2.3726 -1.0199
 1013TIP3   OH224453   3.102   0.696   1.068  0.2608 -0.1608 -0.9128
 1013TIP3    H124454   3.127   0.692   1.160  0.4092 -1.9543 -0.9967
 1013TIP3    H224455   3.185   0.702   1.021  0.3556 -1.8759 -1.0136
 1014TIP3   OH224456   5.126   5.929  12.474  0.0227 -0.4796  0.0440
 1014TIP3    H124457   5.156   5.974  12.396 -0.4108 -0.1785  0.0500
 1014TIP3    H224458   5.049   5.978  12.503 -1.1051 -1.8225 -0.5489
 1015TIP3   OH224459   0.500   1.295  12.242 -0.0685  0.1702 -0.1580
 1015TIP3    H124460   0.468   1.256  12.324 -0.6120 -3.4550 -1.8672
 1015TIP3    H224461   0.428   1.282  12.180  0.5649  2.2326 -1.4306
 1016TIP3   OH224462   3.632   5.266   0.925 -0.1937  0.2375 -0.4480
 1016TIP3    H124463   3.608   5.337   0.984  1.8309 -0.2712  1.0730
 1016TIP3    H224464   3.701   5.302   0.870  0.6859 -0.4386  0.1796
 1017TIP3   OH224465   4.480   4.166  14.451 -0.7586 -0.1598 -0.4517
 1017TIP3    H124466   4.564   4.121  14.461 -0.0370  1.0698 -0.7731
 1017TIP3    H224467   4.415   4.097  14.459  0.2368 -1.0027  0.7461
 1018TIP3   OH224468   4.399   2.855  17.084 -0.0418 -0.5475 -0.0381
 1018TIP3    H124469   4.318   2.898  17.058  0.8607 -0.0285 -2.2369
 1018TIP3    H224470   4.394   2.769  17.043  0.7823 -0.2780 -0.7146
 1019TIP3   OH224471   0.587   4.304   2.723  0.2975  0.1726 -0.1726
 1019TIP3    H124472   0.546   4.223   2.752 -1.0140  0.4567 -1.1238
 1019TIP3    H224473   0.604   4.290   2.630 -0.1267  1.0411 -0.3951
 1020TIP3   OH224474   4.428   1.058  16.330 -0.1607 -0.5032  0.3530
 1020TIP3    H124475   4.343   1.015  16.336  0.6808 -2.3427 -0.0059
 1020TIP3    H224476   4.430   1.119  16.403 -2.3703  0.7171 -0.5340
 1021TIP3   OH224477   0.959   6.130  11.225 -0.0450 -0.5288 -0.0720
 1021TIP3    H124478   0.924   6.111  11.312 -0.7070  2.6059  0.4474
 1021TIP3    H224479   0.892   6.096  11.165  0.2568 -2.4147  0.5675
 1022TIP3   OH224480   2.897   1.736   3.300  0.3369 -0.2422  0.1946
 1022TIP3    H124481   2.815   1.727   3.252 -0.4223 -0.0728  1.4203
 1022TIP3    H224482   2.957   1.675   3.257 -0.9438 -1.6795  0.3478
 1023TIP3   OH224483   2.774   1.800  11.046 -0.0570  0.4383  0.0953
 1023TIP3    H124484   2.770   1.881  10.995 -1.1280  1.4767  1.7057
 1023TIP3    H224485   2.688   1.794  11.088  0.6915 -0.4460  1.5950
 1024TIP3   OH224486   1.653   5.583  16.495 -0.3312  0.1488  0.2318
 1024TIP3    H124487   1.622   5.529  16.567 -1.3359 -0.0210 -0.3130
 1024TIP3    H224488   1.667   5.522  16.422  0.0535  0.4039  0.0877
 1025TIP3   OH224489   4.658   0.432   0.156  0.2131 -0.1126  0.1613
 1025TIP3    H124490   4.597   0.499   0.185  1.2973  0.3973  1.3542
 1025TIP3    H224491   4.743   0.460   0.191  1.6054  0.3584 -3.1793
 1026TIP3   OH224492   5.919   4.352   2.790 -0.4733  0.5989 -0.3426
 1026TIP3    H124493   5.841   4.364   2.737 -2.2704 -1.0004  1.7512
 1026TIP3    H224494   5.891   4.368   2.880  2.0330  1.5969  0.3540
 1027TIP3   OH224495   5.716   2.320  16.885 -0.3643 -0.1430  0.5756
 1027TIP3    H124496   5.651   2.328  16.955 -0.7322 -0.1615  0.2366
 1027TIP3    H224497   5.761   2.405  16.885  1.5476 -1.0370  2.6876
 1028TIP3   OH224498   6.465   3.614   0.421  0.2550 -0.4247 -0.2213
 1028TIP3    H124499   6.518   3.663   0.358  0.0271  1.1517  0.7681
 1028TIP3    H224500   6.375   3.631   0.395  0.1272  0.8706  0.9159
 1029TIP3   OH224501   3.926   6.610   3.002  0.1475  0.5360 -0.3636
 1029TIP3    H124502   3.846   6.582   3.047  1.1804  0.3457  1.4189
 1029TIP3    H224503   3.928   6.556   2.923  0.1025 -1.7691  1.1049
 1030TIP3   OH224504   5.909   5.525  17.118  0.4064  0.4418 -0.1831
 1030TIP3    H124505   5.961   5.517  17.198 -0.3814 -0.5562  0.2440
 1030TIP3    H224506   5.901   5.435  17.086  0.0793  0.7475 -0.9827
 1031TIP3   OH224507   0.322   4.526  16.126  0.8964  0.5150 -0.6768
 1031TIP3    H124508   0.298   4.602  16.180  0.1118  1.0497 -1.7484
 1031TIP3    H224509   0.414   4.511  16.146  0.9807  1.5509 -0.2065
 1032TIP3   OH224510   4.278   4.753   1.728 -0.0351 -0.1111 -0.2370
 1032TIP3    H124511   4.281   4.668   1.683 -0.5328 -0.0099 -0.4679
 1032TIP3    H224512   4.352   4.802   1.692  0.4308 -0.5520  0.1139
 1033TIP3   OH224513   1.463   3.697   4.076  0.1874 -0.3011  0.1731
 1033TIP3    H124514   1.407   3.620   4.084 -1.0446  0.6645  1.4823
 1033TIP3    H224515   1.487   3.720   4.166  0.9827  0.5220 -0.2289
 1034TIP3   OH224516   3.229   3.918  16.898 -0.2240  0.0101 -0.1006
 1034TIP3    H124517   3.181   3.861  16.959  1.1163 -1.0272  0.0489
 1034TIP3    H224518   3.319   3.886  16.902 -0.0237  0.0725 -2.4205
 1035TIP3   OH224519   1.954   2.685  13.431  0.6881 -0.2267  0.3510
 1035TIP3    H124520   1.862   2.699  13.454  0.9379  0.9052  0.7039
 1035TIP3    H224521   1.990   2.772  13.417  1.9241 -0.5884  1.0573
 1036TIP3   OH224522   4.250   1.613  11.762  0.3945  0.0233  0.1321
 1036TIP3    H124523   4.156   1.593  11.761  0.2438  0.7368 -0.4291
 1036TIP3    H224524   4.264   1.669  11.685  1.6579 -1.7753 -1.0325
 1037TIP3   OH224525   0.423   2.620  11.347 -0.1284 -0.2107  0.1313
 1037TIP3    H124526   0.360   2.590  11.282 -0.4275  0.3272  0.1608
 1037TIP3    H224527   0.392   2.585  11.430  0.4018 -1.1218 -0.0398
 1038TIP3   OH224528   1.645   4.602  11.425 -0.1786 -0.1038  0.0755
 1038TIP3    H124529   1.727   4.620  11.472  0.4332 -2.4496  0.0167
 1038TIP3    H224530   1.650   4.509  11.402 -2.5113 -0.1147 -0.6554
 1039TIP3   OH224531   1.036   2.472   3.625  0.8164 -0.1134 -0.3339
 1039TIP3    H124532   1.035   2.383   3.661 -1.2570 -0.1528 -0.3400
 1039TIP3    H224533   1.033   2.459   3.530  1.4372 -0.0190 -0.3709
 1040TIP3   OH224534   3.788   2.750   5.436 -0.4393  0.0988  0.0138
 1040TIP3    H124535   3.768   2.840   5.412 -0.8593 -0.1365 -0.5287
 1040TIP3    H224536   3.879   2.754   5.466 -0.8827  0.9443  1.3265
 1041TIP3   OH224537   2.633   1.780  12.087  0.0474 -0.0245  0.2508
 1041TIP3    H124538   2.600   1.758  12.174 -0.3363 -0.8255 -0.0916
 1041TIP3    H224539   2.643   1.875  12.088 -1.2628  0.1216  0.7182
 1042TIP3   OH224540   0.314   5.562   4.815 -0.1849  0.2036  0.6988
 1042TIP3    H124541   0.259   5.488   4.841  2.3793 -2.1767 -0.1130
 1042TIP3    H224542   0.330   5.548   4.722  1.0982  1.2576  0.7312
 1043TIP3   OH224543   6.471   0.361   4.452 -0.2567 -0.0412 -0.4558
 1043TIP3    H124544   6.439   0.311   4.528 -0.8068  2.0167  0.7510
 1043TIP3    H224545   6.566   0.364   4.464 -0.2893 -0.1853 -0.1358
 1044TIP3   OH224546   3.766   0.672  17.018  0.3419 -0.2667 -0.2635
 1044TIP3    H124547   3.733   0.700  17.104  0.8161  1.8942 -0.7188
 1044TIP3    H224548   3.856   0.642  17.035  0.8608  1.2816 -0.1376
 1045TIP3   OH224549   3.727   1.044   1.690 -0.2276  0.1821 -0.2823
 1045TIP3    H124550   3.690   1.065   1.605  0.2586  2.1884 -0.0524
 1045TIP3    H224551   3.686   1.107   1.750  0.4862 -0.2693  0.7071
 1046TIP3   OH224552   5.764   2.023  11.007  0.5986 -0.3026  0.4782
 1046TIP3    H124553   5.680   2.029  10.960  0.5282  0.4749  0.6909
 1046TIP3    H224554   5.807   1.946  10.969  0.6185  0.3998 -0.9936
 1047TIP3   OH224555   5.231   3.361  11.792 -0.2709 -0.0663 -0.1404
 1047TIP3    H124556   5.142   3.342  11.820 -0.1283 -1.7829 -0.7320
 1047TIP3    H224557   5.221   3.432  11.727 -1.1930 -0.2081 -0.1716
 1048TIP3   OH224558   5.567   4.555   4.365  0.1536 -0.2264  0.3028
 1048TIP3    H124559   5.545   4.647   4.371  2.9167  0.5010  0.6551
 1048TIP3    H224560   5.563   4.535   4.271  1.5716  0.8719 -0.0251
 1049TIP3   OH224561   1.972   5.592  16.217 -0.2873 -0.6675 -0.0769
 1049TIP3    H124562   1.946   5.670  16.266  3.3429  0.1101  0.9190
 1049TIP3    H224563   2.005   5.626  16.134 -0.8908 -1.4072 -0.6340
 1050TIP3   OH224564   5.112   5.698   3.450  0.4696 -0.1620  0.8498
 1050TIP3    H124565   5.065   5.621   3.421  0.7101  0.1234 -0.3418
 1050TIP3    H224566   5.044   5.761   3.474  0.0486  1.0751 -2.9472
 1051TIP3   OH224567   5.270   6.711   6.078  0.0866  0.1878 -0.0811
 1051TIP3    H124568   5.183   6.748   6.061  0.2282  0.6601  0.1879
 1051TIP3    H224569   5.268   6.687   6.171  0.1794  0.0179 -0.1224
 1052TIP3   OH224570   2.389   4.505   3.571  0.6558  0.4033 -0.1383
 1052TIP3    H124571   2.451   4.434   3.588  0.6992  0.8408  1.8044
 1052TIP3    H224572   2.444   4.584   3.568  0.4281  0.5474 -0.5820
 1053TIP3   OH224573   0.227   4.964  12.202  0.0062  0.5142 -0.0202
 1053TIP3    H124574   0.208   5.057  12.189 -1.5637  0.2106 -0.0971
 1053TIP3    H224575   0.208   4.947  12.294  1.2952  0.4672  0.2596
 1054TIP3   OH224576   3.208   5.129   4.796 -0.4408  0.3515  0.6567
 1054TIP3    H124577   3.227   5.066   4.865 -2.2643 -1.5884 -0.5230
 1054TIP3    H224578   3.156   5.197   4.839 -2.1943 -1.2184  1.0857
 1055TIP3   OH224579   6.072   6.103   6.317 -0.1230 -0.1932  0.4087
 1055TIP3    H124580   6.153   6.089   6.267  0.7650  2.2572  1.0270
 1055TIP3    H224581   6.008   6.132   6.252  0.2475  0.3625  0.2890
 1056TIP3   OH224582   2.074   4.597  10.647  0.3211 -0.4249  0.2126
 1056TIP3    H124583   2.066   4.505  10.619 -0.5229 -0.0970 -0.6586
 1056TIP3    H224584   2.141   4.595  10.716  0.6301 -1.6294 -0.0966
 1057TIP3   OH224585   5.644   2.899  11.286 -0.3786  0.2814  0.4482
 1057TIP3    H124586   5.637   2.834  11.356  1.5175  1.4011  1.7652
 1057TIP3    H224587   5.665   2.848  11.208  1.3875 -0.7118  1.5026
 1058TIP3   OH224588   5.253   5.913  12.932  0.2512 -0.0379  0.5687
 1058TIP3    H124589   5.187   5.967  12.888  0.5005 -0.0262  0.1944
 1058TIP3    H224590   5.320   5.976  12.960 -0.1582  0.0144  1.4333
 1059TIP3   OH224591   1.552   3.241  13.338 -0.3418  0.5808 -0.6368
 1059TIP3    H124592   1.577   3.251  13.246  0.5001 -0.4122 -0.5345
 1059TIP3    H224593   1.485   3.173  13.337  0.1887  0.0484 -0.4514
 1060TIP3   OH224594   1.054   2.342  16.658  0.0916 -0.1245  0.4213
 1060TIP3    H124595   1.093   2.353  16.745 -1.1802 -1.7939  1.2640
 1060TIP3    H224596   1.123   2.366  16.597  1.2835  0.2894  1.8827
 1061TIP3   OH224597   2.507   2.377  12.499 -0.2032 -0.4487  0.6486
 1061TIP3    H124598   2.603   2.377  12.508 -0.0607 -1.7695 -0.5670
 1061TIP3    H224599   2.476   2.400  12.586  1.2159  2.1827  0.5747
 1062TIP3   OH224600   5.867   1.382   5.404 -0.4009 -0.1219 -0.2218
 1062TIP3    H124601   5.836   1.348   5.320  0.9346 -1.3798 -0.2433
 1062TIP3    H224602   5.853   1.310   5.466 -1.7815  0.9374  0.7688
 1063TIP3   OH224603   5.408   3.445   5.135  0.2895  0.0284  0.4147
 1063TIP3    H124604   5.418   3.532   5.174 -3.2278  1.4262 -1.4091
 1063TIP3    H224605   5.383   3.389   5.208  0.6220  0.9626  1.2763
 1064TIP3   OH224606   1.611   5.883  11.346 -0.4929 -0.8046 -0.3800
 1064TIP3    H124607   1.560   5.845  11.418  0.2860  0.3085  0.8077
 1064TIP3    H224608   1.674   5.941  11.389  1.9488 -2.2654 -1.7370
 1065TIP3   OH224609   0.638   6.206   1.311 -0.0616  0.1813  0.8062
 1065TIP3    H124610   0.726   6.195   1.275  0.8490  1.0208  2.6322
 1065TIP3    H224611   0.595   6.122   1.296  0.4210  0.2831 -1.6209
 1066TIP3   OH224612   5.078   2.693   3.058  0.1322  0.1758 -0.4417
 1066TIP3    H124613   5.106   2.776   3.098  1.3811  0.0875 -1.1008
 1066TIP3    H224614   5.158   2.640   3.055 -0.6198 -0.9987 -0.1763
 1067TIP3   OH224615   3.834   3.024   3.568  0.4542 -0.5387 -0.0344
 1067TIP3    H124616   3.824   3.099   3.509  0.8686 -0.1620  0.3706
 1067TIP3    H224617   3.905   2.973   3.530  1.0503 -0.0400  0.4021
 1068TIP3   OH224618   2.697   1.943   4.262  0.5583 -0.4447 -0.5450
 1068TIP3    H124619   2.709   2.038   4.265  0.2367 -0.4024 -0.6362
 1068TIP3    H224620   2.699   1.915   4.354  1.3005 -0.4323 -0.5463
 1069TIP3   OH224621   6.171   4.198  14.361  0.4842  0.0505  0.0707
 1069TIP3    H124622   6.178   4.116  14.410  0.3794  0.0755  0.1295
 1069TIP3    H224623   6.228   4.259  14.409  0.3309  0.0926  0.2022
 1070TIP3   OH224624   2.393   4.995  13.906 -0.4242  0.2445  0.1597
 1070TIP3    H124625   2.399   4.909  13.949 -2.3560  0.7840  1.6678
 1070TIP3    H224626   2.333   4.980  13.833 -0.6947  0.2800  0.3719
 1071TIP3   OH224627   6.323   0.928   3.799 -0.1975  0.0766 -0.5660
 1071TIP3    H124628   6.292   0.928   3.889  0.3357  0.6695 -0.3756
 1071TIP3    H224629   6.359   0.840   3.787 -0.5012 -0.0892 -0.2853
 1072TIP3   OH224630   5.229   2.702  12.397 -0.4909 -0.0224  0.4056
 1072TIP3    H124631   5.234   2.796  12.411  1.1115 -0.1637  1.0235
 1072TIP3    H224632   5.152   2.674  12.446 -1.5112  1.0623 -0.5276
 1073TIP3   OH224633   3.712   6.372  17.176 -0.1401  0.0720  0.4320
 1073TIP3    H124634   3.660   6.404  17.102 -1.8405 -1.0152  1.1040
 1073TIP3    H224635   3.792   6.339  17.136  0.8202  3.1723 -0.4791
 1074TIP3   OH224636   3.959   6.460   5.692 -0.1231  0.4057  0.6625
 1074TIP3    H124637   3.974   6.499   5.606 -0.3739 -2.3694 -0.7746
 1074TIP3    H224638   3.885   6.508   5.728 -0.7507  0.9144 -1.1881
 1075TIP3   OH224639   4.122   3.776   1.809 -0.1608 -0.3182 -0.1905
 1075TIP3    H124640   4.031   3.803   1.794 -0.1764 -0.7613 -0.9188
 1075TIP3    H224641   4.135   3.701   1.751 -1.0276 -3.8634  3.6428
 1076TIP3   OH224642   5.718   2.488   0.028 -0.8040  0.4782  0.2770
 1076TIP3    H124643   5.800   2.458   0.068 -0.1090  0.1443 -1.3336
 1076TIP3    H224644   5.653   2.480   0.099  0.5311  0.7549  1.5783
 1077TIP3   OH224645   3.729   0.879  16.852  0.3820  0.6450 -0.2721
 1077TIP3    H124646   3.736   0.803  16.908 -1.2636  0.1277 -0.7170
 1077TIP3    H224647   3.798   0.868  16.787  0.1172 -0.5196 -0.3753
 1078TIP3   OH224648   6.671   1.435   3.441  0.0607 -0.0513 -0.8980
 1078TIP3    H124649   6.701   1.416   3.530 -0.3286 -0.6917 -0.8937
 1078TIP3    H224650   6.645   1.526   3.443  0.5454  0.0869 -0.4947
 1079TIP3   OH224651   1.186   2.080  13.644 -0.2269  0.5386 -0.1822
 1079TIP3    H124652   1.234   2.089  13.562  0.1445  1.0638  0.0914
 1079TIP3    H224653   1.102   2.042  13.619  0.5517 -1.0102 -0.6042
 1080TIP3   OH224654   3.330   1.255   5.364 -0.2904 -0.0150  0.0358
 1080TIP3    H124655   3.281   1.282   5.442  1.4875  0.7237  0.9613
 1080TIP3    H224656   3.264   1.220   5.305 -1.8309  0.3411  1.4709
 1081TIP3   OH224657   6.372   5.401   2.713 -0.0790 -0.1687  0.3228
 1081TIP3    H124658   6.327   5.485   2.715 -2.7660 -1.4929 -0.0911
 1081TIP3    H224659   6.431   5.407   2.638 -0.5381  1.1891  0.0401
 1082TIP3   OH224660   6.182   6.374   4.492 -0.1521  0.2307 -0.0479
 1082TIP3    H124661   6.274   6.360   4.471 -0.3483 -2.1966  0.5006
 1082TIP3    H224662   6.134   6.332   4.420 -0.8336 -0.1600  0.6259
 1083TIP3   OH224663   6.238   5.043   4.471 -0.0190  0.1568 -0.6168
 1083TIP3    H124664   6.329   5.029   4.444  0.3106  1.2166 -0.1003
 1083TIP3    H224665   6.213   4.961   4.515  1.0872  0.3120  0.3310
 1084TIP3   OH224666   1.752   2.695  14.443  0.3001  0.1522  0.5859
 1084TIP3    H124667   1.693   2.697  14.369 -0.9684 -0.7168  1.5362
 1084TIP3    H224668   1.835   2.662  14.408 -0.5637 -1.1627 -0.2597
 1085TIP3   OH224669   0.530   4.487   3.272 -0.4231 -0.0883  0.0569
 1085TIP3    H124670   0.610   4.439   3.292  0.4243  0.7673 -1.1675
 1085TIP3    H224671   0.534   4.564   3.330 -1.6687 -1.2998  1.8539
 1086TIP3   OH224672   1.913   0.525  16.141 -0.5306 -0.4506  0.0233
 1086TIP3    H124673   1.928   0.442  16.097 -1.3195  0.2086 -1.5795
 1086TIP3    H224674   1.998   0.569  16.140 -0.5038 -0.5181 -0.6995
 1087TIP3   OH224675   4.117   1.157   0.775 -0.3190  0.3156  0.5188
 1087TIP3    H124676   4.043   1.216   0.791  0.2908  1.3860 -0.4328
 1087TIP3    H224677   4.109   1.135   0.682 -0.6348 -1.2765  0.8955
 1088TIP3   OH224678   0.618   5.645   0.848 -0.5460  0.3040  0.0963
 1088TIP3    H124679   0.626   5.611   0.759  2.4356  3.0150 -0.8668
 1088TIP3    H224680   0.551   5.714   0.842  0.0283  0.8425 -0.2043
 1089TIP3   OH224681   3.827   1.726  17.222 -0.4389  0.0968 -0.0347
 1089TIP3    H124682   3.735   1.736  17.197 -0.8699  0.7901  1.6403
 1089TIP3    H224683   3.831   1.639  17.262 -0.6173  0.4527  0.7828
 1090TIP3   OH224684   3.802   2.282   4.891  0.1324  0.5008  0.2104
 1090TIP3    H124685   3.755   2.204   4.917 -0.0463  0.0923 -1.2852
 1090TIP3    H224686   3.862   2.299   4.964 -0.5447 -0.4229  1.0007
 1091TIP3   OH224687   3.052   0.167   2.290 -0.3077  0.0750  0.1807
 1091TIP3    H124688   3.046   0.175   2.385 -0.0797  1.5910  0.0979
 1091TIP3    H224689   3.109   0.092   2.276  1.4100  1.1050  1.2948
 1092TIP3   OH224690   1.877   6.383   4.573 -0.4237 -0.5067  1.0660
 1092TIP3    H124691   1.959   6.425   4.545 -0.8432 -0.6565 -0.5114
 1092TIP3    H224692   1.834   6.449   4.627  0.0396  0.1750  0.6338
 1093TIP3   OH224693   5.200   5.309  11.606  0.9223  0.4050 -0.1222
 1093TIP3    H124694   5.120   5.344  11.646 -0.8270 -1.2368 -1.9528
 1093TIP3    H224695   5.216   5.227  11.653  0.6663  0.0204 -0.6904
 1094TIP3   OH224696   5.379   2.883   5.275 -0.4376  0.3417  0.4052
 1094TIP3    H124697   5.418   2.967   5.299 -2.4455  1.7859 -1.0736
 1094TIP3    H224698   5.440   2.818   5.310  1.2976  2.3825  1.4323
 1095TIP3   OH224699   4.055   3.817  13.498 -0.4509 -0.3176 -0.1713
 1095TIP3    H124700   4.143   3.836  13.530 -0.5131 -0.0290 -0.1718
 1095TIP3    H224701   4.017   3.760  13.565 -0.8969  0.9955  0.7341
 1096TIP3   OH224702   2.596   2.404  11.754 -0.3762 -0.2336  0.9067
 1096TIP3    H124703   2.600   2.446  11.839  0.7147 -2.0804  1.8299
 1096TIP3    H224704   2.647   2.461  11.696 -1.9681  1.5718  1.1858
 1097TIP3   OH224705   5.782   1.360  11.828 -0.1068 -0.3748  0.3563
 1097TIP3    H124706   5.833   1.299  11.882  0.6545 -0.3882 -0.3452
 1097TIP3    H224707   5.691   1.335  11.843  0.0619 -0.2070  1.8221
 1098TIP3   OH224708   6.708   2.428  16.236 -0.1802  0.3390 -0.4265
 1098TIP3    H124709   6.652   2.378  16.295  1.3769 -0.9983  0.0140
 1098TIP3    H224710   6.728   2.368  16.165  0.6756  0.7690 -0.5636
 1099TIP3   OH224711   4.786   3.436   3.498  0.0311  0.1382  0.3653
 1099TIP3    H124712   4.803   3.346   3.469  0.8210 -0.4949  2.5642
 1099TIP3    H224713   4.733   3.425   3.577  0.9754  1.5557  1.2248
 1100TIP3   OH224714   3.989   2.574   4.411  0.5268 -0.5036 -0.3414
 1100TIP3    H124715   4.043   2.534   4.343 -0.8251 -1.0617 -1.1133
 1100TIP3    H224716   4.047   2.579   4.487  2.3085  0.8412 -1.7115
 1101TIP3   OH224717   5.775   0.102  12.319 -0.1508 -0.1085  0.3394
 1101TIP3    H124718   5.754   0.093  12.226 -0.0031  1.9709  0.0451
 1101TIP3    H224719   5.778   0.013  12.352 -2.2419 -0.8206 -1.1921
 1102TIP3   OH224720   0.996   2.274  14.646  0.7055 -0.3226  0.1848
 1102TIP3    H124721   1.071   2.322  14.613  1.4524 -1.6471 -0.1116
 1102TIP3    H224722   0.948   2.248  14.567  0.3765 -0.1817  0.3360
 1103TIP3   OH224723   4.836   4.581  12.678  0.3452 -0.2024 -0.2526
 1103TIP3    H124724   4.788   4.592  12.761 -2.5656 -2.4871 -1.4366
 1103TIP3    H224725   4.927   4.568  12.705 -0.0641  1.4733  2.3807
 1104TIP3   OH224726   0.392   3.036  16.090 -0.1337  0.3524 -0.1287
 1104TIP3    H124727   0.360   2.947  16.101  1.6769 -0.4409 -0.8842
 1104TIP3    H224728   0.328   3.091  16.136 -2.4256 -1.1047 -1.4090
 1105TIP3   OH224729   4.360   2.645   3.098 -0.0224  0.2913  0.1332
 1105TIP3    H124730   4.265   2.644   3.095 -0.2046  2.2778  2.6064
 1105TIP3    H224731   4.385   2.728   3.059  0.9713 -1.2007 -2.7551
 1106TIP3   OH224732   2.953   4.599  12.272  0.2189 -0.4081 -0.7251
 1106TIP3    H124733   2.936   4.598  12.178 -0.4105 -0.9131 -0.6135
 1106TIP3    H224734   3.016   4.670  12.284  2.1378 -1.8260 -1.8394
 1107TIP3   OH224735   0.389   6.770   0.380 -0.5247  0.6393 -0.1734
 1107TIP3    H124736   0.363   6.706   0.314 -2.5175 -0.3320  1.4733
 1107TIP3    H224737   0.422   6.718   0.453  0.4376  1.6464  0.1394
 1108TIP3   OH224738   5.180   0.013  16.544 -0.1034  0.0808  0.1265
 1108TIP3    H124739   5.181  -0.080  16.566 -0.5441  0.3137  1.2226
 1108TIP3    H224740   5.152   0.016  16.453 -3.1652 -0.7436  0.9067
 1109TIP3   OH224741   5.123   5.970  14.329  0.0791  0.5937  0.1868
 1109TIP3    H124742   5.038   6.000  14.360  0.4946  1.0160  0.9330
 1109TIP3    H224743   5.116   5.875  14.326 -0.3698  0.6217  0.3732
 1110TIP3   OH224744   2.260   6.060  12.754 -0.2036 -0.1104 -0.0223
 1110TIP3    H124745   2.236   6.060  12.847  0.6386 -0.3459  0.1978
 1110TIP3    H224746   2.222   5.979  12.720 -1.3179  0.4267 -0.1068
 1111TIP3   OH224747   4.117   0.007  13.601 -0.0830 -0.0577 -0.0480
 1111TIP3    H124748   4.045  -0.043  13.641  0.4584 -1.5223 -0.8026
 1111TIP3    H224749   4.178  -0.061  13.570  0.5268  1.0785 -1.4382
 1112TIP3   OH224750   1.401   2.065  12.860 -0.1770  0.3088 -0.1048
 1112TIP3    H124751   1.459   2.059  12.784  0.9883  2.4021  0.5322
 1112TIP3    H224752   1.443   2.010  12.926 -0.2234 -0.0647 -0.3779
 1113TIP3   OH224753   1.093   6.617  16.035  0.4770 -0.0156  0.0276
 1113TIP3    H124754   1.150   6.689  16.063 -1.3748  1.1017  1.1693
 1113TIP3    H224755   1.017   6.661  15.996 -0.7137 -1.3289  0.7744
 1114TIP3   OH224756   0.928   3.293  14.283 -0.7058  0.1669  0.1256
 1114TIP3    H124757   0.948   3.235  14.357 -1.4648 -0.0551  0.1632
 1114TIP3    H224758   0.960   3.247  14.206  0.2718  0.4880  0.3298
 1115TIP3   OH224759   3.189   3.554  14.156  0.0168 -0.2136 -0.9108
 1115TIP3    H124760   3.188   3.635  14.207 -1.9657 -0.0319 -1.1840
 1115TIP3    H224761   3.115   3.504  14.189  0.8080 -1.6428 -1.2237
 1116TIP3   OH224762   5.055   0.272   0.223  0.2649  0.3134  0.2422
 1116TIP3    H124763   5.007   0.193   0.245 -1.9515  1.5015  0.0354
 1116TIP3    H224764   5.057   0.273   0.127  0.2767  0.4822  0.2424
 1117TIP3   OH224765   0.542   4.422   5.664 -1.4887  0.2508  0.2476
 1117TIP3    H124766   0.610   4.448   5.727 -0.0629 -0.1025 -1.0895
 1117TIP3    H224767   0.571   4.459   5.581 -3.7904  1.4470 -0.1096
 1118TIP3   OH224768   0.816   4.650   1.126  0.0072 -0.0961 -0.2289
 1118TIP3    H124769   0.737   4.597   1.132  1.3940 -2.1761  0.7277
 1118TIP3    H224770   0.805   4.701   1.045 -2.3019 -0.2546 -0.0754
 1119TIP3   OH224771   3.574   4.217  17.149  1.0880  0.1198 -0.2179
 1119TIP3    H124772   3.492   4.175  17.122  1.2989 -1.1422  1.0054
 1119TIP3    H224773   3.564   4.308  17.121 -1.0532  0.1730  0.5435
 1120TIP3   OH224774   4.338   1.259  17.000 -0.1827 -0.0979  0.2467
 1120TIP3    H124775   4.251   1.221  17.011 -0.8532  1.5702  1.2180
 1120TIP3    H224776   4.360   1.294  17.087  0.1989  1.9553 -0.6173
 1121TIP3   OH224777   4.943   3.687   2.331 -0.4631 -0.3344 -0.5495
 1121TIP3    H124778   4.870   3.736   2.294 -1.4612  1.0673  2.8411
 1121TIP3    H224779   4.948   3.608   2.277 -2.3206  1.0096 -2.9067
 1122TIP3   OH224780   3.753   4.714  15.143  0.1525  0.2493  0.5531
 1122TIP3    H124781   3.695   4.640  15.125 -0.9837  1.3762 -0.6471
 1122TIP3    H224782   3.824   4.677  15.196 -0.5479 -1.6074  0.2631
 1123TIP3   OH224783   3.751   1.259   2.649  0.3200 -0.2024 -0.2627
 1123TIP3    H124784   3.674   1.316   2.653 -1.1066 -2.0857  2.3645
 1123TIP3    H224785   3.825   1.319   2.640 -1.2310  1.8786  0.0960
 1124TIP3   OH224786   0.955   5.437   5.036  0.6579  0.0185 -0.2478
 1124TIP3    H124787   0.903   5.515   5.056  2.6920  1.4207 -0.0807
 1124TIP3    H224788   1.045   5.462   5.059  1.4169 -2.3001 -0.4698
 1125TIP3   OH224789   5.600   2.268   2.583  0.3033  0.7740 -0.2148
 1125TIP3    H124790   5.682   2.312   2.605  0.8416  1.3132 -2.8843
 1125TIP3    H224791   5.533   2.334   2.595  0.5626  1.0277 -0.1445
 1126TIP3   OH224792   3.185   3.997  14.190 -0.0223  0.3947 -0.3035
 1126TIP3    H124793   3.099   3.991  14.148  0.0013  0.1354 -0.3188
 1126TIP3    H224794   3.216   4.085  14.171 -0.2889  0.4907 -0.2926
 1127TIP3   OH224795   0.363   0.103   3.129  0.1149  0.2972  0.3134
 1127TIP3    H124796   0.331   0.035   3.070  2.2186 -0.3254 -0.1887
 1127TIP3    H224797   0.326   0.081   3.214 -1.9156  0.4695 -0.4629
 1128TIP3   OH224798   2.252   4.808   0.481  0.2831  0.3793 -0.1434
 1128TIP3    H124799   2.181   4.745   0.491 -0.4231  1.1992  0.1283
 1128TIP3    H224800   2.250   4.860   0.561  3.1459 -1.4551  1.2964
 1129TIP3   OH224801   5.745   1.994   3.593 -0.4474 -0.0746  0.2780
 1129TIP3    H124802   5.793   2.076   3.578  0.5467 -0.3983  1.6077
 1129TIP3    H224803   5.677   2.018   3.656 -1.7875  0.2588 -1.2025
 1130TIP3   OH224804   4.377   5.998   5.403  0.1121  0.3739  0.1625
 1130TIP3    H124805   4.361   6.073   5.345 -1.8384  0.9103  1.2972
 1130TIP3    H224806   4.388   5.924   5.344 -0.0416  1.1995 -0.9409
 1131TIP3   OH224807   3.170   0.321  11.630 -0.6425 -0.0414  0.2983
 1131TIP3    H124808   3.221   0.280  11.560 -0.5295 -1.7382  1.3290
 1131TIP3    H224809   3.232   0.380  11.673 -0.5345  0.5239 -0.6068
 1132TIP3   OH224810   1.327   5.116  16.086  0.7164 -0.2172 -0.8379
 1132TIP3    H124811   1.319   5.113  15.991  2.6507  0.4372 -1.0649
 1132TIP3    H224812   1.243   5.149  16.117  0.3603  0.3904 -2.3838
 1133TIP3   OH224813   1.057   6.051  15.691 -0.3173 -0.8688  0.0782
 1133TIP3    H124814   1.090   6.089  15.609 -0.3636 -2.1359 -0.5592
 1133TIP3    H224815   0.982   6.105  15.713 -0.3033 -0.5011 -0.7186
 1134TIP3   OH224816   1.240   5.747   2.034  0.1508  0.6537  0.0003
 1134TIP3    H124817   1.319   5.715   1.991  0.8535 -0.7099  2.1614
 1134TIP3    H224818   1.220   5.682   2.101 -1.6149  2.0127  0.9028
 1135TIP3   OH224819   0.710   0.439  12.443  0.6369 -0.3591 -0.1996
 1135TIP3    H124820   0.669   0.499  12.381 -0.7759 -2.4248 -1.3820
 1135TIP3    H224821   0.789   0.485  12.472 -0.7238  2.3254 -0.4616
 1136TIP3   OH224822   4.676   3.249  12.643  0.2949  0.5983 -0.2352
 1136TIP3    H124823   4.704   3.320  12.701  1.0020 -1.0175  1.4786
 1136TIP3    H224824   4.749   3.187  12.643 -0.6830 -0.6024 -0.9256
 1137TIP3   OH224825   6.432   6.557   0.366 -0.2528 -0.2400 -0.1875
 1137TIP3    H124826   6.378   6.602   0.431 -0.5096 -1.2394  0.3245
 1137TIP3    H224827   6.457   6.475   0.409  2.4194  0.5520 -0.0762
 1138TIP3   OH224828   6.531   1.418  15.982  0.2192 -0.8124 -0.2486
 1138TIP3    H124829   6.595   1.433  15.912 -0.2613  1.3898 -0.3096
 1138TIP3    H224830   6.534   1.499  16.033 -2.4428 -0.6607 -0.2152
 1139TIP3   OH224831   4.726   1.761   2.674 -0.4910 -0.2214 -0.0258
 1139TIP3    H124832   4.711   1.798   2.588 -2.1525 -0.6828  0.0309
 1139TIP3    H224833   4.731   1.667   2.659  2.1282 -0.1716  0.0405
 1140TIP3   OH224834   5.571   3.185  16.163 -0.2363 -0.0367  0.0496
 1140TIP3    H124835   5.556   3.197  16.069  0.6066  0.7459  0.0015
 1140TIP3    H224836   5.588   3.273  16.196  2.5166 -0.5832  0.3671
 1141TIP3   OH224837   2.552   5.324   3.535 -0.1356 -0.1325 -0.3778
 1141TIP3    H124838   2.591   5.249   3.580  4.5286  2.6397  0.8970
 1141TIP3    H224839   2.474   5.345   3.587  0.8828 -1.5325  1.8808
 1142TIP3   OH224840   0.107   3.780  15.859 -0.1650 -0.4682  0.0358
 1142TIP3    H124841   0.183   3.808  15.808  1.1540 -1.4242  1.3855
 1142TIP3    H224842   0.143   3.757  15.945 -1.9837 -0.9778  0.7114
 1143TIP3   OH224843   2.763   2.838  11.397 -0.5539 -0.1257  0.4600
 1143TIP3    H124844   2.845   2.821  11.442 -0.1049 -0.7492 -0.5683
 1143TIP3    H224845   2.770   2.928  11.365  0.1220 -0.4696 -0.4037
 1144TIP3   OH224846   0.867   3.555   3.469  0.1603  0.3067 -0.2706
 1144TIP3    H124847   0.784   3.553   3.421 -0.0147  2.3670 -0.1313
 1144TIP3    H224848   0.923   3.493   3.422 -0.5168  1.0409 -2.1568
 1145TIP3   OH224849   0.755   0.078  10.188 -0.2882  0.6664  0.1443
 1145TIP3    H124850   0.799   0.070  10.273 -0.2547  1.3746  0.1928
 1145TIP3    H224851   0.739   0.171  10.177 -0.3259  0.5802 -0.6145
 1146TIP3   OH224852   3.879   2.071   5.431  0.4377 -0.1036  0.1195
 1146TIP3    H124853   3.905   1.979   5.444  1.4822 -0.0970 -1.6113
 1146TIP3    H224854   3.881   2.109   5.519  1.1368 -1.4447  0.7237
 1147TIP3   OH224855   4.635   1.022   6.445 -0.1682  0.1058 -0.5864
 1147TIP3    H124856   4.708   0.994   6.390 -0.5879  1.3012 -1.7960
 1147TIP3    H224857   4.662   0.998   6.534  1.0173 -0.8474 -1.1670
 1148TIP3   OH224858   5.337   6.027  14.536 -0.7315  0.2407  0.5827
 1148TIP3    H124859   5.261   6.062  14.583 -0.0260 -1.8476  3.6601
 1148TIP3    H224860   5.301   5.984  14.459 -2.5805  0.2553  1.3943
 1149TIP3   OH224861   5.366   0.430  14.777  1.0210  0.2121 -0.2976
 1149TIP3    H124862   5.337   0.520  14.763  0.0592 -0.0486 -0.0556
 1149TIP3    H224863   5.373   0.422  14.872  1.0715  0.0184 -0.3179
 1150TIP3   OH224864   0.675   3.131  16.404  0.3431  0.4454  0.1907
 1150TIP3    H124865   0.697   3.115  16.312  0.4027 -0.1629  0.3072
 1150TIP3    H224866   0.591   3.176  16.401  0.0085 -0.1895 -0.1399
 1151TIP3   OH224867   4.924   5.770  13.230  0.1160  0.4199  0.2377
 1151TIP3    H124868   4.944   5.772  13.137 -3.2665 -1.3224 -0.6938
 1151TIP3    H224869   4.896   5.860  13.250 -1.9033  0.1845 -1.2392
 1152TIP3   OH224870   0.467   5.744   6.100  0.1300  0.3795 -0.6057
 1152TIP3    H124871   0.462   5.658   6.058  0.5862  0.7416 -1.4378
 1152TIP3    H224872   0.544   5.785   6.060 -0.0752  1.1676 -0.2104
 1153TIP3   OH224873   1.656   0.856   0.848 -0.0879 -0.0578  0.3488
 1153TIP3    H124874   1.728   0.896   0.897 -0.1635  1.6071 -0.7809
 1153TIP3    H224875   1.579   0.870   0.903  0.1117  0.1267  0.5858
 1154TIP3   OH224876   5.531   6.221  14.946 -0.7539 -0.0205  0.0564
 1154TIP3    H124877   5.475   6.298  14.934  0.2496  1.3103  3.1167
 1154TIP3    H224878   5.533   6.180  14.859 -2.5909  2.5011 -1.3163
 1155TIP3   OH224879   6.243   3.485  13.616  0.1782  0.4505  0.4537
 1155TIP3    H124880   6.335   3.497  13.638 -0.1788  1.4186  1.5033
 1155TIP3    H224881   6.225   3.393  13.634  1.3714 -0.2390 -1.5254
 1156TIP3   OH224882   1.707   5.900  12.311  0.2716 -0.2487  0.0553
 1156TIP3    H124883   1.784   5.910  12.256  1.1875 -0.6361  1.2162
 1156TIP3    H224884   1.715   5.812  12.347  0.2278  0.3330  1.5606
 1157TIP3   OH224885   1.259   2.177   1.550 -0.2869  0.2277  0.3195
 1157TIP3    H124886   1.245   2.085   1.570 -0.3292  0.1203 -0.1854
 1157TIP3    H224887   1.184   2.201   1.496  0.8144 -0.0361 -1.4068
 1158TIP3   OH224888   4.533   4.734   3.111 -0.5464 -0.4247 -0.6487
 1158TIP3    H124889   4.599   4.760   3.175  0.2127  1.6634 -2.1890
 1158TIP3    H224890   4.583   4.705   3.035 -1.3902  0.0930 -1.4213
 1159TIP3   OH224891   4.667   4.594   1.412 -0.6909 -0.3452 -0.3118
 1159TIP3    H124892   4.613   4.670   1.433 -0.5598  0.1995 -1.7675
 1159TIP3    H224893   4.609   4.519   1.422 -1.3635  0.1225 -0.6172
 1160TIP3   OH224894   2.443   2.019  11.628 -0.0166 -0.7282  0.3181
 1160TIP3    H124895   2.373   2.054  11.684  0.9226  1.9559 -0.0221
 1160TIP3    H224896   2.518   2.011  11.686  0.0741 -1.1559  0.1425
 1161TIP3   OH224897   2.587   4.260  14.888  0.0772  0.0362  0.0989
 1161TIP3    H124898   2.563   4.327  14.823 -0.5294  0.9705  1.2421
 1161TIP3    H224899   2.681   4.269  14.898  0.2260 -0.3343 -0.8711
 1162TIP3   OH224900   0.901   1.547  12.697 -0.2286 -0.6712 -0.1661
 1162TIP3    H124901   0.828   1.562  12.757 -0.1161 -1.3397  0.1518
 1162TIP3    H224902   0.952   1.628  12.700 -0.4699 -0.5322  0.3084
 1163TIP3   OH224903   3.824   3.141  16.759 -0.5381  0.7624  0.1654
 1163TIP3    H124904   3.815   3.217  16.701 -2.1438  1.3840  1.1518
 1163TIP3    H224905   3.811   3.066  16.702  1.6237  1.1464 -0.9400
 1164TIP3   OH224906   0.488   5.357   2.777 -0.6742 -0.4168  0.2403
 1164TIP3    H124907   0.460   5.364   2.686 -0.1818  0.7595  0.1518
 1164TIP3    H224908   0.538   5.276   2.781  1.9260  0.9462 -1.3268
 1165TIP3   OH224909   3.610   5.542   5.250  0.5327  0.8521 -0.0883
 1165TIP3    H124910   3.629   5.636   5.249 -0.1881  1.0476  1.3852
 1165TIP3    H224911   3.674   5.505   5.311 -0.8759  0.8345  1.4406
 1166TIP3   OH224912   3.155   1.846  12.824  0.3221  0.2557 -0.1721
 1166TIP3    H124913   3.220   1.854  12.893  1.4216 -1.7080 -0.9114
 1166TIP3    H224914   3.079   1.894  12.857  1.5034  1.0728  1.4923
 1167TIP3   OH224915   5.091   1.617  13.768  0.0810 -0.2525 -0.1284
 1167TIP3    H124916   5.049   1.537  13.737 -0.0114 -0.3732  0.3112
 1167TIP3    H224917   5.047   1.687  13.719 -0.6585 -0.3730  0.3572
 1168TIP3   OH224918   4.341   2.446  14.006  0.3203  0.2720 -0.4141
 1168TIP3    H124919   4.383   2.503  14.070  0.6387  0.5833 -0.8912
 1168TIP3    H224920   4.412   2.388  13.976  0.3968  0.7141 -1.1286
 1169TIP3   OH224921   2.309   1.485  16.941 -0.0152  0.6831  0.4706
 1169TIP3    H124922   2.215   1.489  16.924 -0.1252 -0.7446  0.5961
 1169TIP3    H224923   2.349   1.536  16.870 -0.6949 -1.7876 -1.8728
 1170TIP3   OH224924   5.828   0.886  12.070 -0.2028  0.4073 -0.0826
 1170TIP3    H124925   5.737   0.898  12.044  0.2056  1.2632 -1.1896
 1170TIP3    H224926   5.870   0.969  12.049  1.0766 -0.3550 -0.6763
 1171TIP3   OH224927   3.096   1.935  15.720  0.0186 -0.3791  0.1446
 1171TIP3    H124928   3.165   1.955  15.657 -1.1099 -0.3584 -1.1342
 1171TIP3    H224929   3.045   2.016  15.726  0.5088 -0.1507  1.6454
 1172TIP3   OH224930   1.275   0.526  16.334  0.3492 -0.0875  0.0218
 1172TIP3    H124931   1.348   0.541  16.273  1.1507  3.4316  1.5958
 1172TIP3    H224932   1.316   0.523  16.420 -1.2579  1.7471  0.9264
 1173TIP3   OH224933   0.802   1.616   0.225  0.2892  0.5115 -0.2122
 1173TIP3    H124934   0.836   1.526   0.222 -0.6727 -0.0266  2.5713
 1173TIP3    H224935   0.713   1.608   0.190 -0.5334 -0.0792  1.8904
 1174TIP3   OH224936   0.061   0.101  11.841  0.2631  0.2757  0.8231
 1174TIP3    H124937   0.069   0.155  11.920  0.9083 -1.1169  1.7507
 1174TIP3    H224938   0.004   0.029  11.867 -1.5787  1.0710 -0.7535
 1175TIP3   OH224939   3.026   6.760   1.082  0.3045  0.0463 -0.1957
 1175TIP3    H124940   3.021   6.680   1.030  0.6838  0.5265 -0.9871
 1175TIP3    H224941   3.066   6.824   1.024  0.5558  0.6537  0.6267
 1176TIP3   OH224942   0.175   4.750   4.146  0.5009 -0.1511 -0.1264
 1176TIP3    H124943   0.088   4.779   4.171  0.5149 -1.5714  1.7711
 1176TIP3    H224944   0.163   4.659   4.117  1.3745 -0.4235  0.3206
 1177TIP3   OH224945   5.243   3.950   3.763  0.0532 -0.4312 -0.0907
 1177TIP3    H124946   5.229   3.992   3.847  0.3312  0.2213 -0.3637
 1177TIP3    H224947   5.240   3.856   3.782 -1.9512 -0.3256  0.2978
 1178TIP3   OH224948   1.609   3.042   1.298  0.0696  0.6202  0.1099
 1178TIP3    H124949   1.580   3.089   1.376 -0.4934  1.3049 -0.5013
 1178TIP3    H224950   1.619   3.110   1.231  0.1082 -0.0130 -0.5408
 1179TIP3   OH224951   6.180   1.184   5.347  0.0711  0.6871  0.3510
 1179TIP3    H124952   6.096   1.162   5.388  0.2225 -1.0058 -0.1921
 1179TIP3    H224953   6.181   1.280   5.346 -1.7568  0.7480  0.5648
 1180TIP3   OH224954   3.753   0.154  15.288 -0.6304  0.3654  0.1503
 1180TIP3    H124955   3.733   0.098  15.213  0.9286  0.2191 -0.1916
 1180TIP3    H224956   3.769   0.093  15.360  3.0454  0.1080 -0.6806
 1181TIP3   OH224957   2.721   2.736   4.964 -0.2035 -0.8443 -0.1460
 1181TIP3    H124958   2.629   2.744   4.991 -0.6346 -1.0773 -1.4867
 1181TIP3    H224959   2.758   2.672   5.024 -0.2196  1.0871  2.0733
 1182TIP3   OH224960   0.518   0.200  12.040  0.6007  0.1708 -0.0256
 1182TIP3    H124961   0.461   0.275  12.026  0.1646 -0.0138  0.7337
 1182TIP3    H224962   0.604   0.238  12.059  0.6813  0.4492 -0.8714
 1183TIP3   OH224963   3.589   4.649   1.147  0.6300  0.4537 -0.3153
 1183TIP3    H124964   3.669   4.609   1.111  0.5003  0.9297 -1.1614
 1183TIP3    H224965   3.614   4.675   1.236  0.8643 -1.0340  0.0791
 1184TIP3   OH224966   6.268   0.064   5.108  0.1338 -0.1064  0.0503
 1184TIP3    H124967   6.260   0.160   5.108 -0.6985 -0.1717 -0.6119
 1184TIP3    H224968   6.266   0.040   5.016  0.3621 -0.7699  0.2160
 1185TIP3   OH224969   1.529   1.646   1.065 -0.7094  0.2302 -0.2653
 1185TIP3    H124970   1.441   1.626   1.096 -1.2128 -0.1441 -1.8630
 1185TIP3    H224971   1.523   1.737   1.036 -0.4561  0.3212 -0.0385
 1186TIP3   OH224972   4.764   1.967  12.626  0.5983 -0.2451 -0.3650
 1186TIP3    H124973   4.760   2.017  12.545 -0.2029  1.0761  0.4647
 1186TIP3    H224974   4.739   2.028  12.694 -1.4939 -2.0156  0.5842
 1187TIP3   OH224975   3.321   1.018  15.916  0.5453  0.0855  0.3033
 1187TIP3    H124976   3.229   1.043  15.918  0.4748 -0.0481 -0.6910
 1187TIP3    H224977   3.323   0.937  15.864  1.2079  0.0239  0.4114
 1188TIP3   OH224978   1.702   0.137   3.658 -0.1001  0.1383 -0.4270
 1188TIP3    H124979   1.650   0.133   3.578 -0.4984 -3.6496 -0.1601
 1188TIP3    H224980   1.782   0.088   3.637 -0.4219 -1.3647  1.5211
 1189TIP3   OH224981   2.854   0.490  17.171  0.6586 -0.1645  0.1588
 1189TIP3    H124982   2.764   0.516  17.152  1.5532  5.3324  1.7913
 1189TIP3    H224983   2.894   0.479  17.084 -0.7125  1.1118 -0.6864
 1190TIP3   OH224984   5.058   2.479  12.948  0.2441 -0.1244  0.1131
 1190TIP3    H124985   4.965   2.499  12.949  0.4610  0.9316  0.8278
 1190TIP3    H224986   5.097   2.547  12.894  0.7656  0.2782  0.9677
 1191TIP3   OH224987   4.725   3.662  14.864 -0.3091  0.6004 -0.2746
 1191TIP3    H124988   4.725   3.693  14.955 -0.0290  0.9294 -0.3851
 1191TIP3    H224989   4.736   3.741  14.812 -0.6172  0.4266 -0.6023
 1192TIP3   OH224990   0.821   0.838   4.748  0.4615  0.4826  0.1080
 1192TIP3    H124991   0.748   0.883   4.706  0.1895  0.3558  0.4361
 1192TIP3    H224992   0.779   0.769   4.800  0.9164 -0.7984 -1.1697
 1193TIP3   OH224993   1.254   5.489   3.827  0.3366 -0.6163  0.3948
 1193TIP3    H124994   1.196   5.437   3.884 -0.6465  0.3063  0.2599
 1193TIP3    H224995   1.276   5.566   3.879 -0.4633  0.1700 -0.3960
 1194TIP3   OH224996   4.981   6.607  17.211  0.0971 -0.4771 -0.3942
 1194TIP3    H124997   5.010   6.619  17.120  0.5772 -0.2457 -0.2117
 1194TIP3    H224998   4.959   6.514  17.217  0.5066 -0.5913 -0.6182
 1195TIP3   OH224999   4.846   0.938  12.014 -0.4132 -0.1394  0.4954
 1195TIP3    H125000   4.782   0.978  12.073  0.7289 -0.6113  2.1238
 1195TIP3    H225001   4.821   0.968  11.927 -1.3833  1.6603  1.3492
 1196TIP3   OH225002   5.924   6.768  17.185  0.6392  0.1403 -0.0672
 1196TIP3    H125003   6.018   6.756  17.177  0.5488 -1.1016  0.4081
 1196TIP3    H225004   5.894   6.691  17.234 -0.8067 -0.1959 -1.3869
 1197TIP3   OH225005   6.296   4.153   2.806 -0.3029 -0.6008 -0.7701
 1197TIP3    H125006   6.333   4.226   2.857 -0.8581 -0.7417 -0.1382
 1197TIP3    H225007   6.204   4.149   2.835  0.2448 -3.0167  0.9565
 1198TIP3   OH225008   0.588   0.633   1.085  0.4060  0.2531 -0.1685
 1198TIP3    H125009   0.586   0.637   0.989 -2.7392  0.3639 -0.2187
 1198TIP3    H225010   0.570   0.541   1.105  1.2264  0.1965  0.3456
 1199TIP3   OH225011   1.390   1.271  12.156 -0.3408 -0.2971 -0.4540
 1199TIP3    H125012   1.318   1.330  12.181 -0.1727 -0.4010  0.2962
 1199TIP3    H225013   1.464   1.301  12.208 -0.2618 -1.1902 -0.0238
 1200TIP3   OH225014   0.157   3.019  16.495  0.0444 -0.1379  0.2360
 1200TIP3    H125015   0.190   3.000  16.582 -1.6783 -1.5824  0.6383
 1200TIP3    H225016   0.226   2.988  16.436  1.3092  1.0273  1.0435
 1201TIP3   OH225017   4.402   4.548   0.751  0.2748 -0.1160 -0.3150
 1201TIP3    H125018   4.414   4.550   0.656  0.2618  0.8851 -0.3076
 1201TIP3    H225019   4.315   4.585   0.766  0.3242 -0.1569  0.0932
 1202TIP3   OH225020   1.975   4.808   4.317  0.5138  0.4176  0.7433
 1202TIP3    H125021   2.009   4.898   4.321 -1.6980  1.3050  0.9121
 1202TIP3    H225022   1.937   4.801   4.229 -2.1801  0.8120  1.7942
 1203TIP3   OH225023   3.569   2.030  10.568 -0.5939  0.2587  0.4148
 1203TIP3    H125024   3.511   2.029  10.492 -0.8622  0.5378  0.6113
 1203TIP3    H225025   3.520   1.984  10.636 -0.2540 -0.2095  0.3501
 1204TIP3   OH225026   4.336   3.534  16.127 -0.1283 -0.1594  0.3687
 1204TIP3    H125027   4.262   3.582  16.163  0.0790  0.1938  0.3311
 1204TIP3    H225028   4.401   3.602  16.106  0.1119 -0.4412  0.1833
 1205TIP3   OH225029   5.841   3.188  13.634 -0.2401  0.6210 -0.4964
 1205TIP3    H125030   5.892   3.155  13.708 -1.1334  1.5542  0.5595
 1205TIP3    H225031   5.856   3.123  13.565  1.1487  0.0827  0.2591
 1206TIP3   OH225032   1.783   1.156  14.888 -0.0549  1.0486  0.1640
 1206TIP3    H125033   1.690   1.180  14.879 -0.6538 -0.8587  0.7615
 1206TIP3    H225034   1.793   1.137  14.981  0.3890 -0.7507 -0.2234
 1207TIP3   OH225035   0.654   2.149  14.954 -0.5562  0.1013 -0.1948
 1207TIP3    H125036   0.617   2.108  14.876 -0.4821  2.5514 -1.6348
 1207TIP3    H225037   0.639   2.243  14.941 -0.1578  0.6441  2.5711
 1208TIP3   OH225038   6.049   1.318  10.674  0.2602 -0.1971  0.5526
 1208TIP3    H125039   6.115   1.248  10.676  0.1712 -0.3972 -1.3714
 1208TIP3    H225040   5.967   1.272  10.657  0.4626  0.4340 -2.6799
 1209TIP3   OH225041   5.036   2.203  17.052  0.1373 -0.1792 -0.3255
 1209TIP3    H125042   5.016   2.172  17.141  2.2131  0.9612  0.6183
 1209TIP3    H225043   5.111   2.151  17.025  0.1312  0.1656 -1.0228
 1210TIP3   OH225044   1.766   3.036  15.113  0.0472 -0.8723  0.2459
 1210TIP3    H125045   1.805   3.124  15.112  0.9205 -1.2488 -0.0008
 1210TIP3    H225046   1.672   3.052  15.108  0.0388  0.1242  2.2946
 1211TIP3   OH225047   0.021   3.593   1.263  0.1657 -0.4459  0.4713
 1211TIP3    H125048  -0.065   3.636   1.262  1.0547  1.4223  0.2036
 1211TIP3    H225049   0.056   3.613   1.350  0.9734  0.2108  0.0110
 1212TIP3   OH225050   0.486   6.166  16.678 -0.3405 -0.1008  0.4689
 1212TIP3    H125051   0.558   6.157  16.740  0.4531  0.5035 -0.3426
 1212TIP3    H225052   0.423   6.099  16.704  0.4807 -0.5828  1.2439
 1213TIP3   OH225053   0.405   1.663   1.496 -0.1492  0.2826  0.1572
 1213TIP3    H125054   0.461   1.675   1.573 -1.0432  1.1249  0.7149
 1213TIP3    H225055   0.425   1.737   1.439 -0.9026  0.7865  0.5178
 1214TIP3   OH225056   2.783   0.671   2.963  0.3742  0.0379  0.0237
 1214TIP3    H125057   2.705   0.727   2.960 -0.9961 -1.7920 -0.6052
 1214TIP3    H225058   2.748   0.582   2.957  2.4810 -0.8880  0.7320
 1215TIP3   OH225059   4.279   3.238   0.203 -0.5057  0.8304  0.0874
 1215TIP3    H125060   4.205   3.203   0.153  0.6592 -1.4040 -0.1974
 1215TIP3    H225061   4.326   3.160   0.233  0.3226  2.1396  2.4473
 1216TIP3   OH225062   2.156   2.347   4.296  0.0118  0.2377 -0.0096
 1216TIP3    H125063   2.126   2.383   4.213 -0.9181  0.1356  0.2651
 1216TIP3    H225064   2.092   2.378   4.360 -0.6777 -1.6187  0.2791
 1217TIP3   OH225065   3.624   0.763   4.967 -0.3648 -0.5148  0.1475
 1217TIP3    H125066   3.602   0.732   4.879  0.8968 -1.0883  0.0043
 1217TIP3    H225067   3.673   0.690   5.006  2.0319  0.9617  0.0935
 1218TIP3   OH225068   5.836   5.261  17.001  0.1194 -0.1216  0.0281
 1218TIP3    H125069   5.748   5.299  17.007 -0.6986 -2.0472  2.0621
 1218TIP3    H225070   5.860   5.269  16.909 -0.4941  3.9105  0.0436
 1219TIP3   OH225071   4.389   0.563   0.488  0.0237  0.0779  0.0713
 1219TIP3    H125072   4.469   0.615   0.483  0.4846 -0.6934 -0.7028
 1219TIP3    H225073   4.327   0.609   0.432 -0.2211  0.8919  0.9740
 1220TIP3   OH225074   6.074   3.517   1.417  0.8023  0.0054 -0.6682
 1220TIP3    H125075   6.084   3.481   1.505 -0.4532 -0.4798 -0.7115
 1220TIP3    H225076   6.154   3.567   1.403 -0.3864  3.0247  2.1238
 1221TIP3   OH225077   1.157   4.989  15.846  0.1956  0.3986 -0.1577
 1221TIP3    H125078   1.111   4.907  15.863  0.1655 -0.2653 -2.8429
 1221TIP3    H225079   1.102   5.057  15.884  0.0845 -0.7700  1.8920
 1222TIP3   OH225080   6.641   4.487  11.571  0.4322 -0.3128 -0.3933
 1222TIP3    H125081   6.632   4.401  11.614  1.6461  0.3268  1.2335
 1222TIP3    H225082   6.718   4.478  11.516  1.3197  0.0623  0.7391
 1223TIP3   OH225083   0.405   1.924   4.922 -0.0501  0.2163 -0.0089
 1223TIP3    H125084   0.350   1.865   4.973 -0.0589  0.5692  0.3963
 1223TIP3    H225085   0.405   2.006   4.972  2.8939 -0.5000  1.4213
 1224TIP3   OH225086   0.634   3.019   5.314 -0.0217 -0.4852  0.3082
 1224TIP3    H125087   0.689   3.019   5.392  0.0822  0.8478  0.2514
 1224TIP3    H225088   0.547   2.996   5.346 -0.0096  0.2064  0.8533
 1225TIP3   OH225089   6.443   0.347   4.985  0.0518  0.3065  0.6240
 1225TIP3    H125090   6.360   0.318   5.022  0.7262 -0.6309  1.4327
 1225TIP3    H225091   6.419   0.416   4.923 -1.2418  0.6616  1.5022
 1226TIP3   OH225092   6.631   3.469   5.450  0.6939  0.9302  0.3746
 1226TIP3    H125093   6.595   3.416   5.379  2.7215  0.7721 -0.5836
 1226TIP3    H225094   6.559   3.476   5.513  0.1435 -2.4712  0.3119
 1227TIP3   OH225095   0.700   1.202  17.057 -0.4599 -0.3156  0.2846
 1227TIP3    H125096   0.667   1.129  17.109 -0.1858 -0.9685 -0.4511
 1227TIP3    H225097   0.678   1.280  17.109 -2.1641 -0.8025  0.3440
 1228TIP3   OH225098   2.955   6.716  16.784 -0.3693 -0.1207  0.7536
 1228TIP3    H125099   2.970   6.709  16.690 -0.3065 -2.1874  0.8668
 1228TIP3    H225100   3.040   6.737  16.821  0.3861 -2.5979  0.5883
 1229TIP3   OH225101   3.135   1.563  12.747  0.3755 -0.7806 -0.1033
 1229TIP3    H125102   3.150   1.654  12.770  1.5002 -0.8138 -0.6334
 1229TIP3    H225103   3.075   1.530  12.814 -1.7885  0.9129 -1.1071
 1230TIP3   OH225104   3.300   4.580  13.443  0.7142 -0.6486 -0.5973
 1230TIP3    H125105   3.324   4.661  13.488  0.2745 -0.6995 -0.2713
 1230TIP3    H225106   3.212   4.595  13.410  0.6067 -1.0153 -0.4821
 1231TIP3   OH225107   0.449   5.761  16.900 -0.4959  0.0243 -0.0249
 1231TIP3    H125108   0.447   5.771  16.805  1.1259  0.0977 -0.0873
 1231TIP3    H225109   0.519   5.698  16.916  0.7737  1.6545  1.2008
 1232TIP3   OH225110   1.636   1.265   1.969 -0.2104 -0.2612 -0.0520
 1232TIP3    H125111   1.676   1.321   2.035 -1.2742 -0.2518  0.6057
 1232TIP3    H225112   1.631   1.179   2.011 -3.2330  0.2928  0.9197
 1233TIP3   OH225113   0.907   5.900   3.139  0.1326 -0.0257  0.1775
 1233TIP3    H125114   0.940   5.832   3.081 -1.3544 -0.9596  0.3694
 1233TIP3    H225115   0.854   5.853   3.203 -1.7944  1.3634 -0.3002
 1234TIP3   OH225116   0.611   2.932  11.332  0.1707  0.1408 -0.0041
 1234TIP3    H125117   0.646   3.019  11.354  1.3088 -0.2438 -0.1946
 1234TIP3    H225118   0.542   2.917  11.396 -0.0966  1.2206 -0.0178
 1235TIP3   OH225119   3.277   3.270  13.158  0.3111 -0.4325 -0.3446
 1235TIP3    H125120   3.287   3.225  13.242 -0.0615 -1.0463 -0.6189
 1235TIP3    H225121   3.208   3.333  13.173 -1.5466 -2.2465 -0.8365
 1236TIP3   OH225122   2.301   4.181  16.311  0.4414  0.1549 -0.4207
 1236TIP3    H125123   2.248   4.102  16.306  0.7809 -0.1216  0.2967
 1236TIP3    H225124   2.294   4.220  16.223 -0.7366  0.0005 -0.4069
 1237TIP3   OH225125   3.174   4.803   2.483 -0.0591 -0.1224 -0.0644
 1237TIP3    H125126   3.166   4.801   2.578 -1.1146  1.9810 -0.0547
 1237TIP3    H225127   3.259   4.764   2.465  1.2607  1.6443  1.9237
 1238TIP3   OH225128   4.031   2.141  14.023 -0.0165 -0.6800  0.5588
 1238TIP3    H125129   4.103   2.084  13.995  0.7520  0.7267 -0.4631
 1238TIP3    H225130   3.953   2.086  14.015  0.8234 -1.9673  0.8089
 1239TIP3   OH225131   2.182   3.251   5.266 -0.4461  0.8726 -0.3886
 1239TIP3    H125132   2.264   3.267   5.313 -1.0040  1.4144  0.4313
 1239TIP3    H225133   2.185   3.158   5.244 -0.5824  0.3417  1.6037
 1240TIP3   OH225134   2.160   1.056   1.563 -0.4256 -0.0227  0.4023
 1240TIP3    H125135   2.238   1.059   1.618 -0.7011 -1.9185  0.9890
 1240TIP3    H225136   2.190   1.079   1.476  0.3595  1.3362  1.0050
 1241TIP3   OH225137   5.412   6.697  16.894 -0.0399 -0.1441  0.6393
 1241TIP3    H125138   5.481   6.632  16.880 -0.2092 -0.3194  0.6036
 1241TIP3    H225139   5.368   6.669  16.974 -1.5377 -1.3748 -0.5523
 1242TIP3   OH225140   3.652   3.524  14.127 -0.0611  0.2796 -0.3220
 1242TIP3    H125141   3.676   3.486  14.042 -1.0444 -0.2430 -0.3738
 1242TIP3    H225142   3.735   3.559  14.161  0.2002  1.2991 -1.8824
 1243TIP3   OH225143   0.275   5.031   0.255 -0.0881 -0.4122  0.9401
 1243TIP3    H125144   0.220   5.081   0.195  0.8596  1.3882  1.5012
 1243TIP3    H225145   0.359   5.022   0.210  0.6939  1.1104  1.9712
 1244TIP3   OH225146   5.149   1.008  16.784 -0.3919 -0.3631 -0.2316
 1244TIP3    H125147   5.109   1.072  16.843 -0.9017 -0.0169 -0.9383
 1244TIP3    H225148   5.132   0.924  16.825 -1.2400 -0.1687 -0.1538
 1245TIP3   OH225149   0.715   6.008   3.787 -0.1937  0.0339  0.3428
 1245TIP3    H125150   0.678   6.082   3.740 -0.4750 -1.1218 -1.3096
 1245TIP3    H225151   0.644   5.976   3.842 -0.3630  0.3841  0.3274
 1246TIP3   OH225152   1.772   0.344  11.642 -0.1943  0.2241  0.0277
 1246TIP3    H125153   1.797   0.427  11.602 -0.3302  0.7449  0.9910
 1246TIP3    H225154   1.855   0.298  11.655 -0.1894 -0.2123 -1.3513
 1247TIP3   OH225155   4.713   6.132  13.500  0.1008  0.4352  0.3831
 1247TIP3    H125156   4.752   6.129  13.413 -1.0815  1.3094 -0.2160
 1247TIP3    H225157   4.647   6.063  13.499  0.9943 -0.4627  1.0893
 1248TIP3   OH225158   1.918   5.495   0.465  0.9865 -0.0724 -0.0261
 1248TIP3    H125159   1.980   5.489   0.392 -0.1781  0.4539 -1.0975
 1248TIP3    H225160   1.853   5.559   0.436  0.5220  0.1793  1.5054
 1249TIP3   OH225161   5.376   1.484  12.460  0.2340 -0.3377 -0.3655
 1249TIP3    H125162   5.292   1.525  12.480 -0.2450 -1.1179 -0.7497
 1249TIP3    H225163   5.384   1.492  12.365  1.3006  1.0562 -0.1973
 1250TIP3   OH225164   6.017   2.622   2.462  0.6197 -0.2662 -0.2106
 1250TIP3    H125165   5.973   2.681   2.524  0.3899  0.4728 -1.0413
 1250TIP3    H225166   6.038   2.679   2.387  0.7741 -1.1607 -0.8568
 1251TIP3   OH225167   1.903   3.441   0.215 -0.7663  0.7041 -0.3687
 1251TIP3    H125168   1.985   3.399   0.239 -0.3490  2.5625  1.8399
 1251TIP3    H225169   1.847   3.370   0.184  0.8980 -0.9369  0.2508
 1252TIP3   OH225170   4.974   2.642  15.157 -0.7192  0.5305 -0.2104
 1252TIP3    H125171   5.053   2.603  15.196  0.4772  1.8706 -1.1500
 1252TIP3    H225172   4.951   2.583  15.086 -0.4408  0.2151 -0.0436
 1253TIP3   OH225173   0.606   4.650  13.289  0.1650 -0.5494  0.0756
 1253TIP3    H125174   0.514   4.630  13.274 -0.3381  0.4308  1.6065
 1253TIP3    H225175   0.605   4.721  13.352  1.9449 -2.7752  2.8875
 1254TIP3   OH225176   3.385   3.643  14.831  0.3577  0.2154 -0.1966
 1254TIP3    H125177   3.446   3.668  14.900 -0.2759 -0.1785  0.5257
 1254TIP3    H225178   3.437   3.591  14.771  0.8044  0.1113  0.2740
 1255TIP3   OH225179   6.685   2.874   1.248  0.3352 -0.0637 -0.2382
 1255TIP3    H125180   6.732   2.936   1.192 -0.8633  0.7571 -0.3730
 1255TIP3    H225181   6.612   2.844   1.194 -0.1168 -0.2237  0.4462
 1256TIP3   OH225182   3.520   4.862   2.104  0.0549  0.1378 -0.1408
 1256TIP3    H125183   3.445   4.860   2.045  0.8728 -2.1623 -1.1884
 1256TIP3    H225184   3.499   4.931   2.167 -1.0815  2.3412 -2.7600
 1257TIP3   OH225185   2.668   3.045   0.000 -0.9391  0.2294  0.3944
 1257TIP3    H125186   2.599   3.055   0.065 -1.6778 -1.6413 -0.0423
 1257TIP3    H225187   2.626   3.001  -0.073  0.4881 -0.0103 -0.3090
 1258TIP3   OH225188   5.080   5.681  15.908  0.1995  0.2570  0.2368
 1258TIP3    H125189   5.050   5.735  15.835 -0.9451  1.1260  1.3029
 1258TIP3    H225190   5.138   5.739  15.957 -2.1264  1.1370  2.1719
 1259TIP3   OH225191   3.216   1.505   4.903 -0.1828  0.2015 -0.5279
 1259TIP3    H125192   3.209   1.514   4.808 -2.2196 -0.9876 -0.5542
 1259TIP3    H225193   3.222   1.594   4.936 -0.3407  0.6698 -1.7278
 1260TIP3   OH225194   0.585   0.256  16.178  0.0822  0.0864 -0.3721
 1260TIP3    H125195   0.552   0.328  16.233  2.3717  1.4386 -0.6607
 1260TIP3    H225196   0.513   0.238  16.118 -1.5461  0.2858  1.4186
 1261TIP3   OH225197   2.011   6.692   4.058 -0.8377  0.1696  0.8906
 1261TIP3    H125198   1.978   6.777   4.029 -0.5653 -0.0096  0.0343
 1261TIP3    H225199   2.102   6.709   4.081 -0.5948 -0.0251  0.0850
 1262TIP3   OH225200   4.814   4.396  12.137 -0.1346 -0.2487  0.4184
 1262TIP3    H125201   4.858   4.477  12.162 -2.1718  0.6593  1.3366
 1262TIP3    H225202   4.856   4.369  12.056  1.5525  0.9306  0.8546
 1263TIP3   OH225203   4.663   4.474   4.312 -0.2915 -0.2017 -0.0186
 1263TIP3    H125204   4.575   4.439   4.298 -0.1161 -0.0013 -1.8294
 1263TIP3    H225205   4.666   4.554   4.260  0.5569  0.5167  1.0696
 1264TIP3   OH225206   1.414   5.244  15.560 -0.2463  0.5448  0.5232
 1264TIP3    H125207   1.508   5.232  15.574 -0.2091 -0.2570 -0.3648
 1264TIP3    H225208   1.390   5.178  15.495 -1.6119  0.0741  1.4426
 1265TIP3   OH225209   1.043   5.227  12.203 -0.0041  0.0935 -0.0020
 1265TIP3    H125210   1.078   5.288  12.139 -0.0051  0.2728  0.1666
 1265TIP3    H225211   0.953   5.257  12.219  0.3974  0.8267  1.0250
 1266TIP3   OH225212   6.767   3.810  13.636  0.4120 -0.2360 -0.0636
 1266TIP3    H125213   6.682   3.807  13.679  0.3304  1.7846 -0.0216
 1266TIP3    H225214   6.749   3.848  13.550  1.1369 -0.7338 -0.4491
 1267TIP3   OH225215   1.108   2.500  10.499 -0.0096 -0.1459 -0.3641
 1267TIP3    H125216   1.183   2.442  10.516  0.5835  0.5680 -0.5253
 1267TIP3    H225217   1.040   2.468  10.559  0.3528 -0.9159 -0.3431
 1268TIP3   OH225218   6.070   0.107   0.658 -0.1426 -0.6883  0.0674
 1268TIP3    H125219   6.100   0.126   0.746  1.3478 -0.7495 -0.4057
 1268TIP3    H225220   6.068   0.192   0.614  1.8638 -0.9584 -0.6381
 1269TIP3   OH225221   1.052   2.764  11.997 -0.1574  0.1824  0.5155
 1269TIP3    H125222   1.100   2.700  12.050  2.2863 -0.0073 -1.7051
 1269TIP3    H225223   1.119   2.806  11.943 -2.3137  1.1282 -1.6463
 1270TIP3   OH225224   2.695   0.366   1.305 -0.3456  0.1733 -0.0341
 1270TIP3    H125225   2.729   0.292   1.254 -2.2037  0.6621 -2.1449
 1270TIP3    H225226   2.773   0.411   1.337  0.8659 -2.7811  1.5770
 1271TIP3   OH225227   4.604   0.816  15.389  0.4150  0.6531  0.2270
 1271TIP3    H125228   4.668   0.790  15.322  0.0930  1.0722 -0.2454
 1271TIP3    H225229   4.656   0.865  15.453  1.0581 -1.1341  1.1725
 1272TIP3   OH225230   6.262   5.061  15.029 -0.5787 -0.8090 -0.5133
 1272TIP3    H125231   6.247   4.978  15.074 -0.1047 -0.8671 -0.4565
 1272TIP3    H225232   6.309   5.114  15.094 -0.9512 -0.4668 -0.5198
 1273TIP3   OH225233   0.140   3.917  16.853  0.0111 -0.2055 -0.6737
 1273TIP3    H125234   0.190   3.954  16.926  0.4445 -0.2941 -0.9203
 1273TIP3    H225235   0.060   3.969  16.850 -0.7989 -1.2659  0.9221
 1274TIP3   OH225236   5.904   3.944   4.886  0.4269  0.2344  0.7417
 1274TIP3    H125237   5.884   3.854   4.912  1.5060 -0.1819  0.2027
 1274TIP3    H225238   5.835   3.996   4.926 -2.2403 -1.1667 -1.6578
 1275TIP3   OH225239   0.078   6.087   3.671  0.4463  0.2837  0.1192
 1275TIP3    H125240   0.072   5.995   3.645 -0.3686  0.5714 -0.8016
 1275TIP3    H225241  -0.012   6.119   3.665  0.4720  0.7638  1.9512
 1276TIP3   OH225242   6.333   5.270   5.076 -0.2201  0.3217 -0.4905
 1276TIP3    H125243   6.252   5.222   5.059 -0.3320  0.7467 -1.1700
 1276TIP3    H225244   6.344   5.265   5.171 -0.1683 -1.1416 -0.5591
 1277TIP3   OH225245   4.759   5.880  16.423 -0.0510 -0.1335  0.1155
 1277TIP3    H125246   4.803   5.797  16.404 -0.0325 -0.2364  0.5902
 1277TIP3    H225247   4.667   5.864  16.402  0.4102  0.7722 -3.0920
 1278TIP3   OH225248   0.973   2.172  15.345 -1.1597  0.9099 -0.1206
 1278TIP3    H125249   1.019   2.143  15.265  0.3205 -1.5944  1.4741
 1278TIP3    H225250   1.007   2.260  15.362  2.4371 -0.3882  0.3522
 1279TIP3   OH225251   0.388   5.690  12.283 -0.1319  0.0490  0.1471
 1279TIP3    H125252   0.314   5.739  12.247 -0.0724  1.6128  2.0326
 1279TIP3    H225253   0.355   5.652  12.364  1.4819  2.1274  1.8952
 1280TIP3   OH225254   6.660   3.916   1.645 -0.0573  0.4688  0.3277
 1280TIP3    H125255   6.722   3.873   1.704  0.1578  0.3730  0.0362
 1280TIP3    H225256   6.641   4.000   1.687  0.0113  0.3576  0.5842
 1281TIP3   OH225257   0.691   3.891  14.910  0.1893  0.0363 -0.1020
 1281TIP3    H125258   0.726   3.918  14.825  0.7354 -0.0099  0.1063
 1281TIP3    H225259   0.623   3.828  14.889  0.6868 -0.3754 -0.4861
 1282TIP3   OH225260   3.669   5.037   2.445  0.0199  0.5127 -0.0071
 1282TIP3    H125261   3.593   5.008   2.495 -2.2481  1.7582 -2.4876
 1282TIP3    H225262   3.683   5.127   2.473 -0.0525  0.5949 -0.2297
 1283TIP3   OH225263   1.445   6.613  15.245  0.2289  0.0860  0.6487
 1283TIP3    H125264   1.445   6.703  15.277  0.5031  0.2757  0.1223
 1283TIP3    H225265   1.383   6.614  15.172  0.4254 -0.0943  0.4789
 1284TIP3   OH225266   5.268   2.198  13.154  0.3478 -0.3977  0.0458
 1284TIP3    H125267   5.215   2.122  13.179  0.1465 -0.0779  0.6040
 1284TIP3    H225268   5.313   2.170  13.074  0.7926 -1.3454  0.6047
 1285TIP3   OH225269   5.243   6.647   4.934 -0.2043  0.7470 -0.0148
 1285TIP3    H125270   5.292   6.600   5.001  0.2388  2.0066  0.5693
 1285TIP3    H225271   5.267   6.604   4.852  0.7190  0.3927  0.4309
 1286TIP3   OH225272   4.216   2.114  11.446  0.2565 -0.3138  0.0347
 1286TIP3    H125273   4.165   2.194  11.456  2.6745  1.1941  1.0965
 1286TIP3    H225274   4.191   2.060  11.521  3.0547  2.1778  3.0632
 1287TIP3   OH225275   1.178   3.362  14.426  0.0759  0.1210 -0.2892
 1287TIP3    H125276   1.210   3.452  14.438  0.9676 -0.4023  1.5097
 1287TIP3    H225277   1.121   3.347  14.500 -1.1818 -0.3657 -1.3216
 1288TIP3   OH225278   2.185   1.046  14.722  0.0065  0.7468  0.0108
 1288TIP3    H125279   2.154   1.136  14.715 -0.7296  0.3988 -1.3307
 1288TIP3    H225280   2.201   1.034  14.816  2.1024  2.9073  0.0317
 1289TIP3   OH225281   1.737   3.613  16.834 -0.1183 -0.0758  0.9712
 1289TIP3    H125282   1.803   3.667  16.790 -2.6614  1.9926 -0.6274
 1289TIP3    H225283   1.759   3.620  16.927  3.7914 -2.3001  0.4160
 1290TIP3   OH225284   3.619   6.697  14.339 -0.1106  0.2726 -0.3425
 1290TIP3    H125285   3.631   6.618  14.391  0.1137 -0.2169 -1.1151
 1290TIP3    H225286   3.529   6.725  14.358 -0.0821  0.0144  0.1794
 1291TIP3   OH225287   0.496   0.884   2.453  0.3491  0.2810 -0.0669
 1291TIP3    H125288   0.496   0.872   2.358  0.7319  0.4659 -0.0927
 1291TIP3    H225289   0.586   0.908   2.474 -0.0627  1.7368  0.1552
 1292TIP3   OH225290   1.837   5.697   3.457  0.2338  0.4545  0.1007
 1292TIP3    H125291   1.917   5.664   3.495  0.1133 -1.3030 -1.0672
 1292TIP3    H225292   1.863   5.730   3.371 -0.3769 -0.8581 -0.6213
 1293TIP3   OH225293   0.145   3.157  10.777  0.1875  0.2938  0.2686
 1293TIP3    H125294   0.200   3.177  10.701  0.1707  2.7242  0.8212
 1293TIP3    H225295   0.059   3.195  10.755 -0.7267 -1.6296  0.2914
 1294TIP3   OH225296   2.439   1.486  12.120  0.4488  0.7991  0.5900
 1294TIP3    H125297   2.352   1.526  12.117  0.4708  0.9973  1.8731
 1294TIP3    H225298   2.484   1.518  12.042 -2.1634 -3.0541 -2.9817
 1295TIP3   OH225299   3.224   3.051   0.434 -0.4008 -0.6273  0.4618
 1295TIP3    H125300   3.313   3.063   0.465  0.2860 -2.4127 -0.6613
 1295TIP3    H225301   3.218   3.105   0.355 -0.6277  0.1971  1.0299
 1296TIP3   OH225302   0.298   1.604  16.976 -0.6544  0.0897  0.2341
 1296TIP3    H125303   0.274   1.660  17.050 -1.1820  0.9133 -0.5400
 1296TIP3    H225304   0.355   1.658  16.922 -2.0560  0.3293 -1.0953
 1297TIP3   OH225305   0.969   2.771  12.500 -0.0658 -0.0497  0.7417
 1297TIP3    H125306   1.005   2.849  12.542 -2.5382  0.4697  2.0831
 1297TIP3    H225307   0.946   2.799  12.411  3.3470 -0.6155 -0.4527
 1298TIP3   OH225308   1.934   2.867   3.589  0.0416  0.0630 -0.1501
 1298TIP3    H125309   1.970   2.779   3.577 -2.6285 -1.2381  0.6241
 1298TIP3    H225310   1.840   2.853   3.596 -0.5796  3.1261 -1.0359
 1299TIP3   OH225311   6.302   3.435   6.381  0.1874  0.1759 -0.5024
 1299TIP3    H125312   6.272   3.461   6.468  1.8377 -0.7490  0.3953
 1299TIP3    H225313   6.221   3.420   6.331 -0.9230 -2.1197  1.7333
 1300TIP3   OH225314   0.951   4.996  11.298  0.3817 -0.8599  0.1158
 1300TIP3    H125315   0.948   5.030  11.387 -1.4746 -1.4032  0.3010
 1300TIP3    H225316   0.943   5.073  11.242 -1.2500 -0.7197  0.4933
 1301TIP3   OH225317   0.762   0.366   3.469 -0.1784 -0.4228  0.2395
 1301TIP3    H125318   0.754   0.326   3.382  1.1527 -0.0193 -0.0952
 1301TIP3    H225319   0.672   0.368   3.503 -0.7350 -0.5357 -1.1481
 1302TIP3   OH225320   4.250   5.240   2.426 -0.1726  0.1143  0.0164
 1302TIP3    H125321   4.259   5.190   2.508  0.4175 -0.1395 -0.2005
 1302TIP3    H225322   4.158   5.231   2.403  0.2317 -2.2971 -0.8988
 1303TIP3   OH225323   1.078   0.923   3.568 -0.4367  0.4052  0.0130
 1303TIP3    H125324   1.031   1.006   3.558 -0.5655  0.6303  1.9995
 1303TIP3    H225325   1.064   0.877   3.486 -1.1843  1.9396 -0.7626
 1304TIP3   OH225326   0.295   4.013  13.608  0.9487  0.0529 -0.0530
 1304TIP3    H125327   0.235   4.014  13.682  1.2779  1.2305  0.2160
 1304TIP3    H225328   0.352   4.088  13.622  3.6895 -1.9854  0.6858
 1305TIP3   OH225329   4.786   2.919   0.905 -0.2016 -0.5133  0.2949
 1305TIP3    H125330   4.881   2.907   0.903 -0.2273 -0.6888  0.0058
 1305TIP3    H225331   4.760   2.883   0.990  0.5327  3.9260  2.6719
 1306TIP3   OH225332   1.502   2.230   0.626  0.3244 -0.0319 -0.6092
 1306TIP3    H125333   1.590   2.191   0.617  0.6603  0.7029 -0.5567
 1306TIP3    H225334   1.516   2.309   0.677 -0.5922 -0.6462  0.6545
 1307TIP3   OH225335   1.674   1.865  14.220  0.1607 -0.8861 -0.1106
 1307TIP3    H125336   1.605   1.928  14.200 -0.5329 -1.2522  1.0402
 1307TIP3    H225337   1.743   1.883  14.156 -0.3368  0.5359 -0.2735
 1308TIP3   OH225338   5.288   4.141   2.437  0.4051  0.0419 -0.5690
 1308TIP3    H125339   5.328   4.103   2.358  0.0536 -1.8105  0.0881
 1308TIP3    H225340   5.274   4.233   2.415  0.3603 -0.4141 -2.6633
 1309TIP3   OH225341   1.540   2.537  16.798  0.0510  0.1939  0.1388
 1309TIP3    H125342   1.482   2.613  16.801 -0.3687 -0.1154 -0.1845
 1309TIP3    H225343   1.566   2.523  16.889 -1.4808 -0.5166  0.4915
 1310TIP3   OH225344   5.613   3.641   2.492 -0.0704 -0.2312  0.2456
 1310TIP3    H125345   5.519   3.643   2.473 -0.0966  0.7421  0.4191
 1310TIP3    H225346   5.640   3.552   2.470 -1.2786 -0.9193  1.3990
 1311TIP3   OH225347   3.992   4.502  16.741  0.3202  0.2446 -0.3179
 1311TIP3    H125348   3.956   4.468  16.659 -0.4257  0.6963 -0.1855
 1311TIP3    H225349   3.961   4.442  16.808  0.1687  0.3898 -0.2573
 1312TIP3   OH225350   6.377   5.286  13.183  0.4027  0.1539  0.2617
 1312TIP3    H125351   6.284   5.295  13.205  0.5423 -1.3625  1.7409
 1312TIP3    H225352   6.392   5.349  13.113 -1.8277  0.1606 -0.2810
 1313TIP3   OH225353   4.929   5.392   2.555 -1.1198  0.9368 -0.0231
 1313TIP3    H125354   4.929   5.411   2.461 -0.7472 -1.1014 -0.4877
 1313TIP3    H225355   4.995   5.323   2.566 -0.0906  2.1412  1.9839
 1314TIP3   OH225356   2.143   4.441   4.532  0.4080  0.8169 -0.0086
 1314TIP3    H125357   2.105   4.404   4.453  0.8064  1.7186 -0.6443
 1314TIP3    H225358   2.229   4.400   4.539  0.9640  1.7591 -0.8661
 1315TIP3   OH225359   1.486   5.499   0.802  0.6511 -0.4802 -0.2787
 1315TIP3    H125360   1.491   5.565   0.872  0.2927 -0.4329 -0.2971
 1315TIP3    H225361   1.416   5.441   0.829 -0.5585  0.4308 -1.3484
 1316TIP3   OH225362   0.246   5.200   3.379  0.0448  0.0863 -0.0745
 1316TIP3    H125363   0.150   5.204   3.376  0.0383 -0.3748 -0.6150
 1316TIP3    H225364   0.270   5.261   3.449 -0.6144  0.6430 -0.3234
 1317TIP3   OH225365   3.545   3.192  11.183 -0.2305 -0.0433  0.5120
 1317TIP3    H125366   3.600   3.183  11.106 -0.2403  0.2504  0.4692
 1317TIP3    H225367   3.588   3.139  11.250 -0.7024 -1.0220  0.0526
 1318TIP3   OH225368   3.881   1.706  15.369 -0.0131 -0.1730 -0.0927
 1318TIP3    H125369   3.797   1.721  15.325 -1.0476  2.2884  2.3684
 1318TIP3    H225370   3.946   1.731  15.304 -1.4385  3.0193 -0.5282
 1319TIP3   OH225371   3.072   3.901  15.680 -0.5083 -0.1707 -0.2060
 1319TIP3    H125372   3.028   3.818  15.663 -1.6243  0.5886 -1.2014
 1319TIP3    H225373   3.002   3.963  15.698  0.2646  0.7123 -0.1257
 1320TIP3   OH225374   5.773   2.568   4.755 -0.3230  0.7055  0.2065
 1320TIP3    H125375   5.730   2.616   4.826 -0.0666  0.9973  0.1655
 1320TIP3    H225376   5.775   2.630   4.682 -2.6156 -0.2983 -0.8311
 1321TIP3   OH225377   0.445   5.973  12.880 -0.2998 -0.3683 -0.1214
 1321TIP3    H125378   0.534   6.000  12.856 -0.5994  0.3336 -0.4971
 1321TIP3    H225379   0.446   5.972  12.976  0.7963 -2.8102 -0.0820
 1322TIP3   OH225380   6.235   0.665  12.381 -0.3260 -0.1989 -0.0648
 1322TIP3    H125381   6.281   0.701  12.457 -1.5284 -0.8158  0.9846
 1322TIP3    H225382   6.303   0.658  12.313  0.7206  0.5627  0.8674
 1323TIP3   OH225383   6.356   6.511  13.278  0.3316  0.4332 -0.1461
 1323TIP3    H125384   6.302   6.574  13.229 -0.6749  1.5175  2.1998
 1323TIP3    H225385   6.317   6.426  13.257  1.7969  0.4185 -3.4849
 1324TIP3   OH225386   2.563   3.732   4.149  0.3599 -0.5770  0.0227
 1324TIP3    H125387   2.474   3.764   4.132  0.8286  0.4356 -0.6194
 1324TIP3    H225388   2.590   3.690   4.067  0.5061 -0.8117  0.1889
 1325TIP3   OH225389   6.538   5.234  14.593  0.0895  0.0499 -0.8306
 1325TIP3    H125390   6.470   5.254  14.528 -0.1901 -0.0842 -0.5818
 1325TIP3    H225391   6.539   5.139  14.597  0.0090  0.0625 -0.5351
 1326TIP3   OH225392   4.441   3.969   0.240 -0.1493 -0.3647 -0.7282
 1326TIP3    H125393   4.368   3.992   0.298  1.0190  2.3197 -0.1373
 1326TIP3    H225394   4.516   3.959   0.300  0.6214  0.2604 -1.5653
 1327TIP3   OH225395   5.185   0.273  16.049  0.3568 -0.0472  0.3572
 1327TIP3    H125396   5.240   0.264  15.971  0.0710 -2.3543  0.3323
 1327TIP3    H225397   5.208   0.358  16.085  2.4095 -0.0320 -0.8141
 1328TIP3   OH225398   3.016   3.732   4.633  0.4083 -0.2485 -0.4313
 1328TIP3    H125399   2.992   3.703   4.545 -1.1115 -0.5005  0.0467
 1328TIP3    H225400   3.017   3.652   4.685  2.3868 -0.2627 -0.4127
 1329TIP3   OH225401   3.667   2.392  11.303  0.2294  0.2346  0.3524
 1329TIP3    H125402   3.751   2.431  11.281  0.2502 -0.2816 -0.5358
 1329TIP3    H225403   3.602   2.453  11.268  0.2470  0.0847  0.0589
 1330TIP3   OH225404   1.339   0.423   3.791 -0.4373 -0.0254 -0.8309
 1330TIP3    H125405   1.310   0.472   3.714 -0.6248  2.0382  0.4822
 1330TIP3    H225406   1.316   0.479   3.865  1.7868 -0.8903  0.6017
 1331TIP3   OH225407   3.909   2.425  17.030  0.2615 -0.0712 -0.2698
 1331TIP3    H125408   3.865   2.360  16.976 -0.5177 -0.4522  0.8107
 1331TIP3    H225409   3.887   2.509  16.989 -0.7373 -0.3204 -0.2504
 1332TIP3   OH225410   6.650   4.304   1.609  0.4950 -0.3889 -0.3132
 1332TIP3    H125411   6.713   4.356   1.660  1.5578  0.0388 -1.9994
 1332TIP3    H225412   6.571   4.304   1.662  1.1639  1.0846  0.7630
 1333TIP3   OH225413   1.789   5.386  11.767 -0.0329 -0.3556 -0.4281
 1333TIP3    H125414   1.878   5.406  11.738 -0.1357 -0.1245 -0.5899
 1333TIP3    H225415   1.764   5.462  11.820 -0.0693 -0.5012 -0.2347
 1334TIP3   OH225416   4.301   1.972  15.839 -0.0037 -0.0110 -0.0581
 1334TIP3    H125417   4.338   2.050  15.797 -1.0136  0.6268  0.1894
 1334TIP3    H225418   4.330   1.899  15.785  0.1988  0.6330 -0.8325
 1335TIP3   OH225419   4.330   1.890   6.399 -0.2780  0.4368  0.0939
 1335TIP3    H125420   4.368   1.803   6.409  2.3638  1.4968 -0.0746
 1335TIP3    H225421   4.316   1.899   6.305 -1.9567 -0.2906  0.2288
 1336TIP3   OH225422   0.857   0.884  12.430  0.1067  0.5263 -0.5304
 1336TIP3    H125423   0.843   0.838  12.347 -0.8002  0.3400 -0.2769
 1336TIP3    H225424   0.770   0.913  12.456  0.0022 -1.4091  1.5207
 1337TIP3   OH225425   2.985   0.722  12.410  0.2576  0.0270 -0.3237
 1337TIP3    H125426   2.893   0.738  12.387  0.4957 -0.1154 -1.4348
 1337TIP3    H225427   3.017   0.807  12.440 -0.0164  0.2752 -0.7212
 1338TIP3   OH225428   0.249   4.168  15.270  0.1315 -0.4241 -0.1280
 1338TIP3    H125429   0.297   4.095  15.231  1.8992  0.0281  1.0860
 1338TIP3    H225430   0.287   4.178  15.357 -1.1803  0.9414  0.3383
 1339TIP3   OH225431   0.843   2.810   3.777  0.2279  0.2662 -0.8332
 1339TIP3    H125432   0.861   2.720   3.805  0.6617 -0.2558 -2.6799
 1339TIP3    H225433   0.777   2.842   3.840  0.2952 -1.2199  0.0345
 1340TIP3   OH225434   2.756   5.226   3.054  0.1684  0.3060  0.1044
 1340TIP3    H125435   2.820   5.256   2.990  0.8891  0.0711  0.7049
 1340TIP3    H225436   2.773   5.279   3.132 -0.9010  0.8055  0.0236
 1341TIP3   OH225437   4.172   0.419   3.683  0.0178  0.2587  0.4350
 1341TIP3    H125438   4.086   0.383   3.703  0.3786 -0.3777  0.9018
 1341TIP3    H225439   4.163   0.513   3.699 -0.5016  0.1540  0.7906
 1342TIP3   OH225440   0.998   0.376  12.280  0.3581  0.1054  0.5275
 1342TIP3    H125441   0.967   0.328  12.357  2.2781 -0.1473  1.1993
 1342TIP3    H225442   1.019   0.308  12.216  1.0918  0.1525  0.7074
 1343TIP3   OH225443   6.607   4.761  11.612 -0.3134  0.2987  0.1268
 1343TIP3    H125444   6.675   4.785  11.549  0.8548 -1.9790  0.4270
 1343TIP3    H225445   6.612   4.665  11.618 -1.0861  0.3480  2.9245
 1344TIP3   OH225446   6.006   2.446   2.820 -0.4640 -0.0566  0.2306
 1344TIP3    H125447   5.998   2.394   2.899 -1.5759 -2.2216 -1.2238
 1344TIP3    H225448   6.019   2.536   2.851  3.3809 -1.2913  2.8809
 1345TIP3   OH225449   3.345   5.779  11.665  0.2310  0.5509  0.1284
 1345TIP3    H125450   3.293   5.857  11.645  0.5749  1.5331  2.6022
 1345TIP3    H225451   3.365   5.788  11.759  0.3868 -2.4653  0.4738
 1346TIP3   OH225452   4.325   5.626  14.137  0.1991  0.6055  0.2179
 1346TIP3    H125453   4.340   5.549  14.191 -0.5096  0.2777 -0.0486
 1346TIP3    H225454   4.407   5.638  14.089  0.3764  0.1400  0.4002
 1347TIP3   OH225455   5.626   5.455  15.381  0.7535  0.0497 -0.1758
 1347TIP3    H125456   5.699   5.402  15.351 -0.3178 -1.7799  0.3165
 1347TIP3    H225457   5.575   5.397  15.438 -1.8941  0.7486 -1.6629
 1348TIP3   OH225458   6.076   0.476   5.312  0.6361  0.6659  0.4384
 1348TIP3    H125459   6.016   0.488   5.385 -0.1294 -0.6488  0.0543
 1348TIP3    H225460   6.156   0.441   5.352  0.4261  0.5044  0.7176
 1349TIP3   OH225461   5.357   6.399  13.626  0.6942 -0.3396 -0.2057
 1349TIP3    H125462   5.386   6.470  13.568  1.1010 -0.2652  0.0838
 1349TIP3    H225463   5.364   6.320  13.573  0.3442 -0.1768 -0.4968
 1350TIP3   OH225464   1.238   4.878   5.271  0.2469 -0.1041  0.5643
 1350TIP3    H125465   1.271   4.846   5.355  0.0258 -2.1346 -0.0687
 1350TIP3    H225466   1.306   4.856   5.208  1.0231  2.6018  0.3232
 1351TIP3   OH225467   5.362   6.599   3.776 -0.2090 -0.1261 -0.2334
 1351TIP3    H125468   5.267   6.587   3.771 -0.0573 -0.7988 -2.9650
 1351TIP3    H225469   5.397   6.544   3.706  2.0023  1.9912 -0.9318
 1352TIP3   OH225470   5.260   5.834  16.943  0.1499  0.1508  0.1134
 1352TIP3    H125471   5.323   5.904  16.928 -0.6881  0.7461 -0.7450
 1352TIP3    H225472   5.310   5.767  16.990  0.9795  1.2768  0.8857
 1353TIP3   OH225473   4.655   4.044  11.198 -0.0562  0.0885 -0.7836
 1353TIP3    H125474   4.711   4.065  11.123 -1.0591  0.3638 -1.4689
 1353TIP3    H225475   4.715   4.045  11.273  0.7013  1.3404 -1.3627
 1354TIP3   OH225476   0.207   2.315  16.236  0.3388  0.5247 -0.1988
 1354TIP3    H125477   0.146   2.264  16.182 -0.6500  2.3393 -0.9072
 1354TIP3    H225478   0.283   2.259  16.246 -0.4040 -0.7961 -1.5450
 1355TIP3   OH225479   4.870   3.902  14.987  0.4795 -0.1628 -0.4920
 1355TIP3    H125480   4.812   3.939  15.054 -1.4926  0.4191 -2.3904
 1355TIP3    H225481   4.958   3.917  15.020 -0.3922 -0.5363  2.2612
 1356TIP3   OH225482   2.145   3.102  15.647  0.2386 -0.4882  0.0321
 1356TIP3    H125483   2.217   3.129  15.589  1.2167 -1.2766  0.8489
 1356TIP3    H225484   2.184   3.039  15.706 -0.9612 -0.3601  0.9975
 1357TIP3   OH225485   4.625   2.659  13.594 -0.1505  0.3945 -0.0996
 1357TIP3    H125486   4.644   2.631  13.504  1.6264 -0.5720  0.5457
 1357TIP3    H225487   4.530   2.649  13.602 -0.2538 -0.1348 -1.6652
 1358TIP3   OH225488   0.427   4.874   3.289  0.5619 -0.3793 -0.3960
 1358TIP3    H125489   0.444   4.827   3.207 -0.6986 -1.7928  0.1027
 1358TIP3    H225490   0.332   4.875   3.297  0.6570 -0.2400  1.0312
 1359TIP3   OH225491   4.032   3.672  11.201  0.1748  0.1947 -0.0967
 1359TIP3    H125492   4.070   3.668  11.113  1.6114 -1.7252  0.5440
 1359TIP3    H225493   4.080   3.606  11.251 -1.3734  0.4491  1.8532
 1360TIP3   OH225494   2.693   4.511   2.454 -0.0268  0.6528 -0.5926
 1360TIP3    H125495   2.781   4.501   2.416  0.0313  0.0512 -0.3132
 1360TIP3    H225496   2.709   4.534   2.546 -0.1492 -0.5322 -0.2659
 1361TIP3   OH225497   5.227   3.258  13.364  0.1100 -0.4814  0.1794
 1361TIP3    H125498   5.262   3.169  13.378 -0.8359 -1.0847 -1.0825
 1361TIP3    H225499   5.284   3.314  13.416  1.1851 -1.7511  0.4415
 1362TIP3   OH225500   6.327   1.593   2.229 -0.4002 -0.1736 -0.1740
 1362TIP3    H125501   6.419   1.606   2.207 -0.2772 -0.1412  0.3445
 1362TIP3    H225502   6.288   1.556   2.149  0.7076 -3.0583  0.4860
 1363TIP3   OH225503   2.220   5.473  11.466 -0.7021 -0.1154  0.0945
 1363TIP3    H125504   2.313   5.462  11.447 -0.3620  2.3326  0.0355
 1363TIP3    H225505   2.177   5.464  11.381  0.0220  3.2036 -0.7556
 1364TIP3   OH225506   0.619   4.038  16.045 -0.2897 -0.7468 -0.1289
 1364TIP3    H125507   0.695   3.992  16.080 -1.0924 -2.6073 -0.7153
 1364TIP3    H225508   0.553   4.031  16.114 -0.2760 -0.0362 -0.0347
 1365TIP3   OH225509   6.477   1.453  11.060 -0.5228  0.2543 -0.0841
 1365TIP3    H125510   6.427   1.454  10.978 -1.2464 -0.7937  0.3271
 1365TIP3    H225511   6.415   1.421  11.126  0.7886 -1.4823  0.3668
 1366TIP3   OH225512   6.017   3.337  16.654  0.4055 -0.7710  0.0181
 1366TIP3    H125513   6.080   3.271  16.683 -0.1951 -0.9708  0.8907
 1366TIP3    H225514   6.027   3.339  16.559  0.5873 -1.9646  0.0045
 1367TIP3   OH225515   5.530   5.894  10.973  0.1676  0.0862  0.3094
 1367TIP3    H125516   5.473   5.820  10.994  1.4835 -0.3945  2.4732
 1367TIP3    H225517   5.565   5.874  10.886 -0.9374 -0.8749  0.0643
 1368TIP3   OH225518   6.707   0.490  16.342  0.1359 -0.1626  0.1166
 1368TIP3    H125519   6.619   0.502  16.375  0.5395  0.0703  1.1309
 1368TIP3    H225520   6.710   0.544  16.262 -0.3758  0.5044  0.5408
 1369TIP3   OH225521   0.572   0.351  11.620 -0.5317  0.2786  0.6421
 1369TIP3    H125522   0.661   0.385  11.633  0.8953 -2.1846 -1.7475
 1369TIP3    H225523   0.530   0.415  11.563 -0.4575  1.6018  2.0089
 1370TIP3   OH225524   1.317   5.652   1.303  0.0927  0.0253 -0.3091
 1370TIP3    H125525   1.231   5.637   1.343  0.1690  0.6064  0.0913
 1370TIP3    H225526   1.348   5.733   1.343 -0.2565  1.2076 -2.2632
 1371TIP3   OH225527   0.889   1.895  15.722 -0.0023 -0.5671 -0.0473
 1371TIP3    H125528   0.825   1.903  15.652  2.2593  2.3312 -2.0640
 1371TIP3    H225529   0.878   1.974  15.774  0.1564 -1.3790  1.2724
 1372TIP3   OH225530   6.256   0.192  12.453  0.4755  0.3807 -0.1350
 1372TIP3    H125531   6.206   0.135  12.395  1.0323 -0.3115  0.0618
 1372TIP3    H225532   6.338   0.146  12.469  0.2265  0.4082  1.4493
 1373TIP3   OH225533   6.327   0.242   4.653 -0.0162 -0.5421  0.2202
 1373TIP3    H125534   6.387   0.169   4.666  0.2224 -0.3483  0.2179
 1373TIP3    H225535   6.244   0.212   4.690  0.3159 -0.4764  1.0443
 1374TIP3   OH225536   4.889   2.688   5.444  0.3403  0.1680 -0.1364
 1374TIP3    H125537   4.935   2.722   5.368 -1.1900  1.1467 -0.6755
 1374TIP3    H225538   4.924   2.737   5.519  2.1821 -1.1201 -0.0889
 1375TIP3   OH225539   1.685   5.451   2.854  0.2014 -0.5977  0.1924
 1375TIP3    H125540   1.708   5.467   2.945 -2.0831  0.3143  0.6784
 1375TIP3    H225541   1.654   5.360   2.853 -1.7646  0.0260  0.8221
 1376TIP3   OH225542   5.862   0.465  15.632  0.0162 -0.2444 -0.2273
 1376TIP3    H125543   5.778   0.444  15.673 -0.2605 -1.8710 -1.5278
 1376TIP3    H225544   5.891   0.545  15.676 -0.4483 -1.6368  2.8243
 1377TIP3   OH225545   6.081   3.868   4.060 -0.2736  0.2316 -0.1239
 1377TIP3    H125546   6.040   3.785   4.086  1.1418 -0.3469  0.3699
 1377TIP3    H225547   6.043   3.887   3.974 -3.2913  0.9654  1.2578
 1378TIP3   OH225548   4.384   0.813   0.723 -0.0549 -0.1409  0.1434
 1378TIP3    H125549   4.418   0.743   0.666  2.9510  0.6251  0.8133
 1378TIP3    H225550   4.422   0.793   0.809 -0.3131  1.5231  0.6659
 1379TIP3   OH225551   3.851   6.461   1.926  0.0864  0.0607 -0.2290
 1379TIP3    H125552   3.839   6.492   1.836 -0.3948 -0.0306 -0.1986
 1379TIP3    H225553   3.944   6.437   1.931  0.3069  0.8337 -0.4570
 1380TIP3   OH225554   0.910   6.689  12.704 -0.4263 -0.7008  0.0657
 1380TIP3    H125555   0.974   6.656  12.767 -1.9105 -1.2925  1.3305
 1380TIP3    H225556   0.885   6.775  12.737 -0.7895 -0.7728 -0.0144
 1381TIP3   OH225557   3.774   2.114  11.982 -0.2244 -0.0132  0.2723
 1381TIP3    H125558   3.734   2.073  11.905 -0.4690  0.3303  0.2137
 1381TIP3    H225559   3.851   2.159  11.949  0.0276 -0.4009  0.3316
 1382TIP3   OH225560   4.403   4.510  12.485 -0.9658 -0.3536 -0.7738
 1382TIP3    H125561   4.483   4.458  12.479 -0.0403  1.0715 -1.1146
 1382TIP3    H225562   4.406   4.547  12.574 -1.0740 -0.0247 -0.9080
 1383TIP3   OH225563   4.256   2.104  16.093 -0.1458 -0.3753  0.1446
 1383TIP3    H125564   4.243   2.194  16.063  0.7906  0.1524  1.2647
 1383TIP3    H225565   4.299   2.060  16.020 -0.6554  0.0578 -0.4278
 1384TIP3   OH225566   1.708   6.622   1.865 -0.2598 -0.3236  0.0510
 1384TIP3    H125567   1.662   6.677   1.928  0.4765 -0.8965  1.1161
 1384TIP3    H225568   1.788   6.595   1.910  0.1343 -1.0049 -1.0159
 1385TIP3   OH225569   2.471   1.123   2.405 -0.5041 -0.5735  0.3519
 1385TIP3    H125570   2.508   1.136   2.317  0.1198 -1.3793  0.4831
 1385TIP3    H225571   2.415   1.199   2.419  0.9043  0.5745  0.0310
 1386TIP3   OH225572   6.693   2.614   1.674  0.2411 -0.2772 -0.7979
 1386TIP3    H125573   6.707   2.530   1.631  0.9436 -0.6681  0.1835
 1386TIP3    H225574   6.646   2.593   1.754 -0.3117  0.3621 -0.9439
 1387TIP3   OH225575   6.082   2.747   0.653  0.0069 -0.3360  0.7742
 1387TIP3    H125576   6.138   2.695   0.596  0.7430 -0.0103  1.1872
 1387TIP3    H225577   6.134   2.761   0.732 -0.5977  0.1001  1.1088
 1388TIP3   OH225578   1.671   4.392   2.975 -0.2505 -0.4096  0.4722
 1388TIP3    H125579   1.634   4.324   2.918 -2.5711  0.5799  0.6785
 1388TIP3    H225580   1.595   4.426   3.023  1.3992 -0.1664  3.0649
 1389TIP3   OH225581   5.688   1.613  17.075  0.2790  0.1047  0.2018
 1389TIP3    H125582   5.767   1.668  17.068  1.4353 -1.3927  0.8023
 1389TIP3    H225583   5.685   1.589  17.167 -0.0571 -1.0081 -0.0897
 1390TIP3   OH225584   5.974   1.971  12.169  0.0493 -0.1543 -0.0509
 1390TIP3    H125585   5.882   1.967  12.141 -0.5870  0.2179  1.8384
 1390TIP3    H225586   6.004   1.880  12.161 -0.0826 -0.0961 -1.7893
 1391TIP3   OH225587   0.761   5.364   6.200 -0.0931 -0.1182 -0.1281
 1391TIP3    H125588   0.747   5.433   6.264  1.3294  0.9447 -0.9185
 1391TIP3    H225589   0.843   5.323   6.226 -0.4962 -0.9749 -0.1547
 1392TIP3   OH225590   5.047   6.321   0.532  0.1025 -0.3337 -0.2041
 1392TIP3    H125591   4.971   6.264   0.516  1.1080 -1.9549  0.4931
 1392TIP3    H225592   5.101   6.272   0.594  3.1391 -0.6628 -2.7887
 1393TIP3   OH225593   5.297   6.718  16.189 -0.4470 -0.1607  0.1540
 1393TIP3    H125594   5.355   6.793  16.177  0.3049 -0.3978  1.8979
 1393TIP3    H225595   5.209   6.754  16.184 -0.1381  0.4408 -1.2173
 1394TIP3   OH225596   0.228   4.748  11.513 -0.1299  0.1321 -0.2114
 1394TIP3    H125597   0.306   4.798  11.490  0.7763  0.0602  2.3621
 1394TIP3    H225598   0.257   4.690  11.584 -1.7642 -2.2440 -1.3428
 1395TIP3   OH225599   1.401   4.824  16.877  0.0156 -0.1211  0.2170
 1395TIP3    H125600   1.382   4.760  16.809  2.3646 -0.2080 -0.4315
 1395TIP3    H225601   1.468   4.881  16.840  0.7968  0.3240  2.1719
 1396TIP3   OH225602   4.495   3.115  13.748  0.1279 -0.0459 -0.1114
 1396TIP3    H125603   4.474   3.025  13.722  0.2844 -0.4436  1.1162
 1396TIP3    H225604   4.501   3.162  13.665  1.2355 -1.4159 -0.8523
 1397TIP3   OH225605   2.705   0.644   4.186  0.1904  0.2054  0.5688
 1397TIP3    H125606   2.724   0.702   4.260 -1.0961  0.6575  0.5720
 1397TIP3    H225607   2.767   0.572   4.195  0.9094  0.8999  1.3470
 1398TIP3   OH225608   2.245   6.543  15.502  0.3240 -0.2805  0.1852
 1398TIP3    H125609   2.192   6.538  15.422 -0.9888  0.7603  0.9421
 1398TIP3    H225610   2.202   6.481  15.562  0.0557  0.4287  0.7388
 1399TIP3   OH225611   0.260   6.023  16.720  0.1745  0.5096  0.0685
 1399TIP3    H125612   0.211   6.041  16.800  1.0251  1.4685  0.4035
 1399TIP3    H225613   0.196   6.031  16.649 -0.9921 -2.0630  0.7202
 1400TIP3   OH225614   4.933   3.796  14.688 -0.5533  0.2126 -0.5489
 1400TIP3    H125615   4.841   3.796  14.664  0.0992  0.3860 -3.5263
 1400TIP3    H225616   4.967   3.714  14.653  0.5012  0.3361  0.1385
 1401TIP3   OH225617   4.381   0.258   1.849 -0.2125 -0.2590 -0.5296
 1401TIP3    H125618   4.433   0.179   1.834  0.3407  0.3106 -1.7704
 1401TIP3    H225619   4.300   0.227   1.890  0.1501 -1.4261 -0.6751
 1402TIP3   OH225620   3.675   0.985   2.550  0.4448  0.0220 -0.1869
 1402TIP3    H125621   3.712   0.988   2.462 -0.2080 -0.9407 -0.5106
 1402TIP3    H225622   3.699   1.069   2.589 -3.1493  2.5725 -2.8180
 1403TIP3   OH225623   1.182   0.099   5.489  0.5401 -0.0683  0.2439
 1403TIP3    H125624   1.187   0.005   5.474 -1.2837 -0.2620  0.5366
 1403TIP3    H225625   1.138   0.133   5.410  1.2910  0.5603  0.0844
 1404TIP3   OH225626   4.556   5.545   0.802 -0.0513  0.5062 -0.7594
 1404TIP3    H125627   4.521   5.509   0.884  0.1574  0.6994 -0.5852
 1404TIP3    H225628   4.481   5.545   0.742 -0.3496  0.9018 -0.3922
 1405TIP3   OH225629   4.969   4.615  12.233 -0.4812 -0.3034 -0.0445
 1405TIP3    H125630   5.060   4.587  12.247 -1.3615 -2.6123  1.7577
 1405TIP3    H225631   4.970   4.659  12.148  2.3824  0.1350  0.1370
 1406TIP3   OH225632   4.363   3.183  12.642  0.0193  0.3124 -0.0422
 1406TIP3    H125633   4.295   3.160  12.705  1.1529 -0.0942  1.0741
 1406TIP3    H225634   4.339   3.270  12.611 -0.7778  0.3503  0.6588
 1407TIP3   OH225635   5.854   6.036  13.180 -0.0885  0.1325  0.4829
 1407TIP3    H125636   5.921   5.968  13.178  0.2235  0.4237  0.8781
 1407TIP3    H225637   5.775   5.993  13.147 -0.1923 -0.7346  1.8052
 1408TIP3   OH225638   6.403   0.726   5.367 -0.6604  0.2913 -0.6184
 1408TIP3    H125639   6.371   0.663   5.302  0.7148 -0.1212 -0.9250
 1408TIP3    H225640   6.416   0.675   5.446 -2.8404  0.8905  0.2190
 1409TIP3   OH225641   5.621   5.599   0.791 -0.5760  0.3106 -0.1239
 1409TIP3    H125642   5.535   5.556   0.791 -1.1713  1.4299  1.2224
 1409TIP3    H225643   5.607   5.681   0.839  1.5786 -0.2052  1.5425
 1410TIP3   OH225644   4.972   0.519  11.858 -0.1056 -0.6337  0.1402
 1410TIP3    H125645   4.950   0.568  11.937 -3.1152 -0.2361 -0.8145
 1410TIP3    H225646   4.954   0.579  11.786 -2.4885 -2.5175 -1.0124
 1411TIP3   OH225647   2.683   4.232   1.580 -0.1637  0.1650  0.1676
 1411TIP3    H125648   2.651   4.309   1.627  1.8522  0.0828  1.7805
 1411TIP3    H225649   2.686   4.260   1.488  1.7873  2.5194  0.8683
 1412TIP3   OH225650   0.908   5.080  13.496 -0.6219 -0.3672  0.2337
 1412TIP3    H125651   0.898   5.169  13.462 -0.3923 -0.4380 -0.0231
 1412TIP3    H225652   0.940   5.092  13.585  2.2161 -0.1974 -0.7050
 1413TIP3   OH225653   2.708   4.531   3.343  0.3675 -0.2138 -0.0340
 1413TIP3    H125654   2.763   4.481   3.283  0.0447 -1.3952  0.6166
 1413TIP3    H225655   2.688   4.469   3.414 -3.0786 -0.3628 -0.9900
 1414TIP3   OH225656   1.905   5.779   0.671  0.0426  0.0832  0.2450
 1414TIP3    H125657   1.853   5.698   0.676  0.7791 -0.3549  1.2315
 1414TIP3    H225658   1.944   5.787   0.758 -0.7393  2.0127  0.4537
 1415TIP3   OH225659   5.705   1.543  13.141 -0.0537  0.2166 -0.3137
 1415TIP3    H125660   5.752   1.508  13.215  0.2100  0.6885 -0.2550
 1415TIP3    H225661   5.770   1.547  13.070 -0.7439 -2.0131 -1.1576
 1416TIP3   OH225662   4.953   3.724  12.655  0.1189 -0.5032  0.0631
 1416TIP3    H125663   4.864   3.717  12.622 -0.1675  0.1415  0.6771
 1416TIP3    H225664   5.006   3.743  12.578 -0.1829 -1.4982 -0.3950
 1417TIP3   OH225665   3.164   3.163  16.364 -0.4706  0.0789  0.6258
 1417TIP3    H125666   3.101   3.187  16.432 -0.4428 -1.4483  1.2490
 1417TIP3    H225667   3.113   3.114  16.300 -0.2563  0.4400  0.1715
 1418TIP3   OH225668   3.620   6.085   1.418  0.2395 -0.0365 -0.6211
 1418TIP3    H125669   3.662   5.999   1.427 -1.8911 -0.9630  1.7513
 1418TIP3    H225670   3.678   6.145   1.466  0.5498 -0.6159 -0.2615
 1419TIP3   OH225671   6.558   4.204  15.576  0.0131 -0.4211  0.7082
 1419TIP3    H125672   6.607   4.152  15.512  0.8476  0.5658  0.5240
 1419TIP3    H225673   6.608   4.285  15.585 -0.4549 -0.2646  2.1232
 1420TIP3   OH225674   3.867   0.044   1.733 -0.1124 -0.5615  0.2796
 1420TIP3    H125675   3.917  -0.018   1.786 -0.6026 -2.3070 -1.1967
 1420TIP3    H225676   3.907   0.039   1.646 -0.1677  1.2434  0.1007
 1421TIP3   OH225677   2.852   3.276   2.139  0.4166  0.6349 -0.3370
 1421TIP3    H125678   2.789   3.348   2.128  0.6356  1.0255  0.8294
 1421TIP3    H225679   2.860   3.266   2.234 -0.6289 -1.8450 -0.4531
 1422TIP3   OH225680   3.624   0.765  17.246 -0.2759  0.3111  0.2099
 1422TIP3    H125681   3.605   0.720  17.328 -0.9644 -0.5188 -0.3904
 1422TIP3    H225682   3.539   0.769  17.201  0.6825 -2.9390 -2.2844
 1423TIP3   OH225683   6.114   2.108  12.386  0.0373  0.0925 -0.6293
 1423TIP3    H125684   6.074   2.121  12.300 -1.7553  2.4153  0.4268
 1423TIP3    H225685   6.054   2.049  12.432 -1.2848  2.0430  0.2980
 1424TIP3   OH225686   6.209   4.026  17.232  0.5539 -0.0280 -0.2703
 1424TIP3    H125687   6.284   4.075  17.196  0.2264 -0.0398 -0.9760
 1424TIP3    H225688   6.231   3.934  17.218  0.5689 -0.0434 -0.1477
 1425TIP3   OH225689   3.466   0.357  13.835  0.3434  0.0914  0.3065
 1425TIP3    H125690   3.422   0.420  13.778 -0.5991 -1.9208 -1.3350
 1425TIP3    H225691   3.401   0.288  13.848  1.3286 -0.5643  2.0475
 1426TIP3   OH225692   0.316   5.331   1.421  0.2431 -0.2913  0.0008
 1426TIP3    H125693   0.408   5.322   1.447  0.3755  2.1394  0.6256
 1426TIP3    H225694   0.314   5.305   1.329  1.6277 -0.1231 -0.0945
 1427TIP3   OH225695   3.689   3.288  16.579  0.2570 -0.4311  0.7966
 1427TIP3    H125696   3.611   3.232  16.587 -0.7103  1.0600  2.9252
 1427TIP3    H225697   3.722   3.271  16.491 -2.4421 -1.1780 -0.1809
 1428TIP3   OH225698   0.855   5.676   3.301 -0.0112  0.4689  0.2929
 1428TIP3    H125699   0.880   5.701   3.391  1.0274  0.0549  0.1357
 1428TIP3    H225700   0.760   5.685   3.299  0.0172  1.1770  1.2263
 1429TIP3   OH225701   0.864   0.308  16.866 -0.2728 -0.2215 -0.4230
 1429TIP3    H125702   0.773   0.310  16.897 -0.1188  1.8122  0.0133
 1429TIP3    H225703   0.916   0.332  16.942  0.2482  3.1013 -1.6863
 1430TIP3   OH225704   4.542   5.957   6.367  0.0458 -0.3437 -0.0870
 1430TIP3    H125705   4.496   5.882   6.405  0.6255 -0.6663 -0.0087
 1430TIP3    H225706   4.483   5.989   6.299 -0.6350 -0.2663  0.5273
 1431TIP3   OH225707   4.166   3.795   4.204  0.1755 -0.6396 -0.0004
 1431TIP3    H125708   4.095   3.834   4.255  0.1386 -0.5972 -0.0852
 1431TIP3    H225709   4.194   3.864   4.144  1.7856  0.1188  1.5297
 1432TIP3   OH225710   1.187   6.122  14.850 -0.1447  0.3291  0.0929
 1432TIP3    H125711   1.126   6.150  14.782  0.4109  0.8596 -0.1965
 1432TIP3    H225712   1.261   6.084  14.803 -0.2157 -0.2507  0.4382
 1433TIP3   OH225713   4.453   6.596   3.061  0.0153 -0.0821 -0.6100
 1433TIP3    H125714   4.361   6.602   3.035  0.3637  1.7129 -1.5657
 1433TIP3    H225715   4.452   6.615   3.155 -0.4383  1.7594 -0.9520
 1434TIP3   OH225716   1.357   1.839  16.690  0.3790  0.5325 -0.0566
 1434TIP3    H125717   1.302   1.864  16.616  0.6439  1.3824  0.0103
 1434TIP3    H225718   1.336   1.904  16.758 -1.6240 -1.6307  1.5186
 1435TIP3   OH225719   2.870   2.972   2.404 -0.1442 -0.2276  0.5115
 1435TIP3    H125720   2.922   3.052   2.412 -0.3773  0.1235 -1.0870
 1435TIP3    H225721   2.796   2.986   2.463 -0.6839  1.1896 -0.4254
 1436TIP3   OH225722   3.250   2.474   2.673 -0.2697 -0.5830 -0.1099
 1436TIP3    H125723   3.336   2.432   2.673 -0.1450 -0.3342 -0.5926
 1436TIP3    H225724   3.244   2.515   2.760  0.7495  0.6853 -0.6031
 1437TIP3   OH225725   4.873   6.697   5.290 -0.8246  0.5117  0.2470
 1437TIP3    H125726   4.897   6.620   5.342  1.3742  0.6568 -0.4192
 1437TIP3    H225727   4.795   6.670   5.242 -1.3696 -0.5217  1.6657
 1438TIP3   OH225728   3.156   1.788   0.308 -0.3557  0.1154  0.1106
 1438TIP3    H125729   3.223   1.814   0.245  0.6518 -1.9247  0.2462
 1438TIP3    H225730   3.093   1.737   0.257 -0.9964  0.7303  0.2710
 1439TIP3   OH225731   3.922   6.156  13.564  0.4383  0.0915 -0.6051
 1439TIP3    H125732   3.915   6.200  13.649 -0.5322 -0.9766 -0.1052
 1439TIP3    H225733   3.834   6.159  13.528 -0.7361 -4.5289  1.1002
 1440TIP3   OH225734   3.702   3.590   6.513 -0.1943  0.0320 -0.8778
 1440TIP3    H125735   3.797   3.578   6.516 -0.2416 -0.2098 -0.4277
 1440TIP3    H225736   3.678   3.619   6.601 -1.0815 -3.8540  0.3581
 1441TIP3   OH225737   6.189   0.392   0.157 -0.1872  0.0972 -0.4099
 1441TIP3    H125738   6.223   0.473   0.194 -0.8714  0.5418 -0.7398
 1441TIP3    H225739   6.138   0.419   0.081  1.3060 -0.8012 -1.8072
 1442TIP3   OH225740   0.711   2.803  12.610 -0.6939 -0.1933  0.3894
 1442TIP3    H125741   0.650   2.745  12.564 -0.5185  1.5697 -2.3186
 1442TIP3    H225742   0.797   2.774  12.581 -0.5007  0.0624  0.7096
 1443TIP3   OH225743   3.257   3.554   1.969  0.5322 -0.0550  0.3211
 1443TIP3    H125744   3.309   3.512   1.900 -0.0902 -2.8081  1.4265
 1443TIP3    H225745   3.176   3.580   1.924 -0.1360 -2.3788  0.0256
 1444TIP3   OH225746   5.653   2.140  15.203 -0.0943  0.2710 -0.1330
 1444TIP3    H125747   5.584   2.080  15.172  0.1673 -0.0871 -0.0325
 1444TIP3    H225748   5.682   2.102  15.285 -0.2614  0.8110  0.1807
 1445TIP3   OH225749   4.077   2.066   1.888 -0.2437 -0.0007 -0.0979
 1445TIP3    H125750   4.122   2.100   1.965  0.8806 -0.3270 -0.5998
 1445TIP3    H225751   4.145   2.059   1.820 -1.3764  1.1519 -1.4164
 1446TIP3   OH225752   6.504   1.608   6.532  0.4016 -0.4611  0.1925
 1446TIP3    H125753   6.416   1.578   6.554 -0.2331  0.1994 -1.3498
 1446TIP3    H225754   6.554   1.528   6.518 -0.1276 -0.8318  0.3833
 1447TIP3   OH225755   1.468   2.635  13.327 -0.0707 -0.0459 -0.0446
 1447TIP3    H125756   1.386   2.637  13.378 -0.3357  2.6620 -0.4585
 1447TIP3    H225757   1.442   2.664  13.240  1.3703  1.0456 -0.1230
 1448TIP3   OH225758   5.169   2.497   1.775 -0.2279 -0.0048 -0.3581
 1448TIP3    H125759   5.231   2.487   1.703 -0.2369  1.6233 -0.6196
 1448TIP3    H225760   5.093   2.541   1.737 -0.6723 -0.0769  0.4199
 1449TIP3   OH225761   0.641   0.861  10.361  0.4938 -0.3978  0.5623
 1449TIP3    H125762   0.564   0.909  10.329  1.2379  0.5829  0.2052
 1449TIP3    H225763   0.612   0.770  10.365 -0.2070 -0.2972 -1.1496
 1450TIP3   OH225764   5.016   1.521  12.035  0.5342  0.1467  0.1196
 1450TIP3    H125765   5.040   1.486  12.121  1.2529 -0.3118 -0.2569
 1450TIP3    H225766   5.040   1.452  11.974 -0.7446  0.1345 -0.3886
 1451TIP3   OH225767   4.980   4.135  13.038 -0.3518 -0.1131 -0.1200
 1451TIP3    H125768   5.060   4.083  13.046 -0.6713 -0.4155  1.2559
 1451TIP3    H225769   4.909   4.073  13.055 -0.9117  0.1126 -1.5207
 1452TIP3   OH225770   1.869   4.160   3.522  0.2233 -0.6129  0.0595
 1452TIP3    H125771   1.960   4.182   3.545 -0.1445 -0.5296  1.6031
 1452TIP3    H225772   1.830   4.131   3.605 -1.6055  0.8730 -0.2116
 1453TIP3   OH225773   4.408   4.023   2.528  0.3675  0.4248 -0.0564
 1453TIP3    H125774   4.446   4.104   2.495 -1.6524  0.8988 -1.4319
 1453TIP3    H225775   4.425   3.958   2.460  1.9117 -0.3355  1.0059
 1454TIP3   OH225776   3.410   2.235  13.964  0.4928 -0.0008  0.5258
 1454TIP3    H125777   3.325   2.279  13.954  0.6045 -0.3071 -2.3073
 1454TIP3    H225778   3.473   2.307  13.970  0.3106  0.2483 -0.3787
 1455TIP3   OH225779   1.046   1.566   1.299  0.7559 -0.3537 -0.3828
 1455TIP3    H125780   1.093   1.536   1.377 -1.5261  0.0104  1.2601
 1455TIP3    H225781   0.971   1.506   1.292  0.2477  0.3854 -1.5542
 1456TIP3   OH225782   4.996   4.216  16.630  0.2047  0.9718  0.4590
 1456TIP3    H125783   5.009   4.127  16.598  0.4154  1.2767 -0.3159
 1456TIP3    H225784   5.027   4.214  16.721  0.4054  0.3115  0.3752
 1457TIP3   OH225785   2.910   5.437  11.542 -0.1695 -0.2567  0.1386
 1457TIP3    H125786   2.999   5.452  11.575  0.2839  2.3058 -1.8885
 1457TIP3    H225787   2.917   5.358  11.489  1.5374  1.0325 -1.7186
 1458TIP3   OH225788   0.541   4.793   1.343  0.3241  0.1736 -0.5738
 1458TIP3    H125789   0.591   4.852   1.286  0.1986  0.4660 -0.3850
 1458TIP3    H225790   0.607   4.747   1.394  0.3721  2.5531  1.6769
 1459TIP3   OH225791   0.161   0.733  12.958 -0.2557 -0.5192 -0.1924
 1459TIP3    H125792   0.223   0.764  13.024  1.1720 -4.4896  0.6190
 1459TIP3    H225793   0.102   0.675  13.006 -1.1088 -1.1009 -1.8696
 1460TIP3   OH225794   4.432   4.966  16.749  0.4612 -0.6607 -0.2327
 1460TIP3    H125795   4.478   4.882  16.739 -0.7952 -1.9918  3.3291
 1460TIP3    H225796   4.482   5.028  16.697  2.2423 -3.3528 -1.9499
 1461TIP3   OH225797   0.215   2.751   5.487 -0.1927 -0.0434  0.5738
 1461TIP3    H125798   0.182   2.706   5.410 -1.0065  0.1174  0.8210
 1461TIP3    H225799   0.269   2.822   5.452  0.8297 -0.9874  0.1808
 1462TIP3   OH225800   1.300   4.873  11.899  0.4743  0.0425 -0.7985
 1462TIP3    H125801   1.282   4.784  11.928  0.7974  0.0227 -0.6654
 1462TIP3    H225802   1.381   4.898  11.943 -0.0193  0.6836 -0.2371
 1463TIP3   OH225803   2.125   6.022  12.070  0.2104 -0.4154  0.7722
 1463TIP3    H125804   2.164   6.086  12.011  1.9357 -1.2274  0.9657
 1463TIP3    H225805   2.181   6.025  12.148 -2.3014  1.0188  2.6741
 1464TIP3   OH225806   4.094   0.632  16.885 -0.0982  0.0431 -0.6439
 1464TIP3    H125807   4.168   0.574  16.903 -0.3970  0.1110  0.9938
 1464TIP3    H225808   4.123   0.717  16.918 -2.3347 -0.7358  4.2468
 1465TIP3   OH225809   2.174   4.310   0.192  0.0399 -0.1046 -0.0748
 1465TIP3    H125810   2.119   4.284   0.265  0.1877  1.2745  0.5574
 1465TIP3    H225811   2.260   4.272   0.211 -0.1961 -0.6253 -0.0633
 1466TIP3   OH225812   5.139   0.671  15.264  0.8702  0.1417  0.1735
 1466TIP3    H125813   5.233   0.668  15.248  0.9319  1.1256  0.2985
 1466TIP3    H225814   5.119   0.764  15.274 -0.1669 -0.0315 -0.1505
 1467TIP3   OH225815   2.091   2.622  11.013 -0.3850 -0.9313  0.5932
 1467TIP3    H125816   2.092   2.672  11.095  0.8731  1.6181 -0.8490
 1467TIP3    H225817   2.183   2.619  10.986 -0.7886 -1.6081 -0.8012
 1468TIP3   OH225818   2.471   5.001  16.175 -0.0429 -0.5075 -0.1788
 1468TIP3    H125819   2.422   5.050  16.242  2.0979  0.1752  0.9862
 1468TIP3    H225820   2.516   4.932  16.224  2.5088  0.7199 -0.6321
 1469TIP3   OH225821   0.753   1.603   5.363  0.0626 -0.4277 -0.4915
 1469TIP3    H125822   0.672   1.607   5.312 -1.5457  1.1402  1.9652
 1469TIP3    H225823   0.786   1.693   5.364  1.4701 -0.9063 -0.8448
 1470TIP3   OH225824   0.748   4.734  14.685  0.2611  0.0525  0.0483
 1470TIP3    H125825   0.758   4.727  14.780  1.2601  0.1551 -0.0445
 1470TIP3    H225826   0.713   4.649  14.659  0.9062 -0.3192  0.3872
 1471TIP3   OH225827   6.687   2.329   2.842  0.3702  0.2057  0.3292
 1471TIP3    H125828   6.662   2.279   2.764  1.4866 -0.2309  0.2297
 1471TIP3    H225829   6.764   2.379   2.814  0.2757  0.6898  0.9154
 1472TIP3   OH225830   5.354   6.361  12.426  0.2728 -0.6782 -0.2302
 1472TIP3    H125831   5.281   6.309  12.460 -0.7713  1.4156  0.9391
 1472TIP3    H225832   5.313   6.429  12.373  1.2996  0.7130  0.6607
 1473TIP3   OH225833   0.182   4.455   4.066  0.1028 -0.1978  0.2177
 1473TIP3    H125834   0.212   4.448   3.975  1.2441  0.5175  0.5302
 1473TIP3    H225835   0.107   4.395   4.070 -1.6868  1.6779 -1.8791
 1474TIP3   OH225836   4.130   2.302   2.341  0.3170  0.6699 -0.1594
 1474TIP3    H125837   4.164   2.213   2.345  1.3165  1.0361 -0.1049
 1474TIP3    H225838   4.113   2.326   2.432  0.2942  0.6240 -0.1517
 1475TIP3   OH225839   4.999   6.252  11.351  0.6003  0.0581 -0.5872
 1475TIP3    H125840   4.952   6.187  11.299 -0.8270 -0.2410  0.9676
 1475TIP3    H225841   5.046   6.200  11.417 -0.7952  0.5276  0.8567
 1476TIP3   OH225842   5.471   4.721   4.966 -0.4973 -0.2732 -0.1121
 1476TIP3    H125843   5.455   4.665   5.042  0.5664 -0.4878 -0.0323
 1476TIP3    H225844   5.563   4.745   4.972 -0.5623  0.2694 -0.9697
 1477TIP3   OH225845   4.336   4.948  15.688  0.0925 -0.0030  0.8313
 1477TIP3    H125846   4.327   4.868  15.635 -1.2897  0.6650  0.0039
 1477TIP3    H225847   4.429   4.950  15.711 -0.0018 -2.3503  1.7086
 1478TIP3   OH225848   1.244   1.720  14.150 -0.1658 -0.3530  0.0971
 1478TIP3    H125849   1.222   1.776  14.224 -0.8086 -0.3402 -0.0972
 1478TIP3    H225850   1.159   1.693  14.114  0.1320 -0.2321 -0.7320
 1479TIP3   OH225851   3.218   6.249   3.815 -0.4977  0.6697 -0.5199
 1479TIP3    H125852   3.232   6.327   3.761  1.0665 -0.1832 -1.4276
 1479TIP3    H225853   3.256   6.272   3.900  0.3186  0.7673 -0.9050
 1480TIP3   OH225854   2.640   2.161  11.480 -0.2715  0.2298  0.2566
 1480TIP3    H125855   2.614   2.250  11.505 -1.7237 -0.1444  0.1965
 1480TIP3    H225856   2.568   2.106  11.513  0.9917 -1.0143  1.0156
 1481TIP3   OH225857   5.393   0.793  16.147  0.0071 -0.2694 -0.1272
 1481TIP3    H125858   5.447   0.730  16.195  0.9099  1.0755  0.6796
 1481TIP3    H225859   5.381   0.866  16.207 -0.4511  0.6304 -1.2677
 1482TIP3   OH225860   4.348   5.183  14.487 -0.4917 -0.1037 -0.2913
 1482TIP3    H125861   4.376   5.207  14.399  1.1549  1.0190  0.4731
 1482TIP3    H225862   4.293   5.256  14.515  1.5046  1.1073  0.6847
 1483TIP3   OH225863   2.883   2.462  16.820  0.2426  0.0573 -0.1799
 1483TIP3    H125864   2.936   2.476  16.742  0.4404  0.5082  0.0323
 1483TIP3    H225865   2.943   2.425  16.884  0.0717 -0.3473 -0.2531
 1484TIP3   OH225866   2.872   1.015  11.972  0.0003 -0.7458 -0.9103
 1484TIP3    H125867   2.875   1.110  11.961 -1.5505 -0.3939  1.0616
 1484TIP3    H225868   2.901   1.000  12.062 -1.7510 -1.9264 -0.4949
 1485TIP3   OH225869   6.655   1.174  16.670  0.1980  0.3263  0.3238
 1485TIP3    H125870   6.727   1.129  16.626 -1.0712 -0.7495 -0.7559
 1485TIP3    H225871   6.697   1.226  16.739  2.1482  1.0608 -1.3139
 1486TIP3   OH225872   5.183   5.151   1.015 -0.5010  0.0531  0.5641
 1486TIP3    H125873   5.232   5.170   1.096 -1.1781 -1.6830  1.4304
 1486TIP3    H225874   5.100   5.115   1.046 -2.9920  3.9940 -0.7902
 1487TIP3   OH225875   2.867   0.147  10.854 -0.2284  0.2905  0.7395
 1487TIP3    H125876   2.827   0.214  10.800  1.0480  0.0835 -0.5074
 1487TIP3    H225877   2.837   0.064  10.816  0.6220  0.1436  0.3734
 1488TIP3   OH225878   3.645   4.756  14.546 -0.2558  0.0202 -0.3709
 1488TIP3    H125879   3.734   4.757  14.509 -0.6305 -1.5358 -1.3911
 1488TIP3    H225880   3.641   4.836  14.599  1.5723  0.3971 -0.7153
 1489TIP3   OH225881   4.626   3.417   3.711 -0.5607  0.2800 -0.4099
 1489TIP3    H125882   4.538   3.386   3.686 -0.7205  0.5684 -0.2000
 1489TIP3    H225883   4.651   3.361   3.784 -0.8096  0.5787 -0.0942
 1490TIP3   OH225884   6.411   1.137  12.498 -0.4679 -1.0422  0.8444
 1490TIP3    H125885   6.343   1.090  12.547 -1.2306 -0.3386  0.4991
 1490TIP3    H225886   6.364   1.176  12.424  0.1622  0.1390  1.0472
 1491TIP3   OH225887   4.988   6.226   1.703 -0.0083 -0.1562 -0.1981
 1491TIP3    H125888   4.965   6.300   1.759 -1.5634 -0.5115 -0.3190
 1491TIP3    H225889   4.925   6.230   1.631  0.3915 -1.1388 -0.6157
 1492TIP3   OH225890   0.315   5.973  15.663 -0.1144 -0.4638  0.7064
 1492TIP3    H125891   0.327   5.914  15.737 -0.7767 -2.9651 -1.0149
 1492TIP3    H225892   0.234   5.943  15.621 -0.6225  1.8734 -0.1687
 1493TIP3   OH225893   5.610   0.184   5.417  0.0925  0.6759 -0.3204
 1493TIP3    H125894   5.617   0.141   5.332 -0.6535  0.9962 -0.5562
 1493TIP3    H225895   5.516   0.186   5.435  0.2776  0.0351  0.8219
 1494TIP3   OH225896   6.742   1.433  11.263 -0.2084 -0.4159 -0.3464
 1494TIP3    H125897   6.660   1.457  11.305 -0.2235  0.7035 -0.9791
 1494TIP3    H225898   6.800   1.508  11.280 -0.1139 -0.0734 -2.0197
 1495TIP3   OH225899   0.633   4.732  12.926 -0.2912  0.3431 -0.4925
 1495TIP3    H125900   0.616   4.811  12.976 -0.9303  0.0314 -0.2062
 1495TIP3    H225901   0.552   4.681  12.932  0.7233 -1.2087  0.9353
 1496TIP3   OH225902   0.429   4.842  14.260 -0.4891 -0.1493  0.8604
 1496TIP3    H125903   0.521   4.869  14.260  0.0732 -1.9174  0.2243
 1496TIP3    H225904   0.381   4.921  14.236  0.8907  0.7280  0.8563
 1497TIP3   OH225905   2.835   3.134  16.918  0.0395  0.6070 -0.0178
 1497TIP3    H125906   2.846   3.048  16.959  3.1567 -0.0085 -1.9000
 1497TIP3    H225907   2.843   3.118  16.824 -0.8487  2.7955 -0.5305
 1498TIP3   OH225908   5.382   4.079   6.360 -0.0724  0.4704 -0.2691
 1498TIP3    H125909   5.370   4.064   6.454 -0.0398 -0.2735 -0.3831
 1498TIP3    H225910   5.468   4.042   6.341 -0.0287  0.7262 -0.5763
 1499TIP3   OH225911   2.479   6.485   4.619 -0.2595  0.6647 -0.0059
 1499TIP3    H125912   2.449   6.524   4.701  1.3763  0.4251  0.7435
 1499TIP3    H225913   2.421   6.411   4.604  1.0912 -1.0004  2.4421
 1500TIP3   OH225914   6.644   0.903   2.238  0.1526 -0.1905 -0.1850
 1500TIP3    H125915   6.647   0.992   2.274 -1.9624  0.3992 -1.3416
 1500TIP3    H225916   6.677   0.913   2.149  1.3036 -0.8780  0.1404
 1501TIP3   OH225917   0.088   3.479  11.663 -0.0101 -0.2149  0.1796
 1501TIP3    H125918   0.112   3.494  11.572  0.7075  3.2156  0.7977
 1501TIP3    H225919   0.142   3.405  11.691 -0.5726 -1.6377 -2.2295
 1502TIP3   OH225920   1.251   2.467  16.485  0.1899  0.0764  0.1712
 1502TIP3    H125921   1.230   2.559  16.500 -0.7835 -0.3284  1.4758
 1502TIP3    H225922   1.346   2.462  16.493  0.3860  1.1649 -1.1615
 1503TIP3   OH225923   0.385   5.156   3.143 -0.3798  0.0110 -0.1539
 1503TIP3    H125924   0.437   5.077   3.158  0.0689  0.1820 -0.7941
 1503TIP3    H225925   0.365   5.187   3.231  2.6723  1.2921  0.2098
 1504TIP3   OH225926   5.010   4.865   0.585  0.0353  0.1404 -0.4653
 1504TIP3    H125927   5.041   4.775   0.596  1.2835  0.6241  0.1660
 1504TIP3    H225928   4.916   4.856   0.570 -0.0315 -1.2288  0.5391
 1505TIP3   OH225929   3.304   2.563   4.135 -0.3144 -0.2642 -0.3849
 1505TIP3    H125930   3.241   2.633   4.118  0.9500  1.2337  0.7393
 1505TIP3    H225931   3.337   2.539   4.048 -0.3106  1.0324 -0.7656
 1506TIP3   OH225932   3.056   4.408   2.850  0.0087 -1.0474 -0.4906
 1506TIP3    H125933   3.019   4.479   2.902 -1.8864 -1.3975 -1.2759
 1506TIP3    H225934   3.100   4.352   2.913  0.1657 -0.0208  0.3416
 1507TIP3   OH225935   0.897   3.750   4.745  0.0108  0.2308  0.1746
 1507TIP3    H125936   0.904   3.669   4.695  2.7428  1.4923 -1.7088
 1507TIP3    H225937   0.834   3.803   4.696 -0.7456 -0.1812  0.6653
 1508TIP3   OH225938   1.112   1.364   2.071  0.3890 -0.2644  0.4261
 1508TIP3    H125939   1.116   1.424   1.996 -0.7185 -1.0094 -0.2620
 1508TIP3    H225940   1.036   1.393   2.121  0.0804 -0.8318  0.2980
 1509TIP3   OH225941   4.865   5.325   5.544  0.2828  0.1430  0.0906
 1509TIP3    H125942   4.928   5.282   5.601  0.9806  1.3792  0.2891
 1509TIP3    H225943   4.908   5.330   5.459  0.4215  0.8975  0.2004
 1510TIP3   OH225944   0.246   1.506   5.108 -0.5785 -0.0288 -0.0196
 1510TIP3    H125945   0.279   1.578   5.055 -0.6190  0.7878  1.0455
 1510TIP3    H225946   0.151   1.516   5.105 -0.6862 -1.0564 -1.2395
 1511TIP3   OH225947   3.155   4.415  11.456  0.1752  0.3135 -0.0124
 1511TIP3    H125948   3.141   4.510  11.449  1.1104  0.5401  0.8893
 1511TIP3    H225949   3.093   4.377  11.394 -0.0899  1.5232 -0.5216
 1512TIP3   OH225950   5.670   0.344   2.066 -0.6848  0.3178 -0.2462
 1512TIP3    H125951   5.751   0.361   2.114 -0.9685 -1.0393  0.7690
 1512TIP3    H225952   5.685   0.261   2.021 -0.8936  0.9314 -1.4798
 1513TIP3   OH225953   1.030   2.747  16.131  0.4362 -0.3979  0.0051
 1513TIP3    H125954   1.077   2.664  16.146 -0.1659 -0.3498  2.7329
 1513TIP3    H225955   0.944   2.720  16.097 -1.0101 -1.3234  3.8667
 1514TIP3   OH225956   5.360   3.717   5.192 -0.0396 -0.4989 -0.2771
 1514TIP3    H125957   5.270   3.700   5.222 -0.3240  1.0482 -0.1874
 1514TIP3    H225958   5.351   3.742   5.100  0.2529  0.0760 -0.1533
 1515TIP3   OH225959   0.729   2.789  14.296  0.7339 -0.1320 -0.9444
 1515TIP3    H125960   0.766   2.714  14.340 -0.5090  0.1115  0.6023
 1515TIP3    H225961   0.741   2.771  14.203  2.2187 -1.2909 -0.5535
 1516TIP3   OH225962   4.269   3.718  11.996  0.0675  0.0852 -0.1594
 1516TIP3    H125963   4.221   3.740  12.076 -0.0737  0.8577 -0.4408
 1516TIP3    H225964   4.359   3.705  12.025  0.0558  0.5544  0.1083
 1517TIP3   OH225965   1.159   2.621   6.154 -0.3147 -0.2021  0.0786
 1517TIP3    H125966   1.101   2.635   6.228  0.4060 -0.3232  0.6818
 1517TIP3    H225967   1.222   2.693   6.158 -0.0591 -0.4058 -0.2062
 1518TIP3   OH225968   0.524   5.411   0.949 -0.2094 -0.0035  0.7832
 1518TIP3    H125969   0.553   5.493   0.908 -0.3649 -0.9788 -1.3912
 1518TIP3    H225970   0.584   5.345   0.915 -1.1565 -1.0723  1.1368
 1519TIP3   OH225971   5.480   0.950   3.068 -0.2009  0.3810 -0.2099
 1519TIP3    H125972   5.467   0.984   3.156 -0.2120  0.6674 -0.3202
 1519TIP3    H225973   5.544   1.009   3.028 -0.1712  0.2344 -0.3808
 1520TIP3   OH225974   3.495   4.482  12.203 -0.1540 -0.5501  0.0160
 1520TIP3    H125975   3.422   4.528  12.162  0.5877 -0.3688 -1.1565
 1520TIP3    H225976   3.568   4.543  12.197 -0.2752 -0.0459  2.7188
 1521TIP3   OH225977   6.216   4.278  16.283 -0.1913  0.1427 -0.7186
 1521TIP3    H125978   6.311   4.276  16.281 -0.1776 -1.8794 -0.6626
 1521TIP3    H225979   6.189   4.201  16.233 -1.8166  0.9466 -1.1537
 1522TIP3   OH225980   3.682   0.626  14.999 -0.3390  0.1072  0.0962
 1522TIP3    H125981   3.607   0.568  15.017  0.2293 -0.3602  1.0584
 1522TIP3    H225982   3.724   0.587  14.922 -1.3885  0.6872 -0.7847
 1523TIP3   OH225983   1.581   6.375  16.801  0.0048  0.3689  0.2712
 1523TIP3    H125984   1.529   6.295  16.806 -0.5954  0.7580  0.3209
 1523TIP3    H225985   1.584   6.395  16.707 -0.8714  0.9505  0.3619
 1524TIP3   OH225986   1.861   3.599   2.085 -0.8805 -0.0351 -0.2238
 1524TIP3    H125987   1.800   3.584   2.014  0.5656 -1.9103 -1.1756
 1524TIP3    H225988   1.818   3.562   2.162 -1.4428 -0.2249 -0.6216
 1525TIP3   OH225989   3.010   5.641   5.569 -0.3900 -0.0689 -0.1516
 1525TIP3    H125990   2.980   5.638   5.660 -2.7027  0.2292 -0.8552
 1525TIP3    H225991   2.985   5.556   5.533  1.5974 -0.6607 -0.2423
 1526TIP3   OH225992   6.263   1.957  12.120  0.2019 -0.0642  0.0068
 1526TIP3    H125993   6.172   1.970  12.147 -0.1119 -0.4004 -0.8771
 1526TIP3    H225994   6.297   2.046  12.109  0.0530  0.0667  0.5339
 1527TIP3   OH225995   3.214   2.817  11.284  0.2048  0.2253  0.1737
 1527TIP3    H125996   3.148   2.764  11.240 -0.5391  2.4089 -1.5526
 1527TIP3    H225997   3.295   2.800  11.236 -0.1815  1.1302 -0.8209
 1528TIP3   OH225998   5.902   2.081   5.503 -0.6085 -0.8841 -0.0264
 1528TIP3    H125999   5.875   1.994   5.533 -0.0633 -0.2657  2.4621
 1528TIP3    H226000   5.898   2.136   5.581  0.3699  1.0394 -1.2406
 1529TIP3   OH226001   4.324   5.760   2.294  0.2253  0.3144 -1.3232
 1529TIP3    H126002   4.316   5.752   2.389  1.4418 -2.2260 -1.3719
 1529TIP3    H226003   4.279   5.682   2.260 -0.8212  1.5460 -2.9121
 1530TIP3   OH226004   4.559   1.611   0.811 -0.1627  0.2782 -0.5856
 1530TIP3    H126005   4.563   1.585   0.719 -1.9515  1.6163 -1.0835
 1530TIP3    H226006   4.574   1.706   0.810  0.3162  0.2315  0.5665
 1531TIP3   OH226007   2.590   6.432  17.023  0.0611  0.0458 -0.7911
 1531TIP3    H126008   2.664   6.455  16.967  1.1818 -1.0406  0.1863
 1531TIP3    H226009   2.575   6.339  17.006 -1.3182  0.3211 -1.2139
 1532TIP3   OH226010   0.552   2.385   0.740 -0.2041 -0.0184  0.2304
 1532TIP3    H126011   0.542   2.456   0.677  0.0729 -0.4204 -0.2775
 1532TIP3    H226012   0.645   2.385   0.762  0.1851 -1.4199 -1.2331
 1533TIP3   OH226013   6.075   5.108  13.008  0.1155  0.1182  0.2624
 1533TIP3    H126014   6.044   5.183  12.957 -0.2785  1.1444  1.9044
 1533TIP3    H226015   6.167   5.098  12.983 -0.1831  0.2846 -0.9618
 1534TIP3   OH226016   0.077   0.738   1.539  0.4974  0.4973 -0.2509
 1534TIP3    H126017   0.144   0.773   1.480  0.9627 -1.4251 -0.9344
 1534TIP3    H226018   0.118   0.661   1.579 -0.4192  0.7729  1.3103
 1535TIP3   OH226019   5.120   3.867  14.109  0.1980  0.0475 -0.0787
 1535TIP3    H126020   5.113   3.949  14.158  2.0588  1.9533 -2.7309
 1535TIP3    H226021   5.215   3.854  14.099 -0.1047 -1.0477 -1.8624
 1536TIP3   OH226022   0.362   6.192  16.096  0.2752 -0.0189  0.2035
 1536TIP3    H126023   0.287   6.243  16.125 -0.0693  0.1560 -0.9490
 1536TIP3    H226024   0.414   6.178  16.175 -0.6947  0.3103  0.9140
 1537TIP3   OH226025   3.395   4.226  15.145  0.0422  0.7173 -0.1947
 1537TIP3    H126026   3.450   4.204  15.070  0.5536  0.1993  0.3181
 1537TIP3    H226027   3.411   4.155  15.208  1.2437  2.1791  1.2452
 1538TIP3   OH226028   2.762   4.717   6.380 -0.2728  0.1243  0.0536
 1538TIP3    H126029   2.719   4.717   6.295 -0.0350  0.1164 -0.0685
 1538TIP3    H226030   2.835   4.778   6.370  0.0725 -0.2765  0.0885
 1539TIP3   OH226031   6.285   0.253  14.459 -0.6441  0.0389  0.5726
 1539TIP3    H126032   6.244   0.272  14.374 -2.1622  0.6070  1.4055
 1539TIP3    H226033   6.350   0.323  14.469  0.3160 -0.6444 -0.5848
 1540TIP3   OH226034   4.371   6.741  11.689 -0.2411 -0.1861  0.3727
 1540TIP3    H126035   4.360   6.675  11.620 -0.5681 -0.4268  0.6491
 1540TIP3    H226036   4.431   6.701  11.751  0.0586  0.0333  0.2284
 1541TIP3   OH226037   3.389   1.758   1.063  0.1141 -0.7483 -0.1711
 1541TIP3    H126038   3.424   1.842   1.092  0.2837 -0.5189 -1.0170
 1541TIP3    H226039   3.467   1.707   1.040  0.0098 -1.1315  0.2903
 1542TIP3   OH226040   1.612   2.066   3.312  0.2877  0.3153 -0.6616
 1542TIP3    H126041   1.527   2.041   3.277  0.0176  1.6764 -1.0540
 1542TIP3    H226042   1.645   1.987   3.355 -0.8395 -0.4395 -1.1402
 1543TIP3   OH226043   0.066   2.762  10.893 -0.0732  0.0549 -1.1185
 1543TIP3    H126044   0.157   2.741  10.871  0.3379  0.0933  0.4245
 1543TIP3    H226045   0.068   2.855  10.917 -0.5492  0.0907 -1.2041
 1544TIP3   OH226046   1.886   2.223   6.413  0.4267 -0.2144  0.5701
 1544TIP3    H126047   1.873   2.131   6.386  0.9714 -0.4685  1.1590
 1544TIP3    H226048   1.850   2.274   6.340 -0.2796 -0.8931  0.4199
 1545TIP3   OH226049   3.035   4.978   6.590  0.1111  0.6185 -0.5115
 1545TIP3    H126050   2.993   4.917   6.528  0.3186  2.6148 -2.7707
 1545TIP3    H226051   3.005   4.949   6.676  0.6732 -2.9847 -1.3716
 1546TIP3   OH226052   0.387   2.572   1.199 -0.1790  0.1824 -0.6557
 1546TIP3    H126053   0.458   2.507   1.196 -1.8056 -1.7916  0.7201
 1546TIP3    H226054   0.355   2.576   1.109  1.4969  0.9639 -1.2633
 1547TIP3   OH226055   3.668   4.607   3.610  0.2903 -0.0879 -0.0630
 1547TIP3    H126056   3.648   4.654   3.691  0.9171 -0.1360  0.1316
 1547TIP3    H226057   3.583   4.578   3.577  0.0889 -0.8120  1.0400
 1548TIP3   OH226058   2.445   1.165  14.376  0.5892 -0.1160 -0.0759
 1548TIP3    H126059   2.424   1.071  14.383  0.5270 -0.1080 -0.1641
 1548TIP3    H226060   2.465   1.191  14.466 -2.2182  0.4543  0.4801
 1549TIP3   OH226061   4.619   4.272   1.708  1.0799  0.2057  0.2325
 1549TIP3    H126062   4.677   4.349   1.717 -0.8447  1.5209  3.1702
 1549TIP3    H226063   4.592   4.253   1.798 -3.4181  0.0489 -0.9235
 1550TIP3   OH226064   6.321   5.801   5.841 -0.7411 -0.0114  0.1497
 1550TIP3    H126065   6.261   5.841   5.778 -1.3132  0.9456  1.2568
 1550TIP3    H226066   6.376   5.874   5.871 -0.1955 -0.5346  0.4340
 1551TIP3   OH226067   3.842   4.199   6.734 -0.0828  0.0729 -0.1545
 1551TIP3    H126068   3.935   4.219   6.736  0.5494 -2.5256  0.7042
 1551TIP3    H226069   3.826   4.167   6.645  0.9031 -3.3318  0.7307
 1552TIP3   OH226070   1.418   4.794   6.770 -0.1784  0.4887 -0.4715
 1552TIP3    H126071   1.484   4.735   6.734  0.2972 -0.7655  2.1406
 1552TIP3    H226072   1.466   4.874   6.791  1.1264 -0.9344  2.8378
 1553TIP3   OH226073   6.572   2.371  13.447 -0.3386 -0.4690 -0.4207
 1553TIP3    H126074   6.534   2.290  13.411  1.1138 -0.6200 -1.7534
 1553TIP3    H226075   6.642   2.393  13.386  0.5638  0.7449  0.9971
 1554TIP3   OH226076   0.548   6.076   5.100  0.0990 -0.7055 -0.4800
 1554TIP3    H126077   0.616   6.137   5.071 -1.5065  1.0722 -0.7580
 1554TIP3    H226078   0.587   6.029   5.174  0.5904  2.6811  1.6277
 1555TIP3   OH226079   4.912   3.209  11.989  0.2613  0.0106 -0.0150
 1555TIP3    H126080   4.840   3.180  12.045  0.7461  0.1696  0.7022
 1555TIP3    H226081   4.968   3.261  12.047 -0.7917  2.7885 -1.2926
 1556TIP3   OH226082   1.302   3.473   4.102  0.2986 -0.0955  0.0805
 1556TIP3    H126083   1.339   3.388   4.126 -1.4998 -1.0601 -0.3973
 1556TIP3    H226084   1.237   3.453   4.035 -0.6480  1.5827  0.4378
 1557TIP3   OH226085   2.919   6.045  11.565  0.1105  0.3068  0.3753
 1557TIP3    H126086   2.987   5.999  11.515 -0.6236  1.1291 -1.4971
 1557TIP3    H226087   2.968   6.105  11.622  1.0005 -1.3041  1.3740
 1558TIP3   OH226088   2.293   5.988   1.338  0.2780 -0.1239  0.0473
 1558TIP3    H126089   2.388   5.996   1.346  0.0182  1.3197  3.2023
 1558TIP3    H226090   2.278   5.973   1.245  3.4953  0.9917 -0.7826
 1559TIP3   OH226091   5.695   5.013  14.616 -0.0583  0.0254 -0.2099
 1559TIP3    H126092   5.622   4.969  14.573  0.4562 -2.4042  1.2098
 1559TIP3    H226093   5.657   5.053  14.694 -0.3882  1.5740 -1.1184
 1560TIP3   OH226094   1.479   2.013  17.082 -0.4631  0.1656  0.6005
 1560TIP3    H126095   1.420   2.010  17.007 -0.4754  0.4713  0.5957
 1560TIP3    H226096   1.426   2.049  17.153 -0.2712  0.4860  0.5839
 1561TIP3   OH226097   5.618   0.366  11.124 -0.0112  0.0098  0.4210
 1561TIP3    H126098   5.701   0.359  11.077 -0.4251 -3.5749 -0.0202
 1561TIP3    H226099   5.627   0.308  11.200 -1.5869  0.7752  1.2601
 1562TIP3   OH226100   3.329   4.720  15.213 -0.5293 -0.0229  0.4605
 1562TIP3    H126101   3.367   4.632  15.220 -0.3930  0.1406  2.1517
 1562TIP3    H226102   3.397   4.778  15.248 -0.2468  0.8893 -1.4950
 1563TIP3   OH226103   2.710   3.829  12.900 -0.4288 -0.2505  0.7732
 1563TIP3    H126104   2.696   3.820  12.994  2.1575 -0.8182  1.1995
 1563TIP3    H226105   2.750   3.746  12.874  0.2956  0.4617 -0.4835
 1564TIP3   OH226106   6.275   1.435   3.854 -1.0061  0.5718 -0.2350
 1564TIP3    H126107   6.294   1.347   3.887 -1.7239  0.4790 -0.0544
 1564TIP3    H226108   6.234   1.420   3.769 -1.0678  0.7364 -0.2336
 1565TIP3   OH226109   3.730   1.549   2.940 -0.4462 -0.1844  0.6395
 1565TIP3    H126110   3.695   1.511   2.860 -1.0550 -1.4050  1.4680
 1565TIP3    H226111   3.775   1.628   2.911 -2.6848  0.7178 -0.6422
 1566TIP3   OH226112   1.439   0.038  16.461 -0.1172 -0.4091 -0.8016
 1566TIP3    H126113   1.363   0.076  16.419 -1.2771 -0.3742  1.1852
 1566TIP3    H226114   1.403  -0.029  16.519  1.3578 -0.4055  0.1675
 1567TIP3   OH226115   6.650   4.054  15.149  0.2872 -0.1270 -0.0053
 1567TIP3    H126116   6.682   4.068  15.238  0.3779 -1.2393  0.1585
 1567TIP3    H226117   6.709   3.987  15.113 -0.7331 -0.8788 -0.3209
 1568TIP3   OH226118   6.183   3.171  14.181  0.0681 -0.1721  0.8945
 1568TIP3    H126119   6.225   3.092  14.215  1.2159 -0.0539 -0.1816
 1568TIP3    H226120   6.152   3.217  14.259 -1.0543 -1.8741  1.5367
 1569TIP3   OH226121   2.578   4.156   3.792 -0.1361 -0.4999  0.2083
 1569TIP3    H126122   2.526   4.076   3.796 -2.2917  0.8626  2.9931
 1569TIP3    H226123   2.608   4.169   3.882  2.5672  0.4054 -0.7219
 1570TIP3   OH226124   6.551   4.911  15.675  0.2512  0.1698  0.2175
 1570TIP3    H126125   6.596   4.963  15.607 -2.2136  2.2490  0.0110
 1570TIP3    H226126   6.581   4.950  15.757  1.6892 -1.0144  0.2930
 1571TIP3   OH226127   4.680   6.238  15.398 -0.3274 -0.0970 -0.1668
 1571TIP3    H126128   4.751   6.179  15.374  0.6925  0.8378  0.4948
 1571TIP3    H226129   4.722   6.310  15.445 -1.7688  0.1934  0.7598
 1572TIP3   OH226130   0.093   0.374   3.632 -0.0030 -0.1438  0.0097
 1572TIP3    H126131   0.026   0.310   3.606  1.6314 -1.6291 -0.7231
 1572TIP3    H226132   0.115   0.420   3.551  0.7864 -0.5660 -0.0178
 1573TIP3   OH226133   0.648   3.250   3.655 -0.3277  0.3273 -0.3006
 1573TIP3    H126134   0.712   3.320   3.645  0.6928 -0.4046  0.8040
 1573TIP3    H226135   0.690   3.174   3.615 -0.6402 -0.0966  0.1718
 1574TIP3   OH226136   2.398   6.773   1.327 -0.2555  0.2739  0.3736
 1574TIP3    H126137   2.366   6.683   1.335 -2.2950  1.0652  2.0517
 1574TIP3    H226138   2.433   6.777   1.238 -1.0780 -1.8881 -0.1299
 1575TIP3   OH226139   0.194   5.844   0.747 -0.1219 -0.2819  0.5170
 1575TIP3    H126140   0.246   5.763   0.747 -0.7525 -0.7543 -1.3930
 1575TIP3    H226141   0.194   5.873   0.838  0.4717 -2.2147  1.1894
 1576TIP3   OH226142   4.535   1.314  15.194  0.2509  0.0115  0.2791
 1576TIP3    H126143   4.441   1.313  15.179  0.4293 -0.6052 -0.9699
 1576TIP3    H226144   4.546   1.280  15.283 -0.5569 -3.3988 -0.7676
 1577TIP3   OH226145   5.116   1.216  16.353  0.2325 -0.1896  0.0840
 1577TIP3    H126146   5.126   1.130  16.312 -1.9465 -0.8377  0.7620
 1577TIP3    H226147   5.147   1.203  16.443  0.0647 -0.2258  0.1374
 1578TIP3   OH226148   1.530   0.691   3.955 -0.0582  0.5263 -0.4703
 1578TIP3    H126149   1.612   0.690   3.904  0.1293  0.5891 -0.1746
 1578TIP3    H226150   1.559   0.698   4.046 -0.3392 -1.2674 -0.2151
 1579TIP3   OH226151   6.201   3.261   0.400 -0.2059  0.0727 -0.3194
 1579TIP3    H126152   6.186   3.344   0.354 -1.1280  0.3888  0.5104
 1579TIP3    H226153   6.116   3.240   0.439 -0.0192 -1.3458 -0.6336
 1580TIP3   OH226154   1.615   3.958  16.185  0.3143 -0.2803 -0.3026
 1580TIP3    H126155   1.625   3.904  16.107 -2.5253 -1.6337  0.1121
 1580TIP3    H226156   1.595   4.045  16.151 -2.5864 -1.1927 -1.2886
 1581TIP3   OH226157   0.516   5.580  13.642  0.1725  0.1925  0.2001
 1581TIP3    H126158   0.557   5.666  13.649 -0.1639  0.2896  1.1056
 1581TIP3    H226159   0.582   5.525  13.600 -0.5922  1.5166 -2.9671
 1582TIP3   OH226160   5.146   0.423  11.445 -0.1353 -0.4529  0.2067
 1582TIP3    H126161   5.201   0.430  11.524 -0.0315  0.9159  0.0409
 1582TIP3    H226162   5.110   0.511  11.433  0.8588 -0.2678 -1.9811
 1583TIP3   OH226163   2.664   5.992   3.781  0.3013  0.3200 -0.7963
 1583TIP3    H126164   2.612   6.067   3.810 -0.8837  0.0865 -2.2007
 1583TIP3    H226165   2.620   5.961   3.702  1.9929 -0.5558 -1.4487
 1584TIP3   OH226166   1.477   0.027   3.032  0.4102  0.2978  0.6547
 1584TIP3    H126167   1.528   0.027   3.113 -0.6191 -0.5967  1.3416
 1584TIP3    H226168   1.426  -0.054   3.037 -0.9932  1.1133 -0.0219
 1585TIP3   OH226169   0.026   5.153   1.835 -0.2363  0.3239  0.5336
 1585TIP3    H126170  -0.039   5.215   1.803 -1.1608 -1.1135 -0.4744
 1585TIP3    H226171   0.069   5.119   1.756  0.8659  0.3190  1.1142
 1586TIP3   OH226172   1.193   1.359  10.908 -0.2048 -0.3700 -0.0314
 1586TIP3    H126173   1.268   1.419  10.899 -0.4951 -0.0803 -0.5539
 1586TIP3    H226174   1.133   1.386  10.839 -1.6577  0.6325  1.5519
 1587TIP3   OH226175   0.330   6.021  12.210 -0.5140 -0.3464  0.2043
 1587TIP3    H126176   0.264   5.953  12.197  0.3078 -0.7503 -2.3636
 1587TIP3    H226177   0.405   5.992  12.158  0.4364  1.7781  0.2897
 1588TIP3   OH226178   1.357   2.138   2.429  0.0558 -0.1891  0.2260
 1588TIP3    H126179   1.429   2.128   2.492  0.1358 -1.0714  0.0115
 1588TIP3    H226180   1.279   2.112   2.478  0.0570 -0.4445  0.0928
 1589TIP3   OH226181   0.863   6.748   2.141  0.6551  0.1045 -0.1052
 1589TIP3    H126182   0.952   6.783   2.145  1.5279 -1.9695  0.2686
 1589TIP3    H226183   0.868   6.678   2.076 -0.9082  0.4224 -0.6095
 1590TIP3   OH226184   5.766   3.291   1.229  0.1435  0.6127  0.7264
 1590TIP3    H126185   5.778   3.230   1.302 -1.1902  0.1118  0.5403
 1590TIP3    H226186   5.802   3.245   1.154 -0.2555  0.3220  0.7103
 1591TIP3   OH226187   2.963   6.654  15.479 -0.4698 -0.1997  0.4175
 1591TIP3    H126188   2.929   6.567  15.458  0.4383 -1.2925  3.0895
 1591TIP3    H226189   3.057   6.646  15.466 -0.2266 -0.0591  1.9104
 1592TIP3   OH226190   5.326   2.420   4.822  0.4262 -0.0531 -0.3504
 1592TIP3    H126191   5.376   2.443   4.744 -0.2453 -1.7373 -1.3146
 1592TIP3    H226192   5.372   2.344   4.858  0.0033 -0.0531  0.1950
 1593TIP3   OH226193   1.087   3.240   1.460 -0.0936  0.2927 -0.1588
 1593TIP3    H126194   1.076   3.324   1.505 -1.3932 -0.0828  0.2572
 1593TIP3    H226195   1.150   3.258   1.390  0.8915  1.2239  0.9292
 1594TIP3   OH226196   1.007   0.155   5.277 -0.5108 -0.0582  0.3724
 1594TIP3    H126197   0.922   0.117   5.297 -0.2952 -0.0977  1.2272
 1594TIP3    H226198   1.019   0.138   5.183 -2.0277  1.1243 -0.0727
 1595TIP3   OH226199   0.198   4.109  14.375  0.1561 -0.5361 -0.7049
 1595TIP3    H126200   0.160   4.058  14.303 -1.8816  1.0689 -0.8613
 1595TIP3    H226201   0.210   4.046  14.445 -0.8086 -1.5268 -1.4027
 1596TIP3   OH226202   1.836   6.400  16.642 -0.2038 -0.2501 -0.8220
 1596TIP3    H126203   1.869   6.379  16.555  0.0130  0.6425 -0.9647
 1596TIP3    H226204   1.814   6.315  16.680  0.0628 -0.6805 -1.5983
 1597TIP3   OH226205   2.670   4.884  16.049  0.0071 -0.1356  0.1378
 1597TIP3    H126206   2.598   4.938  16.083 -0.5206 -1.2170  0.7991
 1597TIP3    H226207   2.724   4.945  15.998 -1.4260  0.6679 -0.4543
 1598TIP3   OH226208   3.622   3.142   1.764 -0.3467  0.3245 -0.0867
 1598TIP3    H126209   3.705   3.103   1.792  0.3535  0.6633 -1.5739
 1598TIP3    H226210   3.608   3.215   1.825  0.2281  0.0132  0.4310
 1599TIP3   OH226211   1.820   3.852   0.464  0.3119 -0.1896  0.2302
 1599TIP3    H126212   1.786   3.941   0.467 -1.2676 -0.6536 -1.9683
 1599TIP3    H226213   1.895   3.857   0.404 -0.0980 -0.4293 -0.3045
 1600TIP3   OH226214   6.048   5.530   3.216  0.2287 -0.2245 -0.0597
 1600TIP3    H126215   5.995   5.610   3.218 -0.3818 -0.6110 -0.3585
 1600TIP3    H226216   5.994   5.468   3.167  0.7179 -0.8054  0.1367
 1601TIP3   OH226217   2.459   2.283   0.802  0.0607 -0.1555  0.0670
 1601TIP3    H126218   2.464   2.219   0.873 -0.6562 -1.2778 -0.8621
 1601TIP3    H226219   2.407   2.354   0.838 -0.2327 -0.6760  0.6917
 1602TIP3   OH226220   6.325   2.393   2.942  0.4299  0.2014 -0.1261
 1602TIP3    H126221   6.346   2.353   2.858 -0.6957 -0.4022 -0.1361
 1602TIP3    H226222   6.363   2.481   2.937  1.4510 -0.2669 -0.7630
 1603TIP3   OH226223   3.502   2.377  10.603  0.2613  0.2678  0.0232
 1603TIP3    H126224   3.571   2.428  10.646 -0.5882  0.0743  1.6995
 1603TIP3    H226225   3.545   2.338  10.527  2.3530 -0.8196  1.6626
 1604TIP3   OH226226   2.490   0.559  12.120  0.4127  0.3854 -0.0909
 1604TIP3    H126227   2.458   0.469  12.115  2.3750 -0.3790  0.0840
 1604TIP3    H226228   2.486   0.581  12.213  2.3642 -0.5308  0.2622
 1605TIP3   OH226229   6.137   2.835  10.909  0.0487 -0.0911  0.2253
 1605TIP3    H126230   6.067   2.798  10.855  0.2513  0.8138 -0.6882
 1605TIP3    H226231   6.195   2.761  10.926 -2.2267 -1.4147  2.9273
 1606TIP3   OH226232   5.636   1.083  14.292  0.3892  0.2899  0.0167
 1606TIP3    H126233   5.585   1.085  14.373  0.5038  1.1934  0.0737
 1606TIP3    H226234   5.594   1.147  14.235  0.9303  0.4091 -0.2574
 1607TIP3   OH226235   1.201   5.109   1.340 -0.3214  0.5011 -0.3150
 1607TIP3    H126236   1.265   5.103   1.269  2.2477  1.0773  1.8070
 1607TIP3    H226237   1.135   5.043   1.317  2.5026 -2.2570 -1.2508
 1608TIP3   OH226238   6.277   4.162   4.388 -0.3835 -0.3208 -0.2091
 1608TIP3    H126239   6.308   4.141   4.476  2.1083 -0.1285 -0.9763
 1608TIP3    H226240   6.233   4.247   4.398 -1.0559 -0.7839  1.0030
 1609TIP3   OH226241   4.124   2.628  16.366 -0.2933 -0.0724  0.0770
 1609TIP3    H126242   4.107   2.670  16.450 -0.4588 -0.5851  0.3034
 1609TIP3    H226243   4.041   2.637  16.317 -0.0289  0.6874 -0.2342
 1610TIP3   OH226244   4.676   5.839  13.457  0.2546  0.0273 -0.2458
 1610TIP3    H126245   4.758   5.808  13.495 -0.1549  1.1465  1.7226
 1610TIP3    H226246   4.676   5.806  13.368  2.0805 -1.3791  0.2187
 1611TIP3   OH226247   4.197   1.008   2.513 -1.3037 -0.0121 -0.2828
 1611TIP3    H126248   4.243   1.028   2.432 -0.1879 -0.3833  0.2275
 1611TIP3    H226249   4.125   1.070   2.517 -0.3425  1.1644 -0.7076
 1612TIP3   OH226250   0.084   0.781  17.089 -0.0367  0.0631 -0.0407
 1612TIP3    H126251   0.174   0.747  17.083  0.0750  0.1046  1.1855
 1612TIP3    H226252   0.043   0.752  17.008  0.7792 -0.8796 -0.1442
 1613TIP3   OH226253   3.020   1.201   0.496 -0.3919 -0.5666  0.5261
 1613TIP3    H126254   2.989   1.138   0.431  3.6817 -2.6118  0.1775
 1613TIP3    H226255   3.071   1.147   0.558  1.8309  2.1442  1.2509
 1614TIP3   OH226256   6.020   5.283   3.451 -0.4848 -0.0321 -0.2699
 1614TIP3    H126257   6.027   5.374   3.421 -0.3472 -0.5055 -1.7682
 1614TIP3    H226258   5.960   5.287   3.525  1.1415  1.5556  1.0726
 1615TIP3   OH226259   3.938   5.601  12.562 -0.3525 -0.4882 -0.2959
 1615TIP3    H126260   3.955   5.653  12.641 -0.4009 -1.3865  0.3230
 1615TIP3    H226261   4.024   5.585  12.525 -0.4706  1.9580 -1.7933
 1616TIP3   OH226262   3.318   1.340  13.032  0.8170 -0.4077  0.1919
 1616TIP3    H126263   3.332   1.409  12.967 -1.2166 -0.3100 -0.2085
 1616TIP3    H226264   3.377   1.270  13.005 -1.0676 -1.0376 -2.8462
 1617TIP3   OH226265   2.222   2.932  16.105 -0.4782 -0.1040 -0.1754
 1617TIP3    H126266   2.215   2.837  16.115  0.8161 -0.2027  0.0438
 1617TIP3    H226267   2.257   2.962  16.190 -1.2920  0.6256 -0.0873
 1618TIP3   OH226268   5.407   5.945  11.429 -0.0419 -0.8547 -0.0715
 1618TIP3    H126269   5.485   5.965  11.378  0.2529  0.6137  0.9130
 1618TIP3    H226270   5.436   5.878  11.492  0.1846 -0.9562 -0.2820
 1619TIP3   OH226271   4.073   5.967   3.723 -0.7049  0.3071 -0.4273
 1619TIP3    H126272   3.983   5.966   3.689 -0.7945 -1.1546 -0.2182
 1619TIP3    H226273   4.085   5.880   3.760  1.1601  0.1020 -1.3978
 1620TIP3   OH226274   0.831   4.409   1.768 -0.0851  0.0433 -0.5472
 1620TIP3    H126275   0.756   4.383   1.821 -0.4586  0.9301 -0.6280
 1620TIP3    H226276   0.854   4.496   1.799  0.4002  0.1134 -1.0776
 1621TIP3   OH226277   1.461   6.580   5.672 -0.1256 -0.7505 -0.1643
 1621TIP3    H126278   1.499   6.621   5.595 -0.4618 -0.4802 -0.1895
 1621TIP3    H226279   1.479   6.641   5.744 -0.6163 -0.5556 -0.2007
 1622TIP3   OH226280   1.020   5.655   0.100  0.2155  0.0186 -0.1298
 1622TIP3    H126281   1.097   5.709   0.117 -0.7628  1.2009  0.6845
 1622TIP3    H226282   1.011   5.600   0.178  0.2977 -0.2099 -0.2791
 1623TIP3   OH226283   2.884   1.917   1.947  0.0643  0.5419  0.8377
 1623TIP3    H126284   2.843   1.883   2.026  0.5507  0.1863  0.9377
 1623TIP3    H226285   2.975   1.934   1.972  0.6163 -0.9694 -0.0255
 1624TIP3   OH226286   5.773   3.033   2.333  0.4907  0.1601  0.2028
 1624TIP3    H126287   5.685   3.018   2.369  0.3919  0.7816  0.2437
 1624TIP3    H226288   5.832   3.014   2.405  0.2819  1.6155  0.8012
 1625TIP3   OH226289   3.008   3.743   2.351  0.1089 -0.2812  0.1447
 1625TIP3    H126290   2.947   3.770   2.282  0.8150  0.7276 -0.1158
 1625TIP3    H226291   3.038   3.825   2.389  1.3854 -0.7453  0.1915
 1626TIP3   OH226292   6.180   6.556  14.790 -0.4681  0.4754 -0.2021
 1626TIP3    H126293   6.206   6.488  14.728 -1.1222 -0.3225  0.3883
 1626TIP3    H226294   6.088   6.575  14.768 -0.5235  0.6139  0.1464
 1627TIP3   OH226295   2.788   5.787  11.154  0.4888  0.1049  0.1599
 1627TIP3    H126296   2.832   5.729  11.216  0.5755 -0.7000 -0.6366
 1627TIP3    H226297   2.756   5.729  11.084  1.3811  1.1065 -1.1354
 1628TIP3   OH226298   4.710   3.211   1.459  0.0836 -0.1331  0.1373
 1628TIP3    H126299   4.706   3.159   1.378  2.2983 -0.0115 -0.1054
 1628TIP3    H226300   4.719   3.301   1.429  0.8775 -0.0849  0.4917
 1629TIP3   OH226301   5.047   0.627   4.472 -0.6421  0.1757  0.0435
 1629TIP3    H126302   5.048   0.535   4.498  2.4978 -0.5027 -1.9510
 1629TIP3    H226303   4.966   0.661   4.508 -0.8685 -2.7952  2.7584
 1630TIP3   OH226304   1.655   0.549  16.691 -0.0607  0.3501  0.5586
 1630TIP3    H126305   1.612   0.529  16.608  0.7536  0.6613  0.0527
 1630TIP3    H226306   1.747   0.525  16.678  0.6579  2.8704  0.4253
 1631TIP3   OH226307   6.598   2.610  12.405 -0.3107 -0.0636  0.2301
 1631TIP3    H126308   6.570   2.576  12.490 -0.5422 -1.0000 -0.2041
 1631TIP3    H226309   6.517   2.637  12.363 -0.0791  1.5238  0.7637
 1632TIP3   OH226310   1.873   4.017  11.744  1.0624 -0.1956  0.1730
 1632TIP3    H126311   1.968   4.029  11.742  0.9056  1.3184 -1.7824
 1632TIP3    H226312   1.838   4.107  11.741 -0.4689 -0.6469  2.3447
 1633TIP3   OH226313   4.061   3.097   1.942  0.8006 -0.3150  0.0883
 1633TIP3    H126314   4.091   3.073   2.030  1.0613  1.1577  0.4227
 1633TIP3    H226315   4.061   3.192   1.942 -0.1640 -0.2917 -1.1962
 1634TIP3   OH226316   1.060   1.730   3.635 -0.6833  0.3770 -0.3777
 1634TIP3    H126317   1.061   1.635   3.644 -0.7596  0.4536  0.4728
 1634TIP3    H226318   1.121   1.761   3.701  0.7639  0.8403 -1.8652
 1635TIP3   OH226319   6.271   4.091   5.597  0.0506 -0.1210 -0.3208
 1635TIP3    H126320   6.300   4.160   5.538 -0.5912  0.1262 -0.3543
 1635TIP3    H226321   6.288   4.010   5.549 -0.6462  0.0848 -0.9436
 1636TIP3   OH226322   1.572   1.997  13.696  0.4209 -0.0796 -0.6337
 1636TIP3    H126323   1.570   2.000  13.600 -0.7516  1.3274 -0.5927
 1636TIP3    H226324   1.620   2.075  13.721  0.0284 -0.0189 -0.0604
 1637TIP3   OH226325   1.671   1.631   0.767 -0.0413 -0.3079  0.4961
 1637TIP3    H126326   1.667   1.626   0.863 -0.0482 -2.5342  0.4187
 1637TIP3    H226327   1.602   1.694   0.744 -0.6804 -0.4447  1.8991
 1638TIP3   OH226328   3.194   0.370  13.078 -0.3057 -0.0500  0.0386
 1638TIP3    H126329   3.281   0.335  13.097 -0.1629  0.2918  0.0271
 1638TIP3    H226330   3.152   0.302  13.026  0.2837  0.1564 -0.7455
 1639TIP3   OH226331   2.410   2.889  14.483  0.4099  0.5824 -0.0289
 1639TIP3    H126332   2.331   2.848  14.445  0.9790  1.4374 -2.2945
 1639TIP3    H226333   2.405   2.868  14.576 -1.1208 -1.6460 -0.5276
 1640TIP3   OH226334   0.094   3.345   2.657 -0.0621  0.1788 -0.2336
 1640TIP3    H126335   0.075   3.394   2.577  0.3391  0.4677 -0.1517
 1640TIP3    H226336   0.104   3.254   2.627  0.0039  0.2723 -0.4986
 1641TIP3   OH226337   4.426   3.580  16.419  0.4659 -0.0220  0.1585
 1641TIP3    H126338   4.381   3.501  16.450 -1.6426  1.3229  0.8030
 1641TIP3    H226339   4.451   3.626  16.498  1.3170  0.1673 -0.2097
 1642TIP3   OH226340   3.057   2.583  12.782 -0.6600  0.4304 -0.0502
 1642TIP3    H126341   3.072   2.672  12.814 -1.1253  0.4513  0.1193
 1642TIP3    H226342   3.088   2.527  12.853 -0.7951  0.4634  0.0343
 1643TIP3   OH226343   5.463   1.999   0.975 -0.1994  0.2687  0.5547
 1643TIP3    H126344   5.461   1.927   1.038 -3.4923  0.0931  0.4168
 1643TIP3    H226345   5.465   1.957   0.889  0.0250  0.3897  0.5007
 1644TIP3   OH226346   1.021   5.290   2.336  0.2593 -0.3425  0.2279
 1644TIP3    H126347   1.046   5.369   2.382 -0.5972  0.6143 -0.8905
 1644TIP3    H226348   0.927   5.281   2.353  0.4553 -1.4488  0.8101
 1645TIP3   OH226349   6.064   1.277  15.459 -0.6504 -0.3376  0.6979
 1645TIP3    H126350   6.083   1.185  15.443 -0.3131 -0.2257  0.4578
 1645TIP3    H226351   6.148   1.316  15.481 -0.6890  0.0469  0.1670
 1646TIP3   OH226352   4.333   2.635  10.927  0.0545  0.3834  0.0136
 1646TIP3    H126353   4.321   2.666  11.017  1.4580  0.1664  0.3010
 1646TIP3    H226354   4.369   2.710  10.880  0.3981  0.1669 -0.0760
 1647TIP3   OH226355   0.816   5.302  16.595 -0.2334  0.1564  0.0146
 1647TIP3    H126356   0.815   5.276  16.687  1.6047  0.2371  0.1084
 1647TIP3    H226357   0.825   5.220  16.547  1.2694  0.2501  0.0769
 1648TIP3   OH226358   4.486   2.143   3.762 -0.2070  0.0530  0.1389
 1648TIP3    H126359   4.441   2.202   3.701 -0.2013  0.9232  0.9466
 1648TIP3    H226360   4.559   2.196   3.796  1.4171 -1.2862 -1.0703
 1649TIP3   OH226361   3.159   3.770  13.699 -0.5012  0.9377  0.1932
 1649TIP3    H126362   3.083   3.728  13.739  0.0211  1.6290  2.0629
 1649TIP3    H226363   3.177   3.845  13.757  2.0575  0.3452  0.2851
 1650TIP3   OH226364   5.146   6.441  14.542 -0.3386  0.5109  0.0242
 1650TIP3    H126365   5.098   6.515  14.580  0.3094  0.4601  0.9963
 1650TIP3    H226366   5.206   6.481  14.480 -1.3597  0.6059 -0.9257
 1651TIP3   OH226367   1.206   3.315  14.149 -0.3841 -0.2714  0.1715
 1651TIP3    H126368   1.182   3.339  14.238 -1.5660 -1.9689  0.3378
 1651TIP3    H226369   1.189   3.221  14.143 -1.1068 -0.0510 -2.0779
 1652TIP3   OH226370   3.449   3.021   5.831  0.5420  0.3065  1.1777
 1652TIP3    H126371   3.420   3.041   5.920 -3.1906  0.0542  0.1994
 1652TIP3    H226372   3.438   2.926   5.824  1.2394  0.2646  0.5618
 1653TIP3   OH226373   2.806   6.089  17.054 -0.0516  0.0943 -0.0570
 1653TIP3    H126374   2.889   6.060  17.015 -0.2524  1.4830 -1.6449
 1653TIP3    H226375   2.743   6.022  17.029  0.5360 -0.9166  1.0670
 1654TIP3   OH226376   0.407   3.651   1.201 -0.4770  0.4209  0.2220
 1654TIP3    H126377   0.335   3.591   1.181 -0.9468  0.9414  0.3239
 1654TIP3    H226378   0.411   3.653   1.297  0.6100 -0.6985  0.2230
 1655TIP3   OH226379   4.963   2.993   2.882 -0.4689 -0.3623  0.1633
 1655TIP3    H126380   4.932   2.955   2.800 -2.3861  2.1984 -0.4359
 1655TIP3    H226381   4.896   3.058   2.905  0.5706 -0.2296  3.1989
 1656TIP3   OH226382   4.439   1.601   0.329  0.3590 -0.1777  0.2795
 1656TIP3    H126383   4.348   1.573   0.343  0.0665  0.6433  0.1080
 1656TIP3    H226384   4.437   1.644   0.243  0.2485  2.4350  1.4859
 1657TIP3   OH226385   4.428   6.505   5.988  0.5621 -0.6795 -0.0251
 1657TIP3    H126386   4.374   6.539   6.059 -1.6535 -1.0060 -1.4688
 1657TIP3    H226387   4.461   6.421   6.021 -0.2325 -0.7151  0.7196
 1658TIP3   OH226388   4.716   5.462  17.244 -0.0925 -0.7058  0.6619
 1658TIP3    H126389   4.741   5.543  17.200 -0.0509 -0.7286  0.6428
 1658TIP3    H226390   4.647   5.425  17.189  0.7681 -1.3280 -0.0376
 1659TIP3   OH226391   0.963   1.835   5.346 -0.2150 -0.6654  0.3475
 1659TIP3    H126392   1.032   1.900   5.339  0.2927 -0.9952  1.9760
 1659TIP3    H226393   0.899   1.874   5.406 -0.0156 -1.5625  1.1605
 1660TIP3   OH226394   3.644   0.751   4.380  0.9817 -0.6863 -0.0380
 1660TIP3    H126395   3.683   0.829   4.342 -1.8615  1.3274  0.8621
 1660TIP3    H226396   3.671   0.753   4.472  0.8761 -0.7385 -0.0060
 1661TIP3   OH226397   4.683   1.728  12.727  0.0104  0.2190 -0.5891
 1661TIP3    H126398   4.701   1.820  12.710 -0.3897  0.6791  1.2060
 1661TIP3    H226399   4.747   1.703  12.794 -0.1279 -0.7149 -0.7806
 1662TIP3   OH226400   1.569   6.310  14.232 -0.5086 -0.5951  0.6520
 1662TIP3    H126401   1.627   6.255  14.285  0.1446 -0.3601  0.2010
 1662TIP3    H226402   1.570   6.270  14.146  1.0458  0.8309 -0.0491
 1663TIP3   OH226403   0.247   2.781  14.312  0.5446 -0.3351 -0.4844
 1663TIP3    H126404   0.293   2.852  14.267 -0.7446  0.2978 -0.8655
 1663TIP3    H226405   0.190   2.744  14.245  1.2082 -1.7587 -0.2880
 1664TIP3   OH226406   0.697   4.196   0.652 -0.8488  0.0062 -0.2789
 1664TIP3    H126407   0.632   4.211   0.721 -1.6523  0.2747 -1.0692
 1664TIP3    H226408   0.693   4.275   0.598  0.5123  0.2439 -0.0565
 1665TIP3   OH226409   6.021   0.388   2.639  1.1298  0.1382  0.2666
 1665TIP3    H126410   5.991   0.430   2.558 -0.8856  0.9207  1.3337
 1665TIP3    H226411   5.944   0.389   2.695  2.6810  0.3257  2.4935
 1666TIP3   OH226412   2.103   4.261  12.629 -0.2540  0.6695 -0.4538
 1666TIP3    H126413   2.010   4.250  12.606  0.4704  0.6756 -3.8489
 1666TIP3    H226414   2.124   4.184  12.681 -1.8321 -0.0563 -0.8107
 1667TIP3   OH226415   2.308   1.564  11.370  0.7937  0.0824 -0.1913
 1667TIP3    H126416   2.351   1.645  11.400  1.6762 -0.0366 -1.0941
 1667TIP3    H226417   2.360   1.536  11.295  0.3499 -1.2049 -0.0352
 1668TIP3   OH226418   3.280   5.071   1.246  0.1587 -0.0035 -1.0146
 1668TIP3    H126419   3.223   4.996   1.231 -0.0982  0.2347 -1.2615
 1668TIP3    H226420   3.368   5.038   1.230 -0.0159 -0.0587 -1.9052
 1669TIP3   OH226421   0.279   2.399  13.930  0.2654  0.4488  0.3287
 1669TIP3    H126422   0.189   2.422  13.907  0.5791  0.4022 -1.0352
 1669TIP3    H226423   0.273   2.357  14.016 -1.1666 -0.7858 -0.3601
 1670TIP3   OH226424   4.025   3.914   6.018  0.2692 -0.5391  0.3086
 1670TIP3    H126425   3.993   3.915   6.108  0.3058 -0.6693  0.3233
 1670TIP3    H226426   4.089   3.843   6.016  0.0218 -0.7606  0.0955
 1671TIP3   OH226427   1.734   1.814   1.209  0.7728 -0.2343 -0.6660
 1671TIP3    H126428   1.689   1.888   1.249  0.9855 -0.2194 -0.4503
 1671TIP3    H226429   1.694   1.804   1.123  1.8146  1.1269 -1.3358
 1672TIP3   OH226430   6.662   1.586  16.935 -0.4128 -0.0180 -0.0964
 1672TIP3    H126431   6.708   1.599  16.852  0.5424  0.6923  0.5139
 1672TIP3    H226432   6.641   1.675  16.965 -1.3597 -0.2924  0.1038
 1673TIP3   OH226433   4.672   5.235   0.406 -0.1451  0.6150  0.4053
 1673TIP3    H126434   4.664   5.324   0.371 -0.5306  0.9788  1.3731
 1673TIP3    H226435   4.684   5.248   0.500  0.9917 -0.3237  0.4099
 1674TIP3   OH226436   4.664   2.507   4.370 -0.1117  0.0466 -0.3154
 1674TIP3    H126437   4.602   2.578   4.386  0.1525  0.7433 -2.1607
 1674TIP3    H226438   4.750   2.550   4.369  0.0770 -0.3255 -1.1252
 1675TIP3   OH226439   4.353   6.093   0.837  0.9264  0.4936 -0.0908
 1675TIP3    H126440   4.442   6.128   0.841  1.5636 -0.8415 -1.5680
 1675TIP3    H226441   4.326   6.107   0.746 -0.5475  1.2411  0.4271
 1676TIP3   OH226442   6.222   5.640   3.653 -0.7107 -0.0825 -0.2107
 1676TIP3    H126443   6.193   5.549   3.654 -1.3520  0.0634 -1.7075
 1676TIP3    H226444   6.292   5.642   3.588 -0.8496  0.5243 -0.3510
 1677TIP3   OH226445   5.282   3.913  15.237 -0.1669  0.4403 -0.0175
 1677TIP3    H126446   5.261   3.820  15.230  1.2177  0.0738  0.3285
 1677TIP3    H226447   5.373   3.919  15.207 -0.6872  1.9064 -1.4137
 1678TIP3   OH226448   4.501   1.207  10.567 -0.2091  0.6562 -0.4065
 1678TIP3    H126449   4.523   1.270  10.498 -0.6190  0.8503 -0.3659
 1678TIP3    H226450   4.418   1.168  10.538 -0.2865  0.6058 -0.1148
 1679TIP3   OH226451   3.113   5.451  14.627 -0.1301 -0.3883 -0.4571
 1679TIP3    H126452   3.135   5.495  14.710 -2.0535  1.1805 -0.7173
 1679TIP3    H226453   3.056   5.379  14.652  2.0167 -2.0871 -0.1557
 1680TIP3   OH226454   0.902   6.065   4.013 -0.0686 -0.2891  0.6410
 1680TIP3    H126455   0.865   5.994   4.065  0.8383  0.2112  2.0106
 1680TIP3    H226456   0.834   6.084   3.948 -0.0050 -2.9496 -0.3343
 1681TIP3   OH226457   3.507   0.620  14.632  0.1719 -0.4595  0.2251
 1681TIP3    H126458   3.571   0.550  14.647  0.6459  0.4445  2.9145
 1681TIP3    H226459   3.495   0.661  14.718 -2.4675  0.7736 -0.6238
 1682TIP3   OH226460   6.354   5.460  15.534 -0.5000 -0.6364 -0.1078
 1682TIP3    H126461   6.371   5.552  15.514 -0.1085 -0.6801  0.0283
 1682TIP3    H226462   6.419   5.436  15.599 -0.4146 -1.0920 -0.3507
 1683TIP3   OH226463   3.762   6.253   5.500  0.5301 -0.0893  0.8649
 1683TIP3    H126464   3.708   6.186   5.543 -0.6238  0.1927 -0.0894
 1683TIP3    H226465   3.720   6.336   5.525  1.0264  0.1838  0.7934
 1684TIP3   OH226466   1.119   5.424  15.568 -0.1569  0.3725 -0.4300
 1684TIP3    H126467   1.067   5.406  15.646  1.2011  1.5096  0.7910
 1684TIP3    H226468   1.126   5.340  15.523 -0.1563 -0.5244  1.1892
 1685TIP3   OH226469   6.081   5.097  16.063  0.2883  0.5611 -0.4611
 1685TIP3    H126470   6.034   5.146  16.131  1.6436 -0.0405  0.9817
 1685TIP3    H226471   6.167   5.139  16.060  1.4458 -1.5615  0.7253
 1686TIP3   OH226472   4.567   6.409  14.966 -0.3682 -0.3420  0.1387
 1686TIP3    H126473   4.659   6.424  14.948 -0.4453  1.1900  0.8289
 1686TIP3    H226474   4.526   6.402  14.879  0.4281 -1.4272 -0.1664
 1687TIP3   OH226475   0.454   4.688  13.676  0.0212 -0.1343  0.5885
 1687TIP3    H126476   0.408   4.698  13.760  0.1353 -2.7290  1.0505
 1687TIP3    H226477   0.531   4.744  13.684  0.9026 -1.5318  2.9594
 1688TIP3   OH226478   2.241   6.056  14.070  0.4231 -0.1245  0.1180
 1688TIP3    H126479   2.333   6.042  14.049  0.4497 -0.4085  0.4253
 1688TIP3    H226480   2.242   6.126  14.137  0.3402  0.7543 -0.7727
 1689TIP3   OH226481   6.171   3.024   4.652  0.7012 -0.5597 -0.1470
 1689TIP3    H126482   6.208   2.940   4.681  4.0490  1.3252  1.6389
 1689TIP3    H226483   6.090   3.034   4.702 -0.3001 -3.0411 -1.1024
 1690TIP3   OH226484   5.143   5.622  11.676 -0.0901  0.4926 -0.2904
 1690TIP3    H126485   5.096   5.704  11.657  0.2511  0.5443 -0.9538
 1690TIP3    H226486   5.185   5.600  11.593  1.6935  0.8696  0.4741
 1691TIP3   OH226487   5.349   2.626   3.002 -0.4243 -0.0832 -0.3306
 1691TIP3    H126488   5.424   2.630   3.062  1.0701 -3.4824 -1.6947
 1691TIP3    H226489   5.356   2.704   2.948  0.9873  0.6470  0.8598
 1692TIP3   OH226490   4.183   2.089  15.579 -0.1430 -0.3312 -0.5248
 1692TIP3    H126491   4.176   1.999  15.609 -0.6593 -0.2208 -0.2992
 1692TIP3    H226492   4.179   2.141  15.659  0.4085 -0.1167 -0.6303
 1693TIP3   OH226493   1.568   1.351   0.163  0.2274  0.4578  0.1670
 1693TIP3    H126494   1.534   1.441   0.169 -0.3043  0.2782 -0.1259
 1693TIP3    H226495   1.526   1.305   0.235 -1.5517 -0.2065 -1.2247
 1694TIP3   OH226496   2.882   0.007  13.591 -0.1835  0.3211  0.7872
 1694TIP3    H126497   2.899   0.072  13.523  0.0249  1.1200  1.5876
 1694TIP3    H226498   2.823  -0.057  13.549  1.8437 -0.5510 -0.8961
 1695TIP3   OH226499   2.796   1.694   1.577  0.2459 -0.1859  0.0616
 1695TIP3    H126500   2.858   1.625   1.600  0.1550  0.1357  1.3748
 1695TIP3    H226501   2.726   1.649   1.531  1.2717 -0.6017 -1.1491
 1696TIP3   OH226502   0.021   0.155   4.587 -0.1770 -0.3536  0.6452
 1696TIP3    H126503   0.115   0.142   4.596  0.1129  1.6941  0.9501
 1696TIP3    H226504  -0.010   0.164   4.677 -0.2732  1.2559  0.4792
 1697TIP3   OH226505   1.704   3.312   4.782  0.1701  0.0358  0.2827
 1697TIP3    H126506   1.702   3.324   4.687  1.8844 -0.9337  0.0960
 1697TIP3    H226507   1.640   3.242   4.799  2.1540 -2.1103 -0.5898
 1698TIP3   OH226508   3.705   4.797   4.099  0.5059  0.1583 -0.5242
 1698TIP3    H126509   3.770   4.727   4.104  0.2472 -0.0638 -0.0893
 1698TIP3    H226510   3.723   4.852   4.175  0.5635  0.4309 -0.7374
 1699TIP3   OH226511   2.483   3.915  13.789  0.4190 -0.1718 -0.5522
 1699TIP3    H126512   2.561   3.970  13.798  1.7785 -1.3016 -3.7889
 1699TIP3    H226513   2.508   3.831  13.827 -0.0589  0.1015  0.3933
 1700TIP3   OH226514   6.019   3.231  12.602 -0.1269  0.0349  0.0425
 1700TIP3    H126515   6.104   3.225  12.646 -0.6965 -1.0616  1.0405
 1700TIP3    H226516   5.956   3.242  12.673 -0.9605 -0.7002 -0.5666
 1701TIP3   OH226517   5.776   1.088  16.430 -0.6698  0.0680  0.4307
 1701TIP3    H126518   5.688   1.090  16.466 -0.8699  0.1436 -0.0502
 1701TIP3    H226519   5.829   1.139  16.491 -0.8647 -0.3577  0.9611
 1702TIP3   OH226520   2.978   4.608   0.587 -0.0406  0.0091 -0.0210
 1702TIP3    H126521   3.064   4.623   0.627  0.1946  0.2866 -0.6337
 1702TIP3    H226522   2.998   4.578   0.498 -0.5235 -2.0675  0.5060
 1703TIP3   OH226523   4.982   1.633   5.050  0.0535 -0.0603  0.0635
 1703TIP3    H126524   4.891   1.656   5.031  0.0942  0.6754  0.7217
 1703TIP3    H226525   4.993   1.652   5.143  0.1631 -2.5569  0.6352
 1704TIP3   OH226526   4.085   1.020   3.648  0.2470  0.1489  0.1299
 1704TIP3    H126527   4.014   1.010   3.710 -0.4919  2.1999 -0.2953
 1704TIP3    H226528   4.110   1.113   3.655  2.6052 -0.4179 -0.0240
 1705TIP3   OH226529   1.723   4.308  14.853  0.1442  0.1263 -0.5433
 1705TIP3    H126530   1.668   4.333  14.779  0.9447  0.4220 -1.0507
 1705TIP3    H226531   1.667   4.321  14.930 -0.6015  0.0812 -1.0708
 1706TIP3   OH226532   5.762   2.483  14.228 -0.8250  0.0885 -0.0131
 1706TIP3    H126533   5.778   2.538  14.306  0.0633 -2.4189  1.6937
 1706TIP3    H226534   5.671   2.456  14.237 -1.9735  2.8569 -2.0298
 1707TIP3   OH226535   1.525   2.372   0.967  0.3018  0.0489  0.3068
 1707TIP3    H126536   1.618   2.354   0.955  0.4606  1.0121  0.0088
 1707TIP3    H226537   1.520   2.425   1.047  0.2135  1.5071 -0.6309
 1708TIP3   OH226538   2.299   0.551  12.605 -0.3621 -0.4582  0.3510
 1708TIP3    H126539   2.321   0.467  12.565 -1.2352 -0.4148 -0.2520
 1708TIP3    H226540   2.310   0.536  12.699  3.9584  0.0922  0.1478
 1709TIP3   OH226541   1.806   4.321  13.690 -0.1497 -0.6668 -0.0619
 1709TIP3    H126542   1.849   4.372  13.622  2.1338  0.5053  2.1245
 1709TIP3    H226543   1.730   4.373  13.715 -0.6176 -0.7768 -1.1887
 1710TIP3   OH226544   1.042   1.354  14.608  0.9667 -0.2033  0.4180
 1710TIP3    H126545   1.042   1.263  14.636  0.6164 -0.1845  0.4847
 1710TIP3    H226546   1.014   1.403  14.686  1.5194 -0.0011  0.4973
 1711TIP3   OH226547   1.876   2.838  10.829 -0.5714  0.1082 -0.0458
 1711TIP3    H126548   1.938   2.819  10.759 -1.8866 -0.2654 -1.1606
 1711TIP3    H226549   1.920   2.902  10.885  0.2128  1.0080 -1.6444
 1712TIP3   OH226550   5.754   5.260   4.843  0.0611 -0.1184  0.3400
 1712TIP3    H126551   5.818   5.332   4.847  1.1475 -1.0534  0.4115
 1712TIP3    H226552   5.790   5.193   4.901 -0.1820 -1.2896 -0.8052
 1713TIP3   OH226553   2.370   5.816   3.719 -0.3261 -0.2672  0.6904
 1713TIP3    H126554   2.439   5.808   3.654 -0.0314 -0.4938  1.0319
 1713TIP3    H226555   2.414   5.804   3.803 -0.6344  0.4334  0.9583
 1714TIP3   OH226556   4.668   5.354   5.292  0.1465  0.0727  0.4399
 1714TIP3    H126557   4.689   5.429   5.347 -0.7204  0.7534 -0.1215
 1714TIP3    H226558   4.735   5.353   5.224 -0.1373  0.6747  0.1416
 1715TIP3   OH226559   3.853   0.907  12.697  0.0341  0.1599 -0.2421
 1715TIP3    H126560   3.807   0.844  12.642 -0.9784 -0.7839  1.5835
 1715TIP3    H226561   3.790   0.928  12.766  1.0778  1.6643  0.2962
 1716TIP3   OH226562   1.269   1.615   1.137 -0.1736 -0.0437  0.3802
 1716TIP3    H126563   1.207   1.647   1.203  0.9281  1.1858  0.8591
 1716TIP3    H226564   1.216   1.560   1.080 -1.6892  0.8573  0.8483
 1717TIP3   OH226565   4.722   5.303   5.986  0.2138 -0.0602  0.8143
 1717TIP3    H126566   4.782   5.373   5.959  1.0721 -0.1153  2.4524
 1717TIP3    H226567   4.711   5.316   6.080 -1.6796 -0.5937  0.7001
 1718TIP3   OH226568   6.068   4.143  15.469 -0.0473 -0.1028  0.0742
 1718TIP3    H126569   6.090   4.066  15.418  0.7792  1.2322 -1.7107
 1718TIP3    H226570   6.148   4.164  15.517 -0.2099 -0.2283  0.4063
 1719TIP3   OH226571   5.696   1.483   0.954 -0.6179  0.5309 -0.8964
 1719TIP3    H126572   5.781   1.463   0.991 -0.5133  0.4413 -1.1863
 1719TIP3    H226573   5.664   1.400   0.918 -1.5036  0.2090  0.5649
 1720TIP3   OH226574   0.503   1.640   4.759  0.9399  0.2837  0.8152
 1720TIP3    H126575   0.578   1.621   4.704  0.8763 -0.0983  0.8537
 1720TIP3    H226576   0.511   1.579   4.832 -0.8128 -1.6354 -0.4803
 1721TIP3   OH226577   4.758   0.926  14.106  0.1729 -0.1741  0.3066
 1721TIP3    H126578   4.701   0.973  14.044  1.8582  0.9423 -0.4777
 1721TIP3    H226579   4.697   0.882  14.165 -1.5144  1.5619 -0.0237
 1722TIP3   OH226580   1.950   4.504  14.827 -0.0179 -0.2704 -0.7996
 1722TIP3    H126581   1.877   4.490  14.888 -0.5867  2.4336 -0.7611
 1722TIP3    H226582   2.028   4.499  14.882 -0.4539  0.9516 -0.0269
 1723TIP3   OH226583   5.011   0.374   4.512  0.4909 -0.6945 -0.4300
 1723TIP3    H126584   4.916   0.376   4.524  0.1834 -0.5213 -2.5522
 1723TIP3    H226585   5.035   0.282   4.522 -0.4618 -1.3450 -3.2690
 1724TIP3   OH226586   4.671   0.070  16.375 -0.0378  0.0781  0.1621
 1724TIP3    H126587   4.744   0.062  16.436 -1.7155  0.0965  2.2828
 1724TIP3    H226588   4.629   0.153  16.397 -1.2538 -0.3683 -0.3560
 1725TIP3   OH226589   2.904   2.149   4.959 -0.0332  0.3052 -0.1832
 1725TIP3    H126590   2.824   2.153   4.907 -0.4897 -1.0920  0.3584
 1725TIP3    H226591   2.951   2.072   4.926  0.1385 -0.0228  0.7751
 1726TIP3   OH226592   1.383   1.766  15.339 -0.3060 -0.0323  0.3490
 1726TIP3    H126593   1.386   1.671  15.350 -0.1661  0.0254  0.8246
 1726TIP3    H226594   1.362   1.779  15.247 -1.3276 -0.5291  0.5037
 1727TIP3   OH226595   5.665   1.407   5.711  0.0995 -0.1248  0.4054
 1727TIP3    H126596   5.687   1.485   5.660 -0.6117  1.3716  2.2841
 1727TIP3    H226597   5.677   1.334   5.649  0.4702  1.4640 -1.5016
 1728TIP3   OH226598   4.555   6.420  12.549  0.2487  0.5152  0.2722
 1728TIP3    H126599   4.493   6.354  12.579  0.4885 -0.8074 -1.8602
 1728TIP3    H226600   4.519   6.503  12.580 -1.9924 -0.2987  0.0778
 1729TIP3   OH226601   5.799   0.608   3.288 -0.0739 -0.2471 -0.0327
 1729TIP3    H126602   5.778   0.628   3.196  2.9501 -0.6045 -0.9116
 1729TIP3    H226603   5.891   0.633   3.297  0.1303 -1.6315  2.5000
 1730TIP3   OH226604   2.773   0.126  16.797 -0.4685  0.3678 -0.2394
 1730TIP3    H126605   2.820   0.049  16.766 -0.8140  0.5658 -1.3151
 1730TIP3    H226606   2.748   0.172  16.717  0.9155  2.3283  0.3733
 1731TIP3   OH226607   5.598   4.133  15.969 -0.7163 -0.3614  0.1174
 1731TIP3    H126608   5.604   4.153  16.063  3.4359 -3.9221  0.9284
 1731TIP3    H226609   5.663   4.190  15.929 -1.4456  0.1048 -0.4352
 1732TIP3   OH226610   5.319   5.731   4.012  0.5160  0.2730  0.0778
 1732TIP3    H126611   5.244   5.768   4.060  1.4705  2.1009  0.2516
 1732TIP3    H226612   5.359   5.670   4.074 -0.1545  0.1595  0.4110
 1733TIP3   OH226613   5.675   4.620   1.162  0.3161  0.0532 -0.3436
 1733TIP3    H126614   5.728   4.665   1.228 -0.3706  2.7033 -1.4803
 1733TIP3    H226615   5.623   4.690   1.121 -2.3799 -2.0909 -0.8313
 1734TIP3   OH226616   4.796   4.090  14.522  0.2385 -0.1670  0.5039
 1734TIP3    H126617   4.760   4.065  14.437  0.1698 -1.5060  0.9041
 1734TIP3    H226618   4.882   4.127  14.502 -0.3910  0.9482 -0.2586
 1735TIP3   OH226619   3.390   5.502   0.012  0.2234  1.5782 -0.0569
 1735TIP3    H126620   3.472   5.544  -0.015 -0.3859  2.0157 -1.2947
 1735TIP3    H226621   3.344   5.569   0.062 -0.0688  1.8892 -0.7247
 1736TIP3   OH226622   0.602   3.579   2.131  0.0505  0.1379 -0.0821
 1736TIP3    H126623   0.538   3.510   2.148 -0.2165  0.4503  0.2076
 1736TIP3    H226624   0.550   3.658   2.119  0.4109  0.5797  1.0990
 1737TIP3   OH226625   1.852   3.127  14.278  0.5887  0.1000 -0.4821
 1737TIP3    H126626   1.826   3.045  14.321  0.8620  0.4439  0.3712
 1737TIP3    H226627   1.927   3.103  14.225 -0.9841 -0.7668 -2.4470
 1738TIP3   OH226628   0.740   4.935   1.153 -0.1840 -0.4561  0.0126
 1738TIP3    H126629   0.794   5.000   1.107 -0.9455  0.0024 -0.2471
 1738TIP3    H226630   0.675   4.908   1.088 -0.4938 -0.7356  0.4342
 1739TIP3   OH226631   6.644   3.309   2.356  0.2855 -0.1324  0.0160
 1739TIP3    H126632   6.650   3.350   2.270 -0.6137  2.7313  1.1790
 1739TIP3    H226633   6.701   3.362   2.412 -0.8341 -0.5312  1.6199
 1740TIP3   OH226634   5.447   2.763  15.135 -1.0783  0.5604 -0.1447
 1740TIP3    H126635   5.402   2.801  15.210 -1.0534  0.9362 -0.3218
 1740TIP3    H226636   5.484   2.681  15.169 -0.1509  1.2404  0.5483
 1741TIP3   OH226637   3.449   4.111   1.618 -0.1419  0.1461  0.2939
 1741TIP3    H126638   3.495   4.028   1.607  1.1304  0.7248  1.0355
 1741TIP3    H226639   3.364   4.087   1.655  0.7097 -0.7495  1.7460
 1742TIP3   OH226640   2.130   5.222  11.692  0.1111 -0.3840 -0.2657
 1742TIP3    H126641   2.115   5.308  11.731  1.3186  1.2440 -3.0462
 1742TIP3    H226642   2.099   5.159  11.758  0.8100  2.0845  2.6478
 1743TIP3   OH226643   0.291   2.779  17.076  0.5832 -0.1664 -0.8242
 1743TIP3    H126644   0.327   2.866  17.062  0.5014 -0.0400 -0.2803
 1743TIP3    H226645   0.368   2.723  17.089  0.7300 -0.5551 -3.1194
 1744TIP3   OH226646   5.324   5.275  13.710 -0.4641  0.0508  0.0044
 1744TIP3    H126647   5.316   5.195  13.659 -0.2314 -1.1574  1.7513
 1744TIP3    H226648   5.236   5.311  13.714 -2.0274 -3.4161  4.1176
 1745TIP3   OH226649   5.164   5.827   1.147  0.1151  0.9510 -0.3150
 1745TIP3    H126650   5.206   5.749   1.186 -1.0738  0.9825  1.1196
 1745TIP3    H226651   5.127   5.795   1.064  1.4385  0.5178 -0.7680
 1746TIP3   OH226652   5.425   5.901   5.569  0.0624 -0.0609  0.0484
 1746TIP3    H126653   5.456   5.962   5.502  0.3062 -1.3377 -1.0426
 1746TIP3    H226654   5.439   5.947   5.651 -1.8797  2.2820 -0.8068
 1747TIP3   OH226655   2.203   5.655   3.456  0.2742 -0.4763  0.5356
 1747TIP3    H126656   2.157   5.734   3.426 -0.4150 -1.2971 -0.6702
 1747TIP3    H226657   2.283   5.688   3.496  0.1150  0.8296 -0.1599
 1748TIP3   OH226658   2.380   5.732  14.125 -0.4178 -0.3883 -0.7338
 1748TIP3    H126659   2.313   5.746  14.058  0.1184 -0.7187 -1.3616
 1748TIP3    H226660   2.452   5.690  14.077 -0.1874 -1.0054  0.1380
 1749TIP3   OH226661   2.178   0.393   1.703 -0.3381 -0.7465  0.0654
 1749TIP3    H126662   2.267   0.423   1.721 -0.0797 -0.5593 -1.4394
 1749TIP3    H226663   2.182   0.299   1.722  0.4500 -0.9241 -0.8658
 1750TIP3   OH226664   6.164   0.846  16.713  0.1394 -0.5655 -0.4515
 1750TIP3    H126665   6.215   0.839  16.793  0.1247 -2.0790 -0.5446
 1750TIP3    H226666   6.164   0.939  16.692  1.1179 -0.2979  0.6666
 1751TIP3   OH226667   4.196   6.328  16.202  0.0423  0.4777  0.5502
 1751TIP3    H126668   4.151   6.406  16.232 -0.4571  0.9047 -1.2074
 1751TIP3    H226669   4.136   6.256  16.222 -0.6757  0.8492 -0.2209
 1752TIP3   OH226670   4.245   5.269  13.250  0.5604 -0.1607  0.6515
 1752TIP3    H126671   4.212   5.182  13.227 -2.6862  0.4902  2.2689
 1752TIP3    H226672   4.210   5.326  13.182  0.0985  0.2694  1.2398
 1753TIP3   OH226673   5.932   0.320  15.130 -0.0267 -0.3295  0.2358
 1753TIP3    H126674   6.015   0.305  15.084  0.0370 -1.4503  0.6856
 1753TIP3    H226675   5.948   0.288  15.219 -0.1580  1.7872  1.0572
 1754TIP3   OH226676   5.978   2.968   5.473 -0.3089  0.2647  0.0827
 1754TIP3    H126677   5.902   2.980   5.416  0.3873  2.3616 -0.5073
 1754TIP3    H226678   5.970   2.878   5.506 -2.9606  0.3815 -0.0441
 1755TIP3   OH226679   0.563   3.833   2.010 -0.0931  0.2051  0.1789
 1755TIP3    H126680   0.657   3.827   2.031 -0.4968  1.6480  2.7122
 1755TIP3    H226681   0.561   3.881   1.927  1.4298 -0.8553 -0.5288
 1756TIP3   OH226682   4.998   1.297  13.997  0.3693 -0.0416 -0.3847
 1756TIP3    H126683   5.020   1.245  14.074  0.4158  1.3188  0.5496
 1756TIP3    H226684   4.976   1.232  13.930  0.1922 -1.2467  0.8020
 1757TIP3   OH226685   2.962   0.669  16.367  1.2863  0.8721  0.3501
 1757TIP3    H126686   2.964   0.646  16.460  2.0568 -3.7507 -0.5574
 1757TIP3    H226687   2.912   0.751  16.363  1.0902  1.1920  4.7480
 1758TIP3   OH226688   4.704   3.202  15.620 -0.1778  0.4078  0.1452
 1758TIP3    H126689   4.774   3.156  15.574  0.0722  1.5203 -0.6126
 1758TIP3    H226690   4.744   3.231  15.702 -0.1486 -0.1303  0.3262
 1759TIP3   OH226691   2.374   1.493  15.292  0.1571  0.6134 -0.1261
 1759TIP3    H126692   2.419   1.522  15.371  1.2233 -0.0680 -0.4502
 1759TIP3    H226693   2.379   1.567  15.232 -2.7298  2.0301  1.1844
 1760TIP3   OH226694   5.932   6.558   1.601 -0.2140 -0.2179  0.4206
 1760TIP3    H126695   5.915   6.573   1.508  2.4634  1.2047  0.0462
 1760TIP3    H226696   5.904   6.468   1.617  1.2336 -1.2923 -2.3413
 1761TIP3   OH226697   3.303   0.926   3.232 -0.2138 -0.0241 -0.1968
 1761TIP3    H126698   3.241   0.953   3.300  0.6376  3.0743 -0.4924
 1761TIP3    H226699   3.343   1.008   3.202  2.5975 -1.6898 -1.4186
 1762TIP3   OH226700   1.863   5.121  12.356 -0.1478 -0.4045 -0.6763
 1762TIP3    H126701   1.951   5.124  12.320 -0.0940  0.0053 -0.5199
 1762TIP3    H226702   1.848   5.210  12.391 -0.5326 -0.5352 -0.4979
 1763TIP3   OH226703   4.335   5.595  12.270  0.1214 -0.6114  0.2137
 1763TIP3    H126704   4.310   5.688  12.271  0.1083 -0.5896 -1.0090
 1763TIP3    H226705   4.261   5.551  12.312  0.9205  0.0826  2.4659
 1764TIP3   OH226706   0.870   5.271  14.909 -0.2961 -0.7829 -0.2715
 1764TIP3    H126707   0.904   5.229  14.830  1.0114  1.4456 -0.9660
 1764TIP3    H226708   0.775   5.269  14.898 -0.1272 -0.1669 -2.1119
 1765TIP3   OH226709   6.389   4.647   5.833  0.0944 -1.0685  0.1259
 1765TIP3    H126710   6.404   4.671   5.924 -1.4116 -0.6646  0.2982
 1765TIP3    H226711   6.335   4.568   5.838  0.8225 -1.6230 -0.4415
 1766TIP3   OH226712   4.241   5.271   0.514  0.0944  0.2570 -0.2955
 1766TIP3    H126713   4.218   5.205   0.580 -1.4923  0.2296 -0.8319
 1766TIP3    H226714   4.309   5.230   0.462 -0.5808 -0.8303 -0.3651
 1767TIP3   OH226715   0.211   1.283  15.388  0.4736 -0.1935 -0.1326
 1767TIP3    H126716   0.230   1.199  15.432 -0.4027 -0.3972 -0.1269
 1767TIP3    H226717   0.297   1.323  15.376  0.8649 -0.8630  0.3294
 1768TIP3   OH226718   2.400   5.331   3.158  0.2542 -0.4219  0.1945
 1768TIP3    H126719   2.391   5.240   3.127  1.7181 -0.6214  0.2866
 1768TIP3    H226720   2.326   5.343   3.218 -0.9507 -0.9802 -1.1071
 1769TIP3   OH226721   1.504   1.229  15.518 -0.4374 -0.2940 -0.1876
 1769TIP3    H126722   1.544   1.285  15.452 -0.0086  0.3347  0.6002
 1769TIP3    H226723   1.539   1.142  15.499  0.6480  0.0924 -0.0366
 1770TIP3   OH226724   6.306   5.253   2.103 -0.2626 -0.0526 -0.1459
 1770TIP3    H126725   6.355   5.239   2.184 -2.0541  1.1502  1.1952
 1770TIP3    H226726   6.297   5.165   2.065 -0.0236 -0.7388  1.3281
 1771TIP3   OH226727   3.612   5.014  10.668  0.0045  0.2695 -0.2087
 1771TIP3    H126728   3.611   5.042  10.577 -0.0725  1.0674  0.0305
 1771TIP3    H226729   3.692   4.963  10.677 -0.1890 -0.1540 -0.8184
 1772TIP3   OH226730   6.187   2.554   5.711  0.0537  0.8183  0.0836
 1772TIP3    H126731   6.192   2.460   5.694 -1.4210  0.9002 -1.1477
 1772TIP3    H226732   6.274   2.588   5.691  0.6675 -0.3016  0.7855
 1773TIP3   OH226733   6.720   1.793  13.932 -0.3754 -0.1964  0.7056
 1773TIP3    H126734   6.775   1.725  13.972  0.6916 -0.0614 -0.4534
 1773TIP3    H226735   6.700   1.759  13.845 -1.3373  0.1989  0.7633
 1774TIP3   OH226736   4.143   6.660   5.531 -0.0371  0.2037 -0.1592
 1774TIP3    H126737   4.149   6.595   5.601 -2.2567 -0.0365 -0.1270
 1774TIP3    H226738   4.233   6.672   5.501  0.6293 -1.5976  1.0049
 1775TIP3   OH226739   2.086   2.743  15.913 -0.3271  0.6353  0.7687
 1775TIP3    H126740   2.002   2.750  15.958  0.0130 -0.7667  1.6617
 1775TIP3    H226741   2.074   2.675  15.848 -0.2368  1.2929  0.0548
 1776TIP3   OH226742   5.690   0.807  11.433 -0.2050  0.0925 -0.1138
 1776TIP3    H126743   5.732   0.880  11.387  0.8402 -0.6159 -0.3331
 1776TIP3    H226744   5.698   0.830  11.526  2.2024 -0.7379 -0.0280
 1777TIP3   OH226745   1.427   6.476   3.742  0.0915 -0.2980 -0.4059
 1777TIP3    H126746   1.388   6.452   3.826 -1.9120 -0.7745 -1.4157
 1777TIP3    H226747   1.408   6.570   3.734  0.3073 -0.2463 -0.3226
 1778TIP3   OH226748   0.743   4.220  13.390  0.0650  0.1266  0.0439
 1778TIP3    H126749   0.755   4.286  13.323 -0.1751  2.0061  1.7547
 1778TIP3    H226750   0.830   4.182  13.403  0.0822 -0.3740 -1.3670
 1779TIP3   OH226751   3.694   2.653  15.484  0.1887 -0.1636 -0.4106
 1779TIP3    H126752   3.690   2.678  15.391  0.8221  0.7463 -0.2058
 1779TIP3    H226753   3.783   2.676  15.511 -0.3045  0.5544  0.6912
 1780TIP3   OH226754   6.309   5.496  14.208 -0.5241 -0.8344 -0.2945
 1780TIP3    H126755   6.220   5.488  14.174 -0.6171  0.9956 -0.5766
 1780TIP3    H226756   6.363   5.450  14.144 -1.0872 -0.4471 -1.0662
 1781TIP3   OH226757   4.501   4.500  16.040  0.0878  0.2297 -0.1022
 1781TIP3    H126758   4.502   4.559  16.115  1.2965  0.1609 -0.0431
 1781TIP3    H226759   4.436   4.537  15.981  0.3271  1.2359  0.2440
 1782TIP3   OH226760   0.530   5.672  14.337  0.1157  0.2446 -0.9877
 1782TIP3    H126761   0.571   5.670  14.250 -1.1119  0.7152 -1.6038
 1782TIP3    H226762   0.598   5.640  14.396  0.8857 -0.3597 -2.1565
 1783TIP3   OH226763   4.414   2.029   6.603 -0.3754 -0.1240  0.1438
 1783TIP3    H126764   4.372   1.983   6.531 -0.9911  1.3999 -0.5153
 1783TIP3    H226765   4.370   2.114   6.606  1.3044  0.7738  0.7237
 1784TIP3   OH226766   3.654   6.147   2.642 -0.0822 -0.0239  0.1217
 1784TIP3    H126767   3.710   6.175   2.569  0.6383 -1.5788  0.0367
 1784TIP3    H226768   3.714   6.103   2.702 -1.2653 -2.1674 -0.2042
 1785TIP3   OH226769   3.242   6.394  15.353 -0.5199 -0.0201  0.0675
 1785TIP3    H126770   3.192   6.460  15.304 -0.5142  0.3012  0.4852
 1785TIP3    H226771   3.333   6.415  15.334 -0.5294 -1.1975 -1.4712
 1786TIP3   OH226772   4.980   6.343  17.206  0.3723 -0.3557 -0.1990
 1786TIP3    H126773   4.932   6.299  17.136  0.1598  1.7077 -1.4346
 1786TIP3    H226774   5.072   6.330  17.184  0.3591 -1.4338  0.3047
 1787TIP3   OH226775   0.567   5.523  12.637 -0.5340 -0.3931  0.3058
 1787TIP3    H126776   0.533   5.575  12.710  1.7234  0.9814  0.4693
 1787TIP3    H226777   0.516   5.442  12.639 -1.8828  0.4422  2.1414
 1788TIP3   OH226778   1.798   3.037  14.793  0.2503 -0.0468 -0.4450
 1788TIP3    H126779   1.847   3.112  14.761 -0.4994  1.3482  1.4468
 1788TIP3    H226780   1.810   3.040  14.888 -0.1668 -2.0739 -0.2951
 1789TIP3   OH226781   4.585   1.618   2.451  0.4432  0.1453  1.3563
 1789TIP3    H126782   4.573   1.535   2.406 -0.1608 -0.2694  2.2532
 1789TIP3    H226783   4.672   1.648   2.424  0.3286 -0.3760  0.3983
 1790TIP3   OH226784   3.072   0.845   4.752  0.2606  0.1855 -0.5697
 1790TIP3    H126785   3.115   0.767   4.717 -0.7281  0.1745 -1.8277
 1790TIP3    H226786   2.994   0.812   4.796  0.8343  0.3214  0.5981
 1791TIP3   OH226787   4.804   3.821   4.186 -0.0866  0.7307  0.9468
 1791TIP3    H126788   4.865   3.894   4.196 -1.5503  1.8952  1.8488
 1791TIP3    H226789   4.771   3.830   4.096 -0.1454  1.0813  1.0035
 1792TIP3   OH226790   0.324   3.944  12.927 -0.0647 -0.0280 -0.0302
 1792TIP3    H126791   0.404   3.894  12.913  1.1582  1.9429 -0.5499
 1792TIP3    H226792   0.318   4.001  12.850 -2.0554 -0.2054 -0.0554
 1793TIP3   OH226793   1.667   5.317   4.217  0.3066 -0.8359  0.5312
 1793TIP3    H126794   1.747   5.343   4.262 -0.1092 -1.7216  1.8526
 1793TIP3    H226795   1.652   5.386   4.153  0.5045  0.9525  2.2863
 1794TIP3   OH226796   2.944   4.825  12.622  0.0762  0.1969  0.0939
 1794TIP3    H126797   2.890   4.764  12.573  0.7429 -0.8307  0.5934
 1794TIP3    H226798   2.898   4.908  12.616 -0.8188 -0.3322 -0.6661
 1795TIP3   OH226799   4.853   2.098  16.120 -0.3882  0.7002 -0.3335
 1795TIP3    H126800   4.787   2.074  16.055 -0.5597 -1.5177  0.5715
 1795TIP3    H226801   4.803   2.119  16.198 -0.0950 -0.6374  0.2475
 1796TIP3   OH226802   3.262   4.501  11.088 -0.8145  0.1400  0.4701
 1796TIP3    H126803   3.330   4.444  11.052 -0.7751 -0.4018  1.3562
 1796TIP3    H226804   3.201   4.514  11.016 -1.0606 -1.4266  0.3564
 1797TIP3   OH226805   2.515   4.324   0.620 -0.0190  0.1553  0.0377
 1797TIP3    H126806   2.577   4.392   0.593  0.7048 -0.5253 -0.0583
 1797TIP3    H226807   2.452   4.320   0.548 -0.6421  1.3863  0.4849
 1798TIP3   OH226808   1.814   3.597  12.497  0.6426 -0.8143  0.1709
 1798TIP3    H126809   1.720   3.589  12.480  0.1837  0.1759  1.9942
 1798TIP3    H226810   1.855   3.557  12.420 -1.2448 -3.7065  0.4841
 1799TIP3   OH226811   3.516   0.650  11.791  0.1232  0.1316  0.7310
 1799TIP3    H126812   3.607   0.633  11.764  0.4328  0.2933  1.6196
 1799TIP3    H226813   3.525   0.697  11.874 -0.7708  0.9739  0.3667
 1800TIP3   OH226814   0.726   3.923   4.581 -0.0300 -0.3341  0.0328
 1800TIP3    H126815   0.711   4.004   4.629 -0.7555 -1.6037  2.0643
 1800TIP3    H226816   0.670   3.930   4.504 -0.0037  1.1176  0.1210
 1801TIP3   OH226817   5.746   4.280  13.122 -0.2925  0.0736 -0.1076
 1801TIP3    H126818   5.774   4.190  13.108 -1.7931 -0.3199 -0.8572
 1801TIP3    H226819   5.746   4.319  13.034  0.5174  0.8769  0.2272
 1802TIP3   OH226820   1.816   0.326  15.645 -0.6484  0.0254 -0.0063
 1802TIP3    H126821   1.787   0.394  15.705 -0.4614  3.0309 -3.0673
 1802TIP3    H226822   1.910   0.341  15.635  0.0434 -2.6558  1.4312
 1803TIP3   OH226823   2.399   1.786  15.035 -0.7992  0.5509 -0.2460
 1803TIP3    H126824   2.466   1.815  15.096  1.0066  0.5942 -2.1293
 1803TIP3    H226825   2.442   1.716  14.985 -2.9876 -1.1068  0.0773
 1804TIP3   OH226826   5.096   1.889  14.180 -0.5404  0.2471 -0.2040
 1804TIP3    H126827   5.181   1.902  14.139 -0.4436  0.8372  0.1657
 1804TIP3    H226828   5.061   1.810  14.140  0.7981 -0.8285  0.6677
 1805TIP3   OH226829   1.955   3.650  11.997 -0.0576  0.4596 -1.0222
 1805TIP3    H126830   1.861   3.667  11.993 -0.1055  0.2494 -0.7911
 1805TIP3    H226831   1.996   3.733  11.970 -0.2609  1.3793  1.2803
 1806TIP3   OH226832   6.768   6.029   6.585  1.1386  0.2440  0.9647
 1806TIP3    H126833   6.684   6.034   6.631 -1.0685 -1.9402 -2.4075
 1806TIP3    H226834   6.803   5.942   6.607  2.0584  0.7364  1.5290
 1807TIP3   OH226835   4.815   3.626   1.123  0.0668  0.3875  0.0569
 1807TIP3    H126836   4.874   3.553   1.102 -0.9458 -0.1401 -1.1133
 1807TIP3    H226837   4.733   3.603   1.080 -1.0670  1.0207  1.7696
 1808TIP3   OH226838   5.285   1.807  13.437 -0.6670 -0.8192 -0.1949
 1808TIP3    H126839   5.214   1.750  13.406 -0.1992 -0.7676 -1.4020
 1808TIP3    H226840   5.352   1.802  13.369 -0.2566  0.5153  0.0802
 1809TIP3   OH226841   4.811   4.316  16.238 -0.2173  0.2145 -0.3863
 1809TIP3    H126842   4.796   4.405  16.271 -2.3662  0.1262 -0.9160
 1809TIP3    H226843   4.848   4.269  16.312 -0.5060  1.1849  0.4030
 1810TIP3   OH226844   4.507   2.336  10.203  0.3147 -0.0794  0.4310
 1810TIP3    H126845   4.416   2.310  10.184  0.2515 -0.2952  0.9995
 1810TIP3    H226846   4.560   2.275  10.152  0.1550 -0.9225  1.2503
 1811TIP3   OH226847   2.107   0.375   2.123  0.0721 -0.5624  0.7154
 1811TIP3    H126848   2.032   0.316   2.125 -0.1238 -0.3000  1.1758
 1811TIP3    H226849   2.182   0.317   2.107  0.4007 -1.5236  4.6181
 1812TIP3   OH226850   1.322   1.365   1.422 -0.4906  0.0559  0.2634
 1812TIP3    H126851   1.251   1.383   1.483 -0.3730 -0.0752  0.4409
 1812TIP3    H226852   1.287   1.390   1.336 -0.6159  0.3520  0.3976
 1813TIP3   OH226853   5.781   1.733   4.084  1.1043 -0.1510  0.1875
 1813TIP3    H126854   5.839   1.805   4.109  0.0711  0.7060  0.2089
 1813TIP3    H226855   5.707   1.776   4.042  0.4739 -1.2114  0.1782
 1814TIP3   OH226856   5.681   3.588  13.997  0.1160  0.5551 -0.0729
 1814TIP3    H126857   5.688   3.545  14.082  3.6574  2.0275  0.5583
 1814TIP3    H226858   5.588   3.606  13.986 -0.3778  1.3647  4.0730
 1815TIP3   OH226859   6.522   1.318   3.221  0.0626  0.2248 -0.1267
 1815TIP3    H126860   6.585   1.323   3.293  0.3027  0.2709 -0.3385
 1815TIP3    H226861   6.574   1.288   3.146  0.4513  2.8167 -0.9963
 1816TIP3   OH226862   6.721   4.194   5.922  0.5529  0.3818 -0.0093
 1816TIP3    H126863   6.644   4.250   5.916 -1.1361 -1.8286 -0.3920
 1816TIP3    H226864   6.757   4.192   5.833 -1.0708 -1.2691 -0.6961
 1817TIP3   OH226865   2.695   0.118   4.089  0.4163 -0.0891  0.0893
 1817TIP3    H126866   2.753   0.089   4.019 -0.7294 -0.9679 -0.5377
 1817TIP3    H226867   2.720   0.065   4.165  0.5295 -0.3525 -0.1321
 1818TIP3   OH226868   6.668   2.914   5.074  0.7096 -0.1001 -0.1710
 1818TIP3    H126869   6.594   2.925   5.133 -0.7064 -1.1715 -1.6953
 1818TIP3    H226870   6.745   2.933   5.129 -0.6726  1.5926  1.2951
 1819TIP3   OH226871   1.856   1.996  12.848  0.2648  0.3965  0.4433
 1819TIP3    H126872   1.947   2.013  12.872  0.3563  0.6176 -0.0596
 1819TIP3    H226873   1.805   2.033  12.921  0.5996 -0.4658  1.1258
 1820TIP3   OH226874   6.227   2.921  12.583  0.4507  0.0552  0.4625
 1820TIP3    H126875   6.253   2.841  12.630 -1.4736 -0.9962 -0.1428
 1820TIP3    H226876   6.244   2.992  12.644  0.2972 -1.0359  1.8267
 1821TIP3   OH226877   2.048   3.211   4.022 -0.0953  0.6934 -0.2027
 1821TIP3    H126878   1.982   3.278   4.038  0.3591  1.0253  0.3597
 1821TIP3    H226879   2.127   3.245   4.066  0.0818 -0.3013  0.2694
 1822TIP3   OH226880   3.747   1.443   5.159 -0.4718  0.4725  0.1879
 1822TIP3    H126881   3.805   1.393   5.101  2.4165  2.2159  1.3436
 1822TIP3    H226882   3.768   1.411   5.247 -1.6329  0.8668  0.6272
 1823TIP3   OH226883   0.283   6.035   1.441 -0.4970  0.1397  0.1127
 1823TIP3    H126884   0.310   6.047   1.532 -2.6530  1.6645  0.6262
 1823TIP3    H226885   0.349   6.081   1.390 -0.1999  0.7673  1.0426
 1824TIP3   OH226886   5.249   2.871   3.226  0.2795 -0.1836 -0.0574
 1824TIP3    H126887   5.259   2.944   3.165  0.1003 -1.6126 -1.9072
 1824TIP3    H226888   5.330   2.870   3.277  1.3161 -0.0995 -1.6449
 1825TIP3   OH226889   0.996   3.813   1.045  0.3448  0.2932 -0.3001
 1825TIP3    H126890   0.935   3.867   0.996  0.2528  0.1592 -0.3348
 1825TIP3    H226891   1.065   3.792   0.982 -0.3203 -0.7874 -0.7121
 1826TIP3   OH226892   1.955   2.398  16.484  0.2976 -0.4205 -0.7501
 1826TIP3    H126893   1.980   2.307  16.471  0.6598 -0.3461 -0.5792
 1826TIP3    H226894   1.952   2.436  16.396  1.0588 -0.3594 -0.7570
 1827TIP3   OH226895   6.191   3.417   1.647 -0.5007 -0.2984  0.5944
 1827TIP3    H126896   6.143   3.464   1.714 -0.2695  1.0955 -0.1730
 1827TIP3    H226897   6.272   3.467   1.637 -1.2731  0.5912 -1.9201
 1828TIP3   OH226898   4.973   4.740  13.355 -0.2939  0.9118  0.4035
 1828TIP3    H126899   4.982   4.747  13.450 -0.0663  3.5230  0.2661
 1828TIP3    H226900   4.952   4.648  13.339 -1.2131  0.5861  3.0390
 1829TIP3   OH226901   5.051   0.014  16.291  0.0605 -0.3687  0.1979
 1829TIP3    H126902   5.000   0.040  16.215  1.2381 -2.0328 -1.2589
 1829TIP3    H226903   4.997  -0.052  16.334  0.1389 -0.7139 -0.2245
 1830TIP3   OH226904   2.528   4.977  15.681 -0.1938  0.0029 -0.0845
 1830TIP3    H126905   2.489   4.921  15.615  0.5014  1.1913 -1.5742
 1830TIP3    H226906   2.458   4.993  15.744 -1.5484  0.5197 -1.6424
 1831TIP3   OH226907   4.710   3.967  14.761  0.2491 -0.4350 -0.3663
 1831TIP3    H126908   4.745   4.026  14.695  0.0774  0.6909  0.4978
 1831TIP3    H226909   4.779   3.960  14.827  0.1919 -1.0508 -0.3661
 1832TIP3   OH226910   3.561   3.298  14.451 -0.4468  0.6941  0.6790
 1832TIP3    H126911   3.493   3.337  14.396 -0.8106 -0.7175  0.0815
 1832TIP3    H226912   3.622   3.258  14.389  1.0509  2.0538  1.1945
 1833TIP3   OH226913   5.420   5.532  12.251 -0.1122  0.0010  0.4452
 1833TIP3    H126914   5.328   5.538  12.226  0.3216  1.0130 -0.9942
 1833TIP3    H226915   5.466   5.582  12.184  1.6649 -1.8770  0.1784
 1834TIP3   OH226916   1.287   0.887  12.283  0.1323 -0.2059 -0.0975
 1834TIP3    H126917   1.230   0.917  12.212 -0.4484  1.3699  0.9864
 1834TIP3    H226918   1.239   0.815  12.324 -0.1545 -0.2110 -0.4386
 1835TIP3   OH226919   0.787   0.171   0.340 -0.0373  0.0841  0.7451
 1835TIP3    H126920   0.760   0.263   0.348 -1.2022 -0.2938  1.6065
 1835TIP3    H226921   0.704   0.123   0.339  0.5737 -1.0148  1.2834
 1836TIP3   OH226922   3.617   2.542   0.195 -0.1852 -0.5007 -0.0932
 1836TIP3    H126923   3.546   2.582   0.145 -0.0637 -2.0858 -1.6462
 1836TIP3    H226924   3.573   2.489   0.261 -0.5836 -2.3874 -1.7631
 1837TIP3   OH226925   0.939   1.391  11.033 -0.4309  0.0305  0.2909
 1837TIP3    H126926   0.964   1.308  10.993  0.1300 -0.8103  2.2827
 1837TIP3    H226927   0.931   1.371  11.126  0.4332  2.3853  0.9206
 1838TIP3   OH226928   2.098   3.322  12.670  0.2785  0.1209  0.1827
 1838TIP3    H126929   2.174   3.373  12.698  1.7223 -1.4636 -0.6518
 1838TIP3    H226930   2.026   3.354  12.725  1.6363  1.3234  1.3571
 1839TIP3   OH226931   5.104   5.430   1.945  0.5910 -0.1895 -0.6320
 1839TIP3    H126932   5.181   5.458   1.894  1.2537  0.4612  0.6791
 1839TIP3    H226933   5.120   5.465   2.033 -0.8488 -0.7128 -0.1441
 1840TIP3   OH226934   6.212   2.983   0.451  0.3504 -0.0302  0.1948
 1840TIP3    H126935   6.148   2.920   0.419 -1.2157  0.3851  2.3321
 1840TIP3    H226936   6.165   3.067   0.452  1.9845  0.9813 -1.3454
 1841TIP3   OH226937   4.314   0.202   4.980  0.2080 -0.5937 -0.5195
 1841TIP3    H126938   4.333   0.166   4.893 -1.9508 -0.4667 -1.1074
 1841TIP3    H226939   4.333   0.296   4.971 -1.1095 -0.3647 -1.2707
 1842TIP3   OH226940   1.416   5.494  16.186 -0.5675  0.4145  0.0671
 1842TIP3    H126941   1.498   5.537  16.163 -1.6445  2.8243  0.4803
 1842TIP3    H226942   1.365   5.561  16.231 -2.9883 -0.8614 -0.5997
 1843TIP3   OH226943   2.390   0.702   5.089  0.2015  0.0542 -0.3102
 1843TIP3    H126944   2.371   0.749   5.170  1.4032  0.9783 -0.5269
 1843TIP3    H226945   2.306   0.695   5.044 -0.0443  1.9641 -0.2261
 1844TIP3   OH226946   4.605   5.140  14.633 -0.2748 -0.3558  0.6091
 1844TIP3    H126947   4.518   5.165  14.599 -0.5144 -2.0927 -0.1389
 1844TIP3    H226948   4.601   5.162  14.726 -1.0206  0.8390  0.3205
 1845TIP3   OH226949   0.695   4.455   4.842  0.9061 -0.2678  0.1778
 1845TIP3    H126950   0.719   4.533   4.892 -1.3664  1.2673 -0.9618
 1845TIP3    H226951   0.762   4.450   4.773 -0.3600  2.3957 -1.4034
 1846TIP3   OH226952   0.121   6.204  11.929 -0.0812  0.3736 -0.2839
 1846TIP3    H126953   0.133   6.181  12.022 -0.3791 -0.3636 -0.4164
 1846TIP3    H226954   0.203   6.248  11.905 -0.3206  1.3074  0.5366
 1847TIP3   OH226955   5.565   5.170   5.401 -0.1600  0.0346 -0.4820
 1847TIP3    H126956   5.569   5.109   5.327  0.3212 -0.7924  0.2038
 1847TIP3    H226957   5.573   5.114   5.478 -2.4144  0.6714  0.2953
 1848TIP3   OH226958   1.597   3.356  12.279  0.2588 -0.1838 -0.7309
 1848TIP3    H126959   1.562   3.269  12.262 -0.7115  0.0017  0.2057
 1848TIP3    H226960   1.685   3.355  12.240  0.6727 -1.9120  0.1360
 1849TIP3   OH226961   5.841   1.777  14.835 -0.3446  0.1936  0.1291
 1849TIP3    H126962   5.838   1.769  14.930  0.6764 -0.3067  0.1295
 1849TIP3    H226963   5.929   1.747  14.811 -1.3363 -1.8530 -1.1813
 1850TIP3   OH226964   1.244   2.480  14.035 -0.4285 -0.8343  0.1116
 1850TIP3    H126965   1.254   2.519  14.122  0.3087 -0.7350 -0.0159
 1850TIP3    H226966   1.296   2.536  13.978  0.3839 -1.8083 -0.1260
 1851TIP3   OH226967   6.255   2.285   4.666 -0.0775  0.1855  0.5231
 1851TIP3    H126968   6.285   2.357   4.720  1.5538 -0.4691  0.5267
 1851TIP3    H226969   6.319   2.279   4.595 -0.3659 -1.0526  0.3410
 1852TIP3   OH226970   0.773   2.237  17.066 -0.3302 -0.6911  0.0015
 1852TIP3    H126971   0.774   2.333  17.071  1.9101 -0.6908  0.3978
 1852TIP3    H226972   0.828   2.208  17.139  0.0318 -2.2429 -0.8435
 1853TIP3   OH226973   5.783   6.612  15.923 -0.2934 -0.1702 -0.4498
 1853TIP3    H126974   5.866   6.625  15.969 -0.2056  0.2008 -0.7048
 1853TIP3    H226975   5.762   6.520  15.935  0.4716 -0.4058 -0.9096
 1854TIP3   OH226976   5.086   1.449  15.063 -0.4594 -0.0711  0.4246
 1854TIP3    H126977   5.045   1.533  15.082 -1.8227 -0.8026  0.9025
 1854TIP3    H226978   5.123   1.420  15.146 -1.6410 -0.7783  0.7275
 1855TIP3   OH226979   3.444   6.283  16.321 -0.0224 -0.1964 -1.6240
 1855TIP3    H126980   3.485   6.341  16.384 -0.4520 -0.3270 -1.2120
 1855TIP3    H226981   3.383   6.230  16.373  0.0562 -0.7216 -2.0531
 1856TIP3   OH226982   4.351   2.974   2.694 -0.1819 -0.1108 -0.2328
 1856TIP3    H126983   4.281   2.950   2.634 -0.5575  1.0540 -0.2777
 1856TIP3    H226984   4.329   3.063   2.722  0.3956 -0.3466  1.0314
 1857TIP3   OH226985   1.286   0.062  13.516 -0.2105 -0.4353 -0.1692
 1857TIP3    H126986   1.259   0.153  13.509  0.2699 -0.4095 -2.3747
 1857TIP3    H226987   1.295   0.047  13.610 -0.6542  1.6666  0.2601
 1858TIP3   OH226988   3.814   3.808  16.040 -0.1327 -0.2846 -0.1647
 1858TIP3    H126989   3.858   3.724  16.028 -2.2133 -1.0890 -3.3519
 1858TIP3    H226990   3.765   3.798  16.122  2.3131 -0.7927  1.3381
 1859TIP3   OH226991   6.149   5.913  13.115 -0.5013 -0.5972  0.0372
 1859TIP3    H126992   6.206   5.983  13.084  0.3662 -1.3598 -0.1264
 1859TIP3    H226993   6.095   5.890  13.040  0.3535 -1.2088 -0.4115
 1860TIP3   OH226994   6.156   3.388   4.735 -0.2295  0.2648 -0.0825
 1860TIP3    H126995   6.240   3.344   4.718 -0.2332  0.2668 -0.1063
 1860TIP3    H226996   6.152   3.396   4.830  0.9492  2.4899 -0.1384
 1861TIP3   OH226997   5.350   0.114   5.433  0.0410  0.1410 -0.3476
 1861TIP3    H126998   5.269   0.073   5.461  0.6117 -0.8174 -0.0638
 1861TIP3    H226999   5.322   0.190   5.382 -1.0255  0.2598  0.3820
 1862TIP3   OH227000   5.104   1.172   0.743  0.2318 -0.0488 -0.6225
 1862TIP3    H127001   5.119   1.131   0.658  0.2691 -2.9357  0.6521
 1862TIP3    H227002   5.145   1.113   0.806  1.8403  2.9342  1.3419
 1863TIP3   OH227003   5.066   6.591  16.970  0.7747 -0.0153 -0.6446
 1863TIP3    H127004   5.146   6.545  16.946  0.8274  0.1428 -0.7781
 1863TIP3    H227005   5.065   6.668  16.912  0.3990 -0.1515 -0.8223
 1864TIP3   OH227006   0.354   5.411   2.176  0.0306  0.4933 -0.4931
 1864TIP3    H127007   0.319   5.409   2.087 -0.3847 -0.1788 -0.3194
 1864TIP3    H227008   0.446   5.435   2.165 -0.1264  0.8507 -1.0675
 1865TIP3   OH227009   4.524   2.276  13.899  0.1115  0.5657 -0.4264
 1865TIP3    H127010   4.480   2.196  13.928  1.2941  0.3467  0.8441
 1865TIP3    H227011   4.615   2.264  13.925  0.0646  2.8952  1.0342
 1866TIP3   OH227012   4.650   6.449   0.007 -0.1525 -0.0510  0.0044
 1866TIP3    H127013   4.599   6.382  -0.040 -0.7183  0.5070 -0.1976
 1866TIP3    H227014   4.604   6.460   0.090 -0.8027  0.9599 -0.4630
 1867TIP3   OH227015   4.657   2.788  15.961 -0.6312  0.1983  0.2706
 1867TIP3    H127016   4.735   2.766  16.012  0.0789 -0.2145 -0.9652
 1867TIP3    H227017   4.590   2.806  16.027 -0.2144 -1.9535  1.3584
 1868TIP3   OH227018   2.247   6.157  13.215  0.0057  0.1274  0.1430
 1868TIP3    H127019   2.223   6.116  13.298 -0.3104  0.2739  0.1255
 1868TIP3    H227020   2.245   6.251  13.233 -0.1448  0.1621 -0.0522
 1869TIP3   OH227021   5.476   5.969   5.295 -0.0182 -0.3563 -0.1828
 1869TIP3    H127022   5.545   6.032   5.273 -0.0493 -0.0686  0.5289
 1869TIP3    H227023   5.504   5.888   5.252  0.4296 -0.0657 -0.4474
 1870TIP3   OH227024   0.333   1.320   2.107  0.1447  0.0993 -0.0521
 1870TIP3    H127025   0.306   1.250   2.047 -0.6449  1.2456 -1.0638
 1870TIP3    H227026   0.377   1.384   2.051 -1.7633  1.8105  0.3286
 1871TIP3   OH227027   0.762   1.855   4.588  0.2399  0.1835 -0.3851
 1871TIP3    H127028   0.683   1.888   4.632 -0.1598 -0.4861 -0.5868
 1871TIP3    H227029   0.826   1.925   4.598 -0.3905  0.7452 -0.2393
 1872TIP3   OH227030   3.470   2.008   1.162  0.2132 -0.6307  0.4862
 1872TIP3    H127031   3.561   1.978   1.168  1.0273  1.4194 -0.6257
 1872TIP3    H227032   3.458   2.065   1.237  0.5666  0.8041 -0.5191
 1873TIP3   OH227033   5.019   4.556  11.784 -0.4132  0.7543  0.5442
 1873TIP3    H127034   4.952   4.487  11.787 -0.6391  0.9226 -0.3242
 1873TIP3    H227035   5.102   4.509  11.774 -0.5690  0.6111 -0.0748
 1874TIP3   OH227036   3.281   2.484   1.077  0.0660 -0.2603  1.0417
 1874TIP3    H127037   3.370   2.491   1.112  0.5023  0.9068 -0.2013
 1874TIP3    H227038   3.251   2.575   1.071  0.0805 -0.3353 -1.6251
 1875TIP3   OH227039   3.532   5.199   4.105 -0.5033  0.0398 -0.0400
 1875TIP3    H127040   3.479   5.140   4.159  0.9979 -1.4079 -0.1012
 1875TIP3    H227041   3.530   5.160   4.017 -1.1974  1.2480 -0.6013
 1876TIP3   OH227042   2.316   0.539   4.050 -0.2488 -0.5338 -0.0445
 1876TIP3    H127043   2.265   0.458   4.061 -0.7185 -0.3227 -0.6197
 1876TIP3    H227044   2.304   0.562   3.958  1.4872 -0.8726 -0.3994
 1877TIP3   OH227045   2.380   3.250   3.135 -0.2208  0.2583  0.2753
 1877TIP3    H127046   2.396   3.293   3.051  1.4990  0.8278  0.8393
 1877TIP3    H227047   2.323   3.176   3.115 -0.9068  1.1562 -1.1721
 1878TIP3   OH227048   6.388   4.131   4.633  0.3898 -0.0877  0.4732
 1878TIP3    H127049   6.420   4.198   4.694 -2.8765  0.6430  1.5538
 1878TIP3    H227050   6.345   4.066   4.688  0.4056 -1.2562 -0.8366
 1879TIP3   OH227051   6.474   4.559   1.364  0.4597 -0.0067 -0.4189
 1879TIP3    H127052   6.425   4.617   1.422 -1.0229  0.1465 -1.7515
 1879TIP3    H227053   6.556   4.606   1.347  0.2287  0.6688  0.2717
 1880TIP3   OH227054   1.661   3.124   6.062  0.2763 -0.3996 -0.3390
 1880TIP3    H127055   1.696   3.038   6.087  0.1424 -0.5395 -0.6265
 1880TIP3    H227056   1.606   3.106   5.986 -1.2402 -0.3474  0.6974
 1881TIP3   OH227057   6.343   0.144   6.225 -0.3596  0.3188  0.0592
 1881TIP3    H127058   6.415   0.084   6.243 -1.4714 -1.1507 -0.2115
 1881TIP3    H227059   6.381   0.210   6.167  1.4104  1.0823  1.9510
 1882TIP3   OH227060   6.558   6.305   0.403  0.6895  0.0126  0.3765
 1882TIP3    H127061   6.605   6.291   0.486  0.9765 -0.6762  0.1057
 1882TIP3    H227062   6.560   6.219   0.360  0.3961  0.3259 -0.2705
 1883TIP3   OH227063   0.001   0.338   0.230  0.5126  0.0969  0.0576
 1883TIP3    H127064  -0.083   0.383   0.229 -0.7403 -2.0665  0.1534
 1883TIP3    H227065   0.045   0.368   0.151 -0.3589  1.2336 -0.0280
 1884TIP3   OH227066   0.545   2.326   1.190 -0.2226  0.1260 -0.1045
 1884TIP3    H127067   0.567   2.305   1.281  1.7504 -1.7541 -0.9221
 1884TIP3    H227068   0.630   2.330   1.146 -1.2120 -0.6211 -2.1607
 1885TIP3   OH227069   0.524   4.522  17.227  1.0760  0.2523 -0.3686
 1885TIP3    H127070   0.472   4.585  17.277  1.6253 -2.0987  3.5703
 1885TIP3    H227071   0.611   4.561  17.222  1.0151  0.5351  0.6063
 1886TIP3   OH227072   2.123   3.729  15.529 -0.0200  0.1235  0.4187
 1886TIP3    H127073   2.115   3.634  15.525  0.8375  0.0545  0.0860
 1886TIP3    H227074   2.101   3.760  15.441 -0.3661  0.2412  0.5451
 1887TIP3   OH227075   6.192   1.473  17.057  0.6504 -0.3822  0.1950
 1887TIP3    H127076   6.165   1.506  17.143 -1.0178 -0.7790 -0.1255
 1887TIP3    H227077   6.282   1.502  17.046  0.8303 -0.1745  2.0000
 1888TIP3   OH227078   2.599   2.783  12.996  0.0687  0.2766 -0.0888
 1888TIP3    H127079   2.630   2.830  12.919 -0.8434 -0.0602 -0.6870
 1888TIP3    H227080   2.672   2.786  13.058  0.2748  1.8341 -0.3850
 1889TIP3   OH227081   0.189   4.455   5.348 -0.2388 -0.1367  0.1216
 1889TIP3    H127082   0.222   4.401   5.276  1.1069 -1.6673  1.8154
 1889TIP3    H227083   0.253   4.446   5.418 -0.7885  2.4144  1.0978
 1890TIP3   OH227084   5.292   3.272  12.286 -0.0249 -0.3103  0.3634
 1890TIP3    H127085   5.308   3.315  12.370  1.2148 -0.1257  0.0533
 1890TIP3    H227086   5.367   3.213  12.274 -1.0496 -1.6199  0.1790
 1891TIP3   OH227087   2.947   1.864   5.596  0.3900 -0.2876  0.3011
 1891TIP3    H127088   2.983   1.850   5.509 -0.2470  0.0534 -0.0209
 1891TIP3    H227089   3.011   1.921   5.639 -0.3567  1.3513 -0.6889
 1892TIP3   OH227090   5.338   4.477  13.512  0.2058  0.6389 -0.4992
 1892TIP3    H127091   5.426   4.453  13.483  0.4798 -0.1950  0.9339
 1892TIP3    H227092   5.281   4.412  13.472  0.4706  0.0538  0.0573
 1893TIP3   OH227093   2.162   3.267   4.431 -0.0825 -0.0907 -0.1393
 1893TIP3    H127094   2.200   3.278   4.344 -0.2995  1.2263 -0.0981
 1893TIP3    H227095   2.069   3.283   4.419  0.0335  1.2725  0.4861
 1894TIP3   OH227096   3.749   0.635   1.555 -0.0255 -0.6018  0.0431
 1894TIP3    H127097   3.845   0.627   1.560 -0.0086 -0.1306  0.6834
 1894TIP3    H227098   3.724   0.667   1.642 -0.6522  0.3195 -0.4617
 1895TIP3   OH227099   0.299   5.550  12.535  0.3185  0.1049 -0.3640
 1895TIP3    H127100   0.392   5.551  12.557  0.2900 -0.3645 -0.2149
 1895TIP3    H227101   0.255   5.560  12.619  0.2135 -1.4160 -0.2101
 1896TIP3   OH227102   0.528   5.067   3.503 -0.4102  0.6563 -0.2810
 1896TIP3    H127103   0.458   5.026   3.452  0.5012 -1.3161 -0.0392
 1896TIP3    H227104   0.525   5.024   3.588  2.0371 -0.6880 -0.7612
 1897TIP3   OH227105   1.442   4.178  11.446 -0.1022 -0.2168 -0.5543
 1897TIP3    H127106   1.424   4.239  11.518 -0.5168  0.1290 -0.9486
 1897TIP3    H227107   1.365   4.184  11.390  1.0057  0.8823 -2.0077
 1898TIP3   OH227108   5.167   6.741   1.034 -0.1974  0.2988  0.4469
 1898TIP3    H127109   5.141   6.732   1.126 -0.1855 -0.3607  0.3862
 1898TIP3    H227110   5.091   6.781   0.992 -1.2351 -1.7819  0.2370
 1899TIP3   OH227111   1.290   0.708   1.494  0.3780  0.4926 -0.5644
 1899TIP3    H127112   1.238   0.725   1.416 -0.3818  1.5121  0.1324
 1899TIP3    H227113   1.274   0.784   1.550  0.5676 -0.4071  0.7503
 1900TIP3   OH227114   0.162   3.344   2.924  0.4655 -0.3103  0.1517
 1900TIP3    H127115   0.155   3.248   2.932  3.0161 -0.7948 -1.9016
 1900TIP3    H227116   0.118   3.364   2.841  0.8685  0.1115  0.0359
 1901TIP3   OH227117   3.079   5.223  16.571  0.2593  0.2770  0.0948
 1901TIP3    H127118   3.097   5.182  16.486  1.5719  0.7653  0.1112
 1901TIP3    H227119   3.011   5.168  16.610  0.2652 -0.4680 -0.8963
 1902TIP3   OH227120   3.414   4.083  12.762 -0.6184 -0.1157  0.2242
 1902TIP3    H127121   3.366   4.001  12.769 -0.5179 -0.2517 -0.5635
 1902TIP3    H227122   3.492   4.070  12.816 -0.8766 -0.3297  0.5493
 1903TIP3   OH227123   2.829   3.312   4.978  0.0397 -0.5127 -0.2592
 1903TIP3    H127124   2.809   3.247   4.911  0.6225  0.6257 -1.6034
 1903TIP3    H227125   2.769   3.384   4.960 -0.2083 -0.4377  0.8341
 1904TIP3   OH227126   1.734   0.120   0.422 -0.2758  0.2444  0.2239
 1904TIP3    H127127   1.735   0.094   0.514  0.9308 -1.0634 -0.1197
 1904TIP3    H227128   1.658   0.075   0.385  1.6808 -2.9647 -0.3187
 1905TIP3   OH227129   2.607   4.695  14.859 -0.8572 -0.4226 -0.1369
 1905TIP3    H127130   2.694   4.731  14.843  0.3261 -1.7804  2.5467
 1905TIP3    H227131   2.602   4.686  14.954 -4.1157 -0.0736 -0.1616
 1906TIP3   OH227132   0.913   2.091  11.242  0.0481 -0.5180  0.2710
 1906TIP3    H127133   0.911   2.033  11.166 -1.4418 -1.3131  0.8736
 1906TIP3    H227134   0.947   2.035  11.313  0.8226  0.0341  0.3477
 1907TIP3   OH227135   1.751   3.235   0.118 -0.4465  0.2928 -0.5029
 1907TIP3    H127136   1.714   3.253   0.032  0.7540  0.2149 -1.0576
 1907TIP3    H227137   1.764   3.140   0.119  0.9767  0.4620 -0.8649
 1908TIP3   OH227138   5.750   6.053  14.513 -0.1216  0.1789  0.1404
 1908TIP3    H127139   5.774   6.075  14.603  0.8738 -0.1578 -0.0303
 1908TIP3    H227140   5.696   6.126  14.483 -1.0089 -0.0194  1.2260
 1909TIP3   OH227141   5.855   4.323  13.847 -0.5110 -0.1049  0.4965
 1909TIP3    H127142   5.792   4.299  13.779  0.1718 -1.4399  0.3046
 1909TIP3    H227143   5.937   4.338  13.800 -0.1871 -0.4171  0.9514
 1910TIP3   OH227144   4.425   2.175  10.712 -0.3190  0.0838 -0.0678
 1910TIP3    H127145   4.391   2.146  10.797 -0.9368  1.5848  0.2300
 1910TIP3    H227146   4.516   2.197  10.729 -0.7234  1.4312  0.5107
 1911TIP3   OH227147   3.520   4.843   4.403 -0.0830 -0.1595  0.9079
 1911TIP3    H127148   3.517   4.810   4.492  2.6682 -2.7099  0.2253
 1911TIP3    H227149   3.614   4.853   4.384 -0.4147 -1.7952 -2.2952
 1912TIP3   OH227150   5.664   3.324  14.188 -0.1800  0.0031 -0.0577
 1912TIP3    H127151   5.743   3.364  14.225 -1.3272  2.2247  0.1204
 1912TIP3    H227152   5.592   3.362  14.238 -1.5196 -0.0740 -1.8400
 1913TIP3   OH227153   0.802   2.091  15.538 -0.2583  1.0271  0.0554
 1913TIP3    H127154   0.872   2.108  15.475 -0.5188  0.4464 -0.3991
 1913TIP3    H227155   0.759   2.175  15.549 -0.6494  0.9976 -1.0882
 1914TIP3   OH227156   1.668   2.877   2.536 -0.0871  0.4394  0.0108
 1914TIP3    H127157   1.639   2.792   2.504 -3.9791  1.7423 -0.3831
 1914TIP3    H227158   1.740   2.901   2.477 -2.1312 -0.4823 -3.1220
 1915TIP3   OH227159   1.398   5.118  12.862  0.2352 -0.0967  0.3184
 1915TIP3    H127160   1.479   5.100  12.814 -0.0702 -0.8849  0.0799
 1915TIP3    H227161   1.330   5.073  12.811 -0.1420 -0.6744  1.3113
 1916TIP3   OH227162   3.530   2.922   2.334  0.1877  0.1861  0.1736
 1916TIP3    H127163   3.563   2.932   2.423 -0.4189 -0.8018  0.5273
 1916TIP3    H227164   3.436   2.911   2.344  0.0695  0.3911 -0.6196
 1917TIP3   OH227165   5.118   2.934   4.147 -0.0576 -0.6467  0.2014
 1917TIP3    H127166   5.026   2.953   4.164 -0.0560  0.3141 -0.7888
 1917TIP3    H227167   5.119   2.891   4.061  0.3655 -1.2053  0.4767
 1918TIP3   OH227168   4.380   3.381   0.730 -0.4663 -0.1381 -0.0816
 1918TIP3    H127169   4.311   3.395   0.665 -0.8577 -1.1436  0.0974
 1918TIP3    H227170   4.461   3.392   0.681 -0.7499  0.5178 -0.4190
 1919TIP3   OH227171   2.250   2.123   6.199 -0.5487  0.0482  0.1610
 1919TIP3    H127172   2.312   2.156   6.264  0.3141  1.2764 -1.2182
 1919TIP3    H227173   2.204   2.052   6.244  0.2059  0.6532  1.9979
 1920TIP3   OH227174   4.828   5.669   2.964  0.0843  0.2732 -0.5303
 1920TIP3    H127175   4.790   5.647   3.049  1.3185 -0.0068 -0.0291
 1920TIP3    H227176   4.781   5.748   2.936 -0.6304  0.1176  0.2040
 1921TIP3   OH227177   4.146   0.526   3.111 -0.0557 -0.8598  0.4092
 1921TIP3    H127178   4.210   0.586   3.073 -0.8935 -0.9826 -1.3212
 1921TIP3    H227179   4.087   0.581   3.162 -0.7685 -0.1609 -1.0943
 1922TIP3   OH227180   2.392   1.510  11.106 -0.2476  0.2630 -0.3264
 1922TIP3    H127181   2.377   1.512  11.012  0.6362  3.7411 -0.5262
 1922TIP3    H227182   2.486   1.493  11.115  0.0328  1.7739 -0.2022
 1923TIP3   OH227183   2.953   4.399  12.623  0.2600  0.0884 -0.2692
 1923TIP3    H127184   2.993   4.477  12.661  0.3515 -0.4153  0.7070
 1923TIP3    H227185   3.006   4.380  12.546 -0.8838  2.0582 -1.6324
 1924TIP3   OH227186   1.326   1.048   2.682 -0.4747 -0.6345 -1.3620
 1924TIP3    H127187   1.262   0.981   2.659 -0.6462 -0.7663 -0.5254
 1924TIP3    H227188   1.362   1.077   2.598 -0.9997 -1.1789 -1.7793
 1925TIP3   OH227189   5.868   2.462  14.527 -0.2970 -0.0021 -0.3216
 1925TIP3    H127190   5.794   2.522  14.536 -0.5705 -0.3126 -0.4669
 1925TIP3    H227191   5.942   2.510  14.563 -0.5322  0.3835 -0.3467
 1926TIP3   OH227192   3.629   3.661   5.563  0.0041 -0.0846  0.5271
 1926TIP3    H127193   3.582   3.690   5.484 -0.8408  1.2137  1.4794
 1926TIP3    H227194   3.690   3.594   5.530  1.0452  1.7322 -1.5662
 1927TIP3   OH227195   2.084   4.900   1.614 -0.1660 -0.3791 -0.2391
 1927TIP3    H127196   2.099   4.980   1.565 -1.3480 -1.2811 -2.2330
 1927TIP3    H227197   2.065   4.834   1.546 -0.9761 -1.9226  1.3992
 1928TIP3   OH227198   5.284   2.318   6.276 -0.4500 -0.2189  0.2395
 1928TIP3    H127199   5.255   2.227   6.269 -0.4183 -0.3075  1.1736
 1928TIP3    H227200   5.375   2.312   6.307 -0.1553  0.1140 -0.5261
 1929TIP3   OH227201   0.516   1.817  12.278  0.4114 -0.1861 -0.3729
 1929TIP3    H127202   0.497   1.723  12.272  1.7351 -0.4704 -0.5159
 1929TIP3    H227203   0.612   1.822  12.271  0.3210  1.2199 -0.9053
 1930TIP3   OH227204   0.668   4.338   4.246  0.8035  0.3076 -0.2007
 1930TIP3    H127205   0.645   4.431   4.235 -0.6428  0.2083  1.5533
 1930TIP3    H227206   0.703   4.312   4.161 -1.6659  1.6564 -1.7638
 1931TIP3   OH227207   6.401   4.987  16.191 -0.6726  0.1865 -0.0389
 1931TIP3    H127208   6.471   5.008  16.128 -0.4018 -2.2546 -0.6321
 1931TIP3    H227209   6.343   5.063  16.187 -0.0662  0.6233 -2.4168
 1932TIP3   OH227210   6.223   0.672   0.743  0.4996  0.0151 -0.2424
 1932TIP3    H127211   6.147   0.689   0.798 -0.9089 -2.4393 -1.2956
 1932TIP3    H227212   6.285   0.626   0.799 -0.7648 -2.1241 -0.5170
 1933TIP3   OH227213   3.913   4.510   3.202  0.3540 -0.8770  0.1316
 1933TIP3    H127214   3.985   4.450   3.182  1.2218 -0.0720  0.7624
 1933TIP3    H227215   3.904   4.564   3.124 -2.9659 -4.1237 -2.0942
 1934TIP3   OH227216   1.326   5.146  11.280  0.3880 -0.2823  0.3034
 1934TIP3    H127217   1.290   5.057  11.274 -2.0599  0.6060  0.7214
 1934TIP3    H227218   1.281   5.195  11.211  2.7520  0.3727 -0.8854
 1935TIP3   OH227219   0.329   5.985   2.848 -0.5224  0.5033  0.0921
 1935TIP3    H127220   0.288   5.899   2.855  1.4198 -0.3799  1.6719
 1935TIP3    H227221   0.357   6.006   2.937  2.8657  0.7295 -0.8679
 1936TIP3   OH227222   5.664   1.235   3.520  0.2940 -0.3093 -0.1352
 1936TIP3    H127223   5.708   1.310   3.479  0.1646 -0.5228 -0.6703
 1936TIP3    H227224   5.648   1.263   3.610  0.1638  0.3477 -0.3572
 1937TIP3   OH227225   1.763   2.016   3.586  0.2416  0.0498  0.0939
 1937TIP3    H127226   1.757   2.104   3.548  1.2647 -0.9092 -2.5760
 1937TIP3    H227227   1.825   1.970   3.529 -0.5028 -2.5061  1.2064
 1938TIP3   OH227228   6.451   2.643   5.393  0.1890  0.2886  0.2927
 1938TIP3    H127229   6.421   2.553   5.404  1.4216 -0.1206  0.4303
 1938TIP3    H227230   6.430   2.687   5.475 -1.7704  0.5511 -0.3060
 1939TIP3   OH227231   2.730   0.695  13.845 -0.5706  0.3894 -0.6293
 1939TIP3    H127232   2.729   0.788  13.869  0.6907  0.6085 -1.3175
 1939TIP3    H227233   2.790   0.690  13.771 -1.6036 -0.8009 -1.4380
 1940TIP3   OH227234   4.561   6.663  13.471 -0.1576  0.1542 -0.4700
 1940TIP3    H127235   4.650   6.669  13.437 -0.4296 -0.1402 -1.2575
 1940TIP3    H227236   4.566   6.600  13.543  0.6016  1.4533  0.6745
 1941TIP3   OH227237   4.429   1.164  12.319  0.1552  0.2543 -0.6868
 1941TIP3    H127238   4.344   1.175  12.362  1.0371  0.4402  1.0697
 1941TIP3    H227239   4.476   1.245  12.336  0.5404  0.3520 -2.0627
 1942TIP3   OH227240   1.073   3.003   6.216  0.2443 -0.0661 -0.1525
 1942TIP3    H127241   1.010   2.932   6.205 -0.5480  0.3312  1.5819
 1942TIP3    H227242   1.093   3.032   6.127 -1.4181 -0.7244 -0.7611
 1943TIP3   OH227243   2.796   4.301   5.919  0.0817  0.0350  0.1142
 1943TIP3    H127244   2.846   4.379   5.944 -0.6205  0.0602  1.5980
 1943TIP3    H227245   2.803   4.243   5.995  0.8298 -1.5006 -1.0724
 1944TIP3   OH227246   6.341   1.144  11.013 -0.2747  0.1352  0.0510
 1944TIP3    H127247   6.318   1.235  11.033 -1.1974 -0.2061  0.6374
 1944TIP3    H227248   6.340   1.139  10.918 -1.1609  0.5217  0.0288
 1945TIP3   OH227249   3.543   1.073   1.488  0.2198  0.2760 -0.1466
 1945TIP3    H127250   3.448   1.067   1.480  0.0598 -0.7488  1.9320
 1945TIP3    H227251   3.576   0.996   1.443  0.4598  2.5884 -4.4903
 1946TIP3   OH227252   3.251   1.128  14.106 -0.5194 -0.2486 -0.0062
 1946TIP3    H127253   3.184   1.171  14.054 -2.6714 -1.5886  1.4654
 1946TIP3    H227254   3.255   1.179  14.187  0.9537  0.3502 -0.4243
 1947TIP3   OH227255   3.713   6.570   5.004 -0.2232 -0.0821  0.3562
 1947TIP3    H127256   3.720   6.492   5.059 -1.8562 -0.5161 -0.0084
 1947TIP3    H227257   3.619   6.585   4.995  0.0572  1.4707 -0.2409
 1948TIP3   OH227258   0.356   5.470  14.203  0.0010  0.0082  0.3057
 1948TIP3    H127259   0.286   5.451  14.266 -0.3953  1.9958  0.5462
 1948TIP3    H227260   0.410   5.536  14.247  0.2137  0.8024 -1.0965
 1949TIP3   OH227261   5.301   3.336  15.143  0.0154 -0.3157 -0.0846
 1949TIP3    H127262   5.329   3.297  15.060 -0.4181  0.2001 -0.4756
 1949TIP3    H227263   5.364   3.303  15.207  0.5412 -0.4712 -0.6706
 1950TIP3   OH227264   0.152   4.713   5.253  0.1133 -0.0101 -0.3549
 1950TIP3    H127265   0.180   4.709   5.162  0.6578 -1.8937 -0.1480
 1950TIP3    H227266   0.160   4.623   5.285 -1.8525  0.2494  1.0428
 1951TIP3   OH227267   1.033   5.962  12.446  0.0076  0.3240  0.0259
 1951TIP3    H127268   0.963   5.981  12.509 -0.3808 -1.9881  0.3760
 1951TIP3    H227269   1.105   5.927  12.500  0.1096 -0.5923 -0.6816
 1952TIP3   OH227270   5.570   3.994  14.539 -0.0823  0.4081  0.1731
 1952TIP3    H127271   5.644   4.007  14.480 -1.1024  4.0518 -0.5604
 1952TIP3    H227272   5.523   4.078  14.538 -1.9463 -0.3799  3.7374
 1953TIP3   OH227273   2.597   4.948  13.020  0.2113 -0.5984  0.0679
 1953TIP3    H127274   2.632   4.870  13.063  0.5687 -0.4729  0.0127
 1953TIP3    H227275   2.526   4.915  12.965 -1.2254 -0.5783  1.8309
 1954TIP3   OH227276   5.214   5.589  15.621 -0.3479  0.4053  0.0750
 1954TIP3    H127277   5.273   5.649  15.666 -1.7586  1.5805  0.4189
 1954TIP3    H227278   5.139   5.642  15.595 -0.5777 -0.7135 -1.7516
 1955TIP3   OH227279   2.091   1.613   3.994 -0.0957 -0.2581 -0.0028
 1955TIP3    H127280   2.097   1.586   4.086 -0.5263 -0.7245 -0.1097
 1955TIP3    H227281   2.135   1.543   3.946 -2.2986 -1.4540 -0.3954
 1956TIP3   OH227282   1.396   0.448   6.195 -0.4222  0.3243  0.1614
 1956TIP3    H127283   1.391   0.498   6.277  0.4151 -0.4305  0.6882
 1956TIP3    H227284   1.450   0.502   6.137  0.6977 -0.0711  0.8154
 1957TIP3   OH227285   1.416   1.821   1.447 -0.4869 -0.4514  0.1298
 1957TIP3    H127286   1.441   1.773   1.526 -0.3681  0.6686  0.7896
 1957TIP3    H227287   1.339   1.871   1.473 -0.7574 -0.4682 -0.6210
 1958TIP3   OH227288   0.315   1.463  15.705 -0.3546 -0.1944  0.3450
 1958TIP3    H127289   0.290   1.496  15.791  2.7865  0.6720  1.0529
 1958TIP3    H227290   0.326   1.369  15.717  1.1869  0.0816  1.2382
 1959TIP3   OH227291   2.490   3.435   5.369  0.4825 -0.2781 -0.1461
 1959TIP3    H127292   2.566   3.390   5.333  1.0736 -0.0966  0.8324
 1959TIP3    H227293   2.466   3.500   5.303  2.3810  0.9982  0.3418
 1960TIP3   OH227294   4.204   2.029   5.676  0.0509 -0.2455 -0.2006
 1960TIP3    H127295   4.233   2.014   5.586  0.9515 -0.7589  0.1660
 1960TIP3    H227296   4.116   2.065   5.667  0.4031  0.3825 -1.3082
 1961TIP3   OH227297   4.416   3.654   5.595  0.3972  0.3934 -0.0548
 1961TIP3    H127298   4.395   3.582   5.536  0.5960  1.7620 -1.8793
 1961TIP3    H227299   4.492   3.623   5.645 -1.8163 -2.1052  2.0398
 1962TIP3   OH227300   2.280   6.700   4.127  0.0637  0.7207 -0.1204
 1962TIP3    H127301   2.337   6.769   4.093  1.2536  0.1450  0.6531
 1962TIP3    H227302   2.311   6.685   4.216 -1.8627  0.9718  0.6535
 1963TIP3   OH227303   0.044   1.473  11.847  0.0571  0.1742 -0.2372
 1963TIP3    H127304  -0.025   1.516  11.798 -0.7031  0.0175  0.6656
 1963TIP3    H227305   0.013   1.383  11.858 -0.8571  0.7320  2.3803
 1964TIP3   OH227306   2.795   4.607  12.489 -0.3729 -0.4066  0.2006
 1964TIP3    H127307   2.845   4.609  12.407 -0.7162 -0.7904 -0.0242
 1964TIP3    H227308   2.830   4.532  12.537  0.9761  0.7888  1.1596
 1965TIP3   OH227309   2.553   4.094  11.688 -0.2060 -0.3022 -0.7761
 1965TIP3    H127310   2.537   4.179  11.728 -0.3239 -0.2673 -0.8963
 1965TIP3    H227311   2.512   4.031  11.748 -0.5382 -0.2363 -0.9308
 1966TIP3   OH227312   0.070   2.350   2.262  0.2192  0.1043 -0.6952
 1966TIP3    H127313   0.138   2.368   2.327  0.4710  0.4308 -1.0486
 1966TIP3    H227314   0.003   2.302   2.311 -0.3208  1.6953  0.1954
 1967TIP3   OH227315   5.423   5.658  17.064 -0.3791  0.4696 -0.7138
 1967TIP3    H127316   5.412   5.592  17.132 -0.5295  1.0244 -0.1936
 1967TIP3    H227317   5.449   5.608  16.986  0.5581 -0.0837 -0.0601
 1968TIP3   OH227318   5.669   3.165   6.527  0.3560 -0.0940 -0.2853
 1968TIP3    H127319   5.755   3.169   6.568  0.9740 -1.6440 -1.2909
 1968TIP3    H227320   5.649   3.071   6.523 -1.3407  0.2322 -0.1587
 1969TIP3   OH227321   5.318   6.048  16.126  0.5963 -0.8532  0.1238
 1969TIP3    H127322   5.262   6.066  16.202 -0.7316 -1.1392 -0.7458
 1969TIP3    H227323   5.388   6.113  16.131 -0.4330  0.2555  0.6500
 1970TIP3   OH227324   3.577   5.590  11.872  0.5406  0.1628  0.0774
 1970TIP3    H127325   3.494   5.637  11.879 -0.3857 -1.2257 -1.1316
 1970TIP3    H227326   3.573   5.524  11.941 -0.1324 -0.9875 -1.0204
 1971TIP3   OH227327   2.604   5.191   5.537 -0.3621 -0.3107 -0.2699
 1971TIP3    H127328   2.612   5.165   5.629  0.0210 -0.1887 -0.2646
 1971TIP3    H227329   2.510   5.201   5.523 -0.5255 -1.5344 -0.2229
 1972TIP3   OH227330   0.057   0.354   3.146  0.0949 -0.1421  0.4693
 1972TIP3    H127331   0.063   0.278   3.088  1.1182  0.8571 -0.7872
 1972TIP3    H227332   0.068   0.430   3.088 -2.0978  1.0560  1.4883
 1973TIP3   OH227333   5.960   4.669   0.600  0.3233  0.0645  0.2272
 1973TIP3    H127334   5.944   4.631   0.513 -1.8901  0.4517  0.4082
 1973TIP3    H227335   5.950   4.764   0.586  2.5001  0.3665  0.4356
 1974TIP3   OH227336   2.298   2.138  14.611 -0.3023 -0.2454 -0.6513
 1974TIP3    H127337   2.394   2.131  14.610 -0.2090  0.5901  0.4831
 1974TIP3    H227338   2.280   2.219  14.563 -0.1516  1.6394  2.2095
 1975TIP3   OH227339   6.681   3.339   4.352  0.0653  0.0777  0.4729
 1975TIP3    H127340   6.619   3.368   4.285  0.9461 -0.2856 -0.5225
 1975TIP3    H227341   6.693   3.246   4.334  0.1173 -0.0773  1.2985
 1976TIP3   OH227342   6.366   0.646  15.132  0.2581  0.1811  0.7937
 1976TIP3    H127343   6.347   0.649  15.226 -3.3900 -2.9297  0.4278
 1976TIP3    H227344   6.281   0.665  15.091  1.7222  1.2878 -1.9171
 1977TIP3   OH227345   4.927   3.881   5.570  0.6012 -0.1680 -0.2570
 1977TIP3    H127346   4.847   3.931   5.553  1.5237  2.1404  1.5990
 1977TIP3    H227347   4.897   3.803   5.617 -0.7982 -1.0658 -2.4725
 1978TIP3   OH227348   6.699   0.840   6.126 -0.3399 -0.0884  0.0616
 1978TIP3    H127349   6.645   0.767   6.097 -1.0731  0.8989 -1.1769
 1978TIP3    H227350   6.638   0.898   6.172 -0.1130  0.4810 -0.3433
 1979TIP3   OH227351   0.613   1.491   5.576 -0.4196  0.4991 -0.6976
 1979TIP3    H127352   0.580   1.421   5.521  1.7136 -1.1045 -0.0887
 1979TIP3    H227353   0.671   1.542   5.518  0.5315 -0.1958 -0.3763
 1980TIP3   OH227354   2.524   1.552  14.951  0.0440  0.4672  0.1435
 1980TIP3    H127355   2.592   1.532  15.015 -1.2612 -2.5735  0.7741
 1980TIP3    H227356   2.491   1.466  14.923 -2.9164  1.7525 -0.7860
 1981TIP3   OH227357   4.699   2.608  14.334  0.3881  0.3438 -0.1842
 1981TIP3    H127358   4.690   2.599  14.239  0.8481  1.0857 -0.3029
 1981TIP3    H227359   4.635   2.675  14.357 -0.4066 -0.5188  0.1737
 1982TIP3   OH227360   2.437   3.928   3.664 -0.6650  0.0311  0.7540
 1982TIP3    H127361   2.485   3.846   3.673 -0.3617  0.1780  0.4642
 1982TIP3    H227362   2.351   3.903   3.630 -0.3646 -0.1057  0.0953
 1983TIP3   OH227363   1.750   1.892   4.436  0.1705  0.3914 -0.1618
 1983TIP3    H127364   1.681   1.893   4.369  1.1443  0.0611 -1.1946
 1983TIP3    H227365   1.709   1.850   4.511 -0.8700  0.5256 -0.6294
 1984TIP3   OH227366   2.926   5.937   3.644  0.1823 -0.4904 -0.9654
 1984TIP3    H127367   2.855   5.895   3.692  0.6365 -0.3899 -0.1840
 1984TIP3    H227368   3.005   5.895   3.677  0.7975  1.9166  0.9363
 1985TIP3   OH227369   4.089   6.693  14.681  0.1873  0.1654  0.4468
 1985TIP3    H127370   4.118   6.760  14.619  1.1541 -1.0610 -0.5000
 1985TIP3    H227371   3.994   6.695  14.676  0.1589  1.8501  0.9074
 1986TIP3   OH227372   0.120   0.964  12.057  0.4347  0.4595 -0.0667
 1986TIP3    H127373   0.073   0.932  12.134  0.9148 -3.2149 -1.0748
 1986TIP3    H227374   0.051   0.982  11.993  0.1447  1.1464  0.4330
 1987TIP3   OH227375   3.787   0.017   0.426  0.1090  0.1172 -0.4920
 1987TIP3    H127376   3.808   0.007   0.519  0.7576  0.7174 -0.5617
 1987TIP3    H227377   3.692   0.020   0.423  0.0195 -1.3851 -0.0188
 1988TIP3   OH227378   5.150   4.635   4.369  0.0388  0.3574  0.0853
 1988TIP3    H127379   5.146   4.562   4.308  0.1183  0.7728 -0.4249
 1988TIP3    H227380   5.163   4.712   4.314  2.6717  0.4969  0.7571
 1989TIP3   OH227381   0.526   6.227   5.402 -0.2636 -0.2490  0.6746
 1989TIP3    H127382   0.480   6.144   5.394 -0.3247 -0.1166 -0.4889
 1989TIP3    H227383   0.472   6.289   5.353  0.4896  0.1783  0.3697
 1990TIP3   OH227384   4.813   6.668   4.108 -0.2229 -0.0042 -0.0865
 1990TIP3    H127385   4.808   6.685   4.202  1.4993 -1.5995  0.3580
 1990TIP3    H227386   4.728   6.695   4.074 -0.3766  1.9869  1.6666
 1991TIP3   OH227387   1.364   3.525   3.080 -0.0432 -0.1156  0.5633
 1991TIP3    H127388   1.411   3.533   3.163 -0.8521  0.0174  1.0255
 1991TIP3    H227389   1.272   3.541   3.103 -0.3130 -0.3291 -0.3155
 1992TIP3   OH227390   2.871   2.740  16.414 -0.4057  0.4690 -0.3927
 1992TIP3    H127391   2.847   2.742  16.321  3.4113 -1.6512 -1.6527
 1992TIP3    H227392   2.931   2.813  16.425  0.1084 -0.0096  0.0675
 1993TIP3   OH227393   3.555   5.701  16.291  0.4620  0.2296  0.3837
 1993TIP3    H127394   3.545   5.795  16.306  1.3190  0.0777  2.2441
 1993TIP3    H227395   3.483   5.661  16.340 -0.0031 -0.0812 -0.5465
 1994TIP3   OH227396   5.507   4.302   2.204 -0.2144 -0.2144  0.4396
 1994TIP3    H127397   5.541   4.371   2.147 -0.1147  0.0860  0.8574
 1994TIP3    H227398   5.488   4.229   2.145  1.7088 -0.6164  0.2231
 1995TIP3   OH227399   5.844   4.908   2.657  0.2964  0.5861  0.1650
 1995TIP3    H127400   5.924   4.855   2.661 -0.3210 -0.5015 -1.0006
 1995TIP3    H227401   5.774   4.844   2.645 -0.2934  1.6618 -3.4525
 1996TIP3   OH227402   0.458   4.882  12.725 -0.2933  0.3167 -0.3462
 1996TIP3    H127403   0.374   4.835  12.727  0.1475 -0.4602  1.1016
 1996TIP3    H227404   0.451   4.947  12.794  0.9384 -0.9696  1.0696
 1997TIP3   OH227405   0.435   0.880  10.575 -0.0089 -0.3604  0.1758
 1997TIP3    H127406   0.476   0.794  10.568 -1.5864 -1.0253 -1.7077
 1997TIP3    H227407   0.506   0.942  10.557  0.6262 -1.3773 -0.9293
 1998TIP3   OH227408   4.767   2.870  13.259 -0.3784  0.2178 -0.0263
 1998TIP3    H127409   4.825   2.901  13.189 -2.2603  0.8342 -1.4202
 1998TIP3    H227410   4.742   2.949  13.306  0.7924 -0.1835  1.3325
 1999TIP3   OH227411   4.108   4.152  15.148  0.2091  0.3444  0.3155
 1999TIP3    H127412   4.077   4.073  15.190  0.8070  0.9871  2.0360
 1999TIP3    H227413   4.167   4.193  15.212  0.9046  1.5350 -1.0104
 2000TIP3   OH227414   5.697   4.997   5.607 -0.6134  0.0440 -0.1246
 2000TIP3    H127415   5.689   5.004   5.702 -1.4353  1.3897 -0.2706
 2000TIP3    H227416   5.788   4.971   5.592 -0.1456  0.9897  0.9853
 2001TIP3   OH227417   4.582   1.435   3.041 -0.0451  0.0643 -0.2899
 2001TIP3    H127418   4.590   1.345   3.008  0.4231  0.4649 -1.2884
 2001TIP3    H227419   4.618   1.431   3.130 -1.1253 -0.9799  0.1418
 2002TIP3   OH227420   5.014   3.412  15.222  0.1445 -0.1227 -0.0278
 2002TIP3    H127421   5.028   3.357  15.145  0.6160 -1.1278  0.7511
 2002TIP3    H227422   5.089   3.472  15.223  1.7790 -2.0381  1.2213
 2003TIP3   OH227423   0.556   3.219  11.876  0.0117  0.5074 -0.3870
 2003TIP3    H127424   0.557   3.218  11.780  0.7272 -0.2056 -0.3845
 2003TIP3    H227425   0.481   3.274  11.899  0.2772  1.2942 -1.3560
 2004TIP3   OH227426   2.344   1.468   1.461 -0.2181  0.0146 -0.0966
 2004TIP3    H127427   2.260   1.452   1.502 -0.4042  1.7361  0.2866
 2004TIP3    H227428   2.325   1.469   1.367 -0.4193 -0.6583 -0.0646
 2005TIP3   OH227429   1.744   4.085   4.521  0.6635 -0.5603  0.3604
 2005TIP3    H127430   1.711   4.067   4.608 -0.3271  1.7989  0.5498
 2005TIP3    H227431   1.825   4.134   4.535  0.3496  0.0814 -0.0368
 2006TIP3   OH227432   4.838   5.113   3.168  0.0157 -0.3365  0.1477
 2006TIP3    H127433   4.920   5.131   3.214 -0.5177  1.1460  0.5934
 2006TIP3    H227434   4.782   5.073   3.235 -0.5156  1.1503  0.6209
 2007TIP3   OH227435   6.645   1.542   5.543 -0.2141  0.0125  0.6868
 2007TIP3    H127436   6.694   1.514   5.466  0.8065  1.5298  0.7419
 2007TIP3    H227437   6.683   1.492   5.615 -0.2638 -0.4352  0.4067
 2008TIP3   OH227438   0.784   4.025   3.031  0.4126 -0.5622  0.0982
 2008TIP3    H127439   0.852   3.970   2.993  0.2983 -0.7334  0.1417
 2008TIP3    H227440   0.823   4.113   3.034  0.7531 -0.7223  0.4264
 2009TIP3   OH227441   2.210   4.382   2.980  1.0521  0.3230  0.0241
 2009TIP3    H127442   2.239   4.430   2.903  2.9042  1.4822  1.3641
 2009TIP3    H227443   2.223   4.290   2.957 -1.0256  0.4232 -1.9866
 2010TIP3   OH227444   0.283   4.183  12.760 -0.5766  0.0393  0.2355
 2010TIP3    H127445   0.195   4.218  12.770 -1.7531 -1.9064 -2.2339
 2010TIP3    H227446   0.291   4.165  12.666  2.9943  1.3962  0.1094
 2011TIP3   OH227447   6.140   5.030   4.155  0.0530 -0.0522  0.1718
 2011TIP3    H127448   6.166   5.000   4.242 -1.3684  0.7353  0.9071
 2011TIP3    H227449   6.184   5.114   4.144  1.0857 -0.6342 -0.3501
 2012TIP3   OH227450   6.487   0.377   1.994 -0.4855 -0.6842 -0.3111
 2012TIP3    H127451   6.539   0.328   1.930 -1.0991 -1.5094 -0.1951
 2012TIP3    H227452   6.533   0.460   2.003  1.5926 -1.8582  0.7506
 2013TIP3   OH227453   3.364   6.396   5.088  0.5603 -0.2746  0.2155
 2013TIP3    H127454   3.429   6.332   5.059  0.9394  0.1641  0.0842
 2013TIP3    H227455   3.348   6.450   5.010  1.1474  0.5453  0.6524
 2014TIP3   OH227456   0.476   1.522  13.085  0.4029  0.4025 -0.5413
 2014TIP3    H127457   0.433   1.475  13.156  0.1300  0.2335 -0.8152
 2014TIP3    H227458   0.522   1.595  13.128  0.1496  0.3645 -0.2083
 2015TIP3   OH227459   4.896   1.368  16.350  0.1054  0.0035  0.1317
 2015TIP3    H127460   4.835   1.354  16.278  2.1327  1.7106 -2.0464
 2015TIP3    H227461   4.961   1.298  16.341 -0.6804 -1.0013  1.6345
 2016TIP3   OH227462   5.913   5.879   2.731 -0.3989  0.3785  0.4164
 2016TIP3    H127463   6.003   5.883   2.765  0.2271 -1.6342 -0.8779
 2016TIP3    H227464   5.863   5.837   2.801  0.0462 -0.1323  0.4293
 2017TIP3   OH227465   5.444   3.144  11.467 -0.1708 -0.2689  0.1495
 2017TIP3    H127466   5.466   3.101  11.384  1.6148  0.1557  0.3632
 2017TIP3    H227467   5.353   3.121  11.482 -0.5090 -0.4552 -1.8742
 2018TIP3   OH227468   5.250   0.729   2.626 -0.3447 -0.5268  0.1953
 2018TIP3    H127469   5.241   0.678   2.545 -0.3485  0.2853 -0.3193
 2018TIP3    H227470   5.281   0.815   2.598 -0.5391 -0.1686  1.0390
 2019TIP3   OH227471   4.336   1.562  13.917 -0.5294 -0.6702 -0.2455
 2019TIP3    H127472   4.310   1.519  13.834 -2.9690 -1.6073  0.8907
 2019TIP3    H227473   4.253   1.573  13.964  0.8125 -0.3423  2.1627
 2020TIP3   OH227474   2.738   2.393   3.705  0.5496  0.8945  0.0312
 2020TIP3    H127475   2.805   2.441   3.656  0.1554  1.2705 -0.1409
 2020TIP3    H227476   2.677   2.362   3.638  0.0421  1.3561  0.2760
 2021TIP3   OH227477   1.783   3.379  16.113  0.3608 -0.4950 -0.9911
 2021TIP3    H127478   1.742   3.438  16.176  0.0431 -1.3237 -0.3987
 2021TIP3    H227479   1.852   3.336  16.164 -2.4388 -4.2128  0.1172
 2022TIP3   OH227480   3.422   6.021  15.860 -0.0459 -0.2447 -0.1403
 2022TIP3    H127481   3.352   6.086  15.860 -0.6177 -0.8306 -1.1602
 2022TIP3    H227482   3.502   6.072  15.860 -0.4789  0.4492 -0.1200
 2023TIP3   OH227483   3.477   6.312   3.229 -0.1817 -0.2384 -0.4719
 2023TIP3    H127484   3.506   6.289   3.141  0.6972 -0.3103 -0.1801
 2023TIP3    H227485   3.475   6.228   3.276  0.7035 -0.0449 -0.0576
 2024TIP3   OH227486   4.359   1.924  13.724  0.2966  0.0426 -0.5247
 2024TIP3    H127487   4.431   1.871  13.756  1.0682  0.3967 -1.6303
 2024TIP3    H227488   4.400   1.996  13.677 -0.7681  0.5613 -0.7086
 2025TIP3   OH227489   6.074   1.218  16.092  0.3929 -0.3703 -0.5906
 2025TIP3    H127490   6.132   1.158  16.139 -0.3153 -1.0085 -0.4996
 2025TIP3    H227491   6.009   1.161  16.052 -1.1591  0.4080  0.6970
 2026TIP3   OH227492   6.249   1.724  13.061 -0.0768  0.3856  0.0956
 2026TIP3    H127493   6.180   1.721  13.128 -0.0613  0.8189  0.1347
 2026TIP3    H227494   6.228   1.801  13.008 -0.1326 -0.0007 -0.4501
 2027TIP3   OH227495   4.268   2.165  11.183  0.3060  0.3194 -0.1226
 2027TIP3    H127496   4.299   2.125  11.264  1.5590  0.1240 -0.6688
 2027TIP3    H227497   4.311   2.251  11.181 -1.4743  1.2960  0.4859
 2028TIP3   OH227498   4.765   3.819  10.916  0.2713 -0.7753  0.6481
 2028TIP3    H127499   4.743   3.753  10.982  1.1055 -0.2167  1.5146
 2028TIP3    H227500   4.778   3.769  10.836  2.7688 -1.9511  1.6752
 2029TIP3   OH227501   5.003   1.476   1.981  0.3485 -0.0153 -0.1251
 2029TIP3    H127502   4.949   1.452   2.057  1.2278  0.7947  0.7795
 2029TIP3    H227503   4.952   1.445   1.906 -0.1551 -1.6038  0.8061
 2030TIP3   OH227504   1.340   2.917   1.498  0.4198  0.2815  0.1204
 2030TIP3    H127505   1.360   3.006   1.529 -0.4476  0.6058 -0.2042
 2030TIP3    H227506   1.382   2.860   1.561  1.4764  0.9220  0.0158
 2031TIP3   OH227507   5.421   6.129   0.682 -0.2631  0.3803 -0.0632
 2031TIP3    H127508   5.429   6.198   0.748 -0.4193 -0.9970  1.4459
 2031TIP3    H227509   5.486   6.063   0.706 -0.0109  0.0330 -1.5629
 2032TIP3   OH227510   2.038   5.093   4.364 -0.1446 -0.0920 -0.9069
 2032TIP3    H127511   1.978   5.111   4.437 -1.2738  2.2982 -2.2739
 2032TIP3    H227512   2.112   5.151   4.380  0.2056 -0.5119 -1.0071
 2033TIP3   OH227513   2.085   6.631   6.308  0.3737 -0.0796 -0.4359
 2033TIP3    H127514   2.058   6.632   6.216 -1.6958 -0.9149  0.1054
 2033TIP3    H227515   2.176   6.600   6.306  1.0020  1.6890 -2.2914
 2034TIP3   OH227516   3.421   2.886   5.531 -0.2333 -0.2292  0.1269
 2034TIP3    H127517   3.447   2.824   5.463 -0.5121 -0.4015  0.1762
 2034TIP3    H227518   3.342   2.928   5.496  0.6138  0.9486 -0.4253
 2035TIP3   OH227519   4.029   5.080   1.050  0.2346 -0.3165 -0.6751
 2035TIP3    H127520   3.947   5.099   1.094  0.0538 -2.7922  0.1881
 2035TIP3    H227521   4.097   5.101   1.114  0.1169 -1.1822 -0.2654
 2036TIP3   OH227522   0.403   5.877   4.995 -0.2076 -0.5611  0.2090
 2036TIP3    H127523   0.466   5.823   4.948  0.0830 -1.9738  2.0822
 2036TIP3    H227524   0.456   5.933   5.051 -0.5506 -1.1744  1.1824
 2037TIP3   OH227525   3.444   4.586   0.422  0.2491 -0.0948 -0.3933
 2037TIP3    H127526   3.453   4.681   0.412 -1.0553  0.0248 -0.5157
 2037TIP3    H227527   3.526   4.551   0.388  1.5746  1.0715  1.3782
 2038TIP3   OH227528   1.607   6.450   5.186  0.2850  0.0984 -0.2443
 2038TIP3    H127529   1.662   6.495   5.121  0.2253 -0.5391 -0.7443
 2038TIP3    H227530   1.654   6.462   5.269 -0.9538  3.2589  0.1476
 2039TIP3   OH227531   2.872   0.999  13.664 -0.4988  0.4009 -0.1244
 2039TIP3    H127532   2.882   1.074  13.723  0.6896  0.4776 -0.3914
 2039TIP3    H227533   2.804   1.025  13.603 -1.3302  0.5570  0.8437
 2040TIP3   OH227534   0.124   2.439  12.034  0.3862 -0.4221 -0.0465
 2040TIP3    H127535   0.198   2.469  12.086 -0.9448  0.9695  1.1484
 2040TIP3    H227536   0.048   2.451  12.091 -0.5908 -3.8174 -0.4115
 2041TIP3   OH227537   6.653   3.489   2.128  0.3124  0.2529  0.3443
 2041TIP3    H127538   6.609   3.510   2.046 -0.4080 -0.4282  0.5389
 2041TIP3    H227539   6.704   3.567   2.149  0.3113  0.5242 -0.6200
 2042TIP3   OH227540   6.324   3.166   5.925 -0.2400 -0.2540  0.3868
 2042TIP3    H127541   6.305   3.100   5.859  1.7900 -0.8379  0.3001
 2042TIP3    H227542   6.364   3.117   5.997  0.5587  0.7661  0.6665
 2043TIP3   OH227543   4.781   4.076   1.971 -0.3542  0.0872  0.7368
 2043TIP3    H127544   4.704   4.031   2.004 -1.1226  0.6992 -0.1683
 2043TIP3    H227545   4.816   4.017   1.904  1.1685 -1.1258  2.4973
 2044TIP3   OH227546   1.624   4.324  12.745 -0.0879 -0.3454  0.1391
 2044TIP3    H127547   1.539   4.333  12.788 -0.5731 -2.5848 -0.2327
 2044TIP3    H227548   1.682   4.292  12.813 -0.1118 -0.9660 -0.1240
 2045TIP3   OH227549   3.028   3.078  16.149  0.2174 -0.1808 -0.5593
 2045TIP3    H127550   2.955   3.131  16.119 -0.4292  0.6142  2.1299
 2045TIP3    H227551   3.097   3.092  16.084 -1.3183  0.6292 -2.0843
 2046TIP3   OH227552   2.942   0.757   5.121  0.1842 -0.0468  0.3671
 2046TIP3    H127553   2.866   0.736   5.066  0.4602 -0.0018 -0.0301
 2046TIP3    H227554   2.985   0.830   5.076 -0.2297  0.7564  1.2425
 2047TIP3   OH227555   5.278   1.392  17.013  0.4013  0.2166 -0.0179
 2047TIP3    H127556   5.343   1.402  17.083  0.1732 -2.0124  0.5709
 2047TIP3    H227557   5.216   1.327  17.047 -0.9980  0.7725 -1.4022
 2048TIP3   OH227558   1.748   2.204  17.004  0.0960  0.7636  0.5665
 2048TIP3    H127559   1.680   2.242  17.060 -0.5103 -2.0552  1.9602
 2048TIP3    H227560   1.709   2.204  16.916 -1.8758 -0.8501  1.3429
 2049TIP3   OH227561   3.246   6.684  10.969 -0.2553 -0.0834  0.9082
 2049TIP3    H127562   3.173   6.632  10.935  0.6853  0.5795 -2.5316
 2049TIP3    H227563   3.208   6.771  10.986 -0.5558 -0.1280  0.4777
 2050TIP3   OH227564   4.503   6.757   1.790  0.3502 -0.2374  0.1661
 2050TIP3    H127565   4.460   6.694   1.732  0.2837 -0.8522  0.8842
 2050TIP3    H227566   4.504   6.715   1.876 -1.2397  1.4103  1.0683
 2051TIP3   OH227567   5.360   3.459   3.717 -0.3652 -0.6670  0.2577
 2051TIP3    H127568   5.425   3.451   3.787 -1.8145  0.2533  1.7777
 2051TIP3    H227569   5.373   3.380   3.663  3.0883  0.2733 -0.5320
 2052TIP3   OH227570   1.622   4.524   0.822 -0.4108 -0.2224 -0.0992
 2052TIP3    H127571   1.563   4.493   0.753 -2.9368 -1.3280  2.3191
 2052TIP3    H227572   1.615   4.457   0.891  0.9642  1.4095  1.7544
 2053TIP3   OH227573   1.170   2.844  14.030 -0.0638  0.0309  0.0985
 2053TIP3    H127574   1.228   2.788  13.979 -1.7066 -3.1711  1.3948
 2053TIP3    H227575   1.105   2.875  13.968  1.1218  0.8934 -0.7384
 2054TIP3   OH227576   0.675   6.683  12.485  0.4104 -0.3609  0.2007
 2054TIP3    H127577   0.712   6.772  12.483  0.9315 -0.5801 -0.4076
 2054TIP3    H227578   0.643   6.669  12.396  0.4326 -0.8280  0.2650
 2055TIP3   OH227579   6.281   2.874   4.160 -0.3846  0.8617  0.4474
 2055TIP3    H127580   6.254   2.834   4.242 -1.2353  2.7586  1.1510
 2055TIP3    H227581   6.376   2.868   4.161 -0.4358 -0.0974  1.0452
 2056TIP3   OH227582   3.769   2.842   1.313  0.3475 -0.3932  0.4350
 2056TIP3    H127583   3.712   2.910   1.277  1.0012 -0.3788 -0.6330
 2056TIP3    H227584   3.790   2.787   1.238  2.8353  0.3955  0.4362
 2057TIP3   OH227585   5.098   1.102   3.017 -0.0017 -0.3334  0.4926
 2057TIP3    H127586   5.071   1.018   2.980 -1.6437  1.1497 -1.9651
 2057TIP3    H227587   5.182   1.120   2.975  0.8392 -1.1423  1.7719
 2058TIP3   OH227588   4.792   5.226  12.081 -0.1002 -0.6015  0.1988
 2058TIP3    H127589   4.878   5.234  12.041 -0.1849 -2.4805 -0.4592
 2058TIP3    H227590   4.809   5.196  12.171 -0.0166  1.2808  0.8598
 2059TIP3   OH227591   1.630   3.179   2.351  0.0577  0.6506 -0.1009
 2059TIP3    H127592   1.672   3.159   2.267 -0.7467  0.5178 -0.4830
 2059TIP3    H227593   1.545   3.136   2.346  0.3518 -0.1125  1.1627
 2060TIP3   OH227594   6.575   0.826  16.880 -0.0824 -0.2371 -0.3131
 2060TIP3    H127595   6.547   0.745  16.924  1.6937 -0.2486  0.8777
 2060TIP3    H227596   6.609   0.881  16.950  2.0861  0.0832 -1.5505
 2061TIP3   OH227597   1.395   1.456  16.647 -0.0348  0.0847 -0.4156
 2061TIP3    H127598   1.313   1.407  16.654  0.9274 -1.4645  0.7088
 2061TIP3    H227599   1.431   1.455  16.735  1.8010 -0.3779 -1.1256
 2062TIP3   OH227600   0.998   2.328  11.086 -0.4688 -0.1640 -0.3145
 2062TIP3    H127601   1.035   2.280  11.012  1.8071 -1.7288  1.6740
 2062TIP3    H227602   0.979   2.260  11.151 -3.1137  1.0680  0.3415
 2063TIP3   OH227603   2.592   6.420   3.015 -0.3054  0.6723 -0.0116
 2063TIP3    H127604   2.644   6.395   3.091  1.0811  1.5944 -0.6154
 2063TIP3    H227605   2.522   6.354   3.011  1.1765 -1.0092  0.4632
 2064TIP3   OH227606   5.060   3.418   4.208 -0.1069  0.3759 -0.1766
 2064TIP3    H127607   5.133   3.356   4.198 -1.1951 -1.0367  0.2326
 2064TIP3    H227608   4.989   3.365   4.244 -1.1108  1.8825  0.1555
 2065TIP3   OH227609   4.127   4.971  14.073  0.5831 -0.1508  0.6364
 2065TIP3    H127610   4.049   4.916  14.080  1.1273 -1.2393 -1.2391
 2065TIP3    H227611   4.102   5.039  14.011  0.8708 -0.0449  0.6364
 2066TIP3   OH227612   3.011   2.853  14.945  0.2009  0.2296 -0.6421
 2066TIP3    H127613   2.985   2.789  14.879  0.5489 -1.8791  1.1594
 2066TIP3    H227614   2.943   2.921  14.941 -2.3334 -2.1012 -0.1519
 2067TIP3   OH227615   0.843   6.645   5.915 -0.1451 -0.3601 -0.3431
 2067TIP3    H127616   0.841   6.596   5.997 -0.7655 -0.8381 -0.6347
 2067TIP3    H227617   0.779   6.716   5.927  0.6560  0.3076  0.0300
 2068TIP3   OH227618   6.613   5.183   5.026 -0.8960 -0.3253 -0.5032
 2068TIP3    H127619   6.667   5.133   5.087 -1.8099 -2.3988 -1.3065
 2068TIP3    H227620   6.536   5.208   5.077 -1.2345 -1.2626 -0.5389
 2069TIP3   OH227621   6.730   3.297  14.924  0.0875 -0.3423 -0.1912
 2069TIP3    H127622   6.698   3.310  14.835  2.3358 -2.5123 -1.4544
 2069TIP3    H227623   6.661   3.247  14.967 -0.3172 -0.7598 -1.2924
 2070TIP3   OH227624   2.518   0.620  13.691  0.4772  0.0438 -0.0803
 2070TIP3    H127625   2.488   0.711  13.695  0.4637  0.0120  0.8441
 2070TIP3    H227626   2.597   0.619  13.745  0.6735 -0.4186 -0.3747
 2071TIP3   OH227627   1.715   2.740  17.204  0.0156  0.0105  0.6829
 2071TIP3    H127628   1.779   2.770  17.140 -0.4805 -1.1369 -0.3972
 2071TIP3    H227629   1.764   2.683  17.264  0.0039 -1.0216 -0.2541
 2072TIP3   OH227630   2.277   6.101   0.505 -0.4464 -0.2050 -0.4144
 2072TIP3    H127631   2.234   6.080   0.422 -0.0072 -2.0474 -0.2263
 2072TIP3    H227632   2.348   6.037   0.512  0.6008  1.0153  0.5782
 2073TIP3   OH227633   1.876   2.055   0.752  0.2583  0.0758 -0.3445
 2073TIP3    H127634   1.882   2.150   0.738  0.7522 -0.1510 -1.8403
 2073TIP3    H227635   1.788   2.032   0.724 -0.2822  0.2364  1.1321
 2074TIP3   OH227636   4.105   3.345  14.897 -0.0871 -0.2292 -0.8154
 2074TIP3    H127637   4.154   3.426  14.915 -0.7250  0.1777 -0.8753
 2074TIP3    H227638   4.065   3.323  14.981  0.0088 -0.4324 -0.8228
 2075TIP3   OH227639   5.811   4.584  14.192 -0.0361 -0.0963 -0.0214
 2075TIP3    H127640   5.869   4.659  14.178  0.8364 -1.2261 -3.2860
 2075TIP3    H227641   5.726   4.612  14.158  0.3459 -0.5901 -1.4509
 2076TIP3   OH227642   2.936   3.868   0.893 -0.1381  0.1843  0.2372
 2076TIP3    H127643   2.856   3.893   0.938 -0.6884 -2.0316  0.5918
 2076TIP3    H227644   2.997   3.845   0.963 -0.1456 -0.8423 -0.0833
 2077TIP3   OH227645   3.816   3.451   0.413 -0.2623  0.0552  0.4995
 2077TIP3    H127646   3.869   3.494   0.346 -0.9278 -1.3149 -0.9525
 2077TIP3    H227647   3.827   3.507   0.490  0.3420  1.8244 -0.7819
 2078TIP3   OH227648   3.711   3.781  12.405  0.6259 -0.9307 -0.3995
 2078TIP3    H127649   3.738   3.723  12.476 -0.9950 -0.0888  0.9537
 2078TIP3    H227650   3.683   3.721  12.335  2.1667 -1.7620 -0.3569
 2079TIP3   OH227651   5.148   0.237  14.162  0.3071 -0.3113  0.0353
 2079TIP3    H127652   5.144   0.332  14.152  0.3404 -0.1163  1.5889
 2079TIP3    H227653   5.240   0.219  14.181  0.4479 -0.7598 -1.0028
 2080TIP3   OH227654   2.792   2.423  12.513  0.2784 -0.2031 -0.1616
 2080TIP3    H127655   2.878   2.381  12.516  1.0072  1.2701  0.2259
 2080TIP3    H227656   2.784   2.467  12.597 -0.1416  1.0248 -0.8177
 2081TIP3   OH227657   2.211   1.911   5.724  0.0166 -0.0466 -0.1991
 2081TIP3    H127658   2.130   1.953   5.751 -0.9748 -0.5741 -2.1461
 2081TIP3    H227659   2.206   1.906   5.629  1.5643 -1.6129 -0.2758
 2082TIP3   OH227660   5.692   6.680  13.727  0.5150  0.2201 -0.7714
 2082TIP3    H127661   5.631   6.615  13.762  1.5181 -0.7481 -0.8018
 2082TIP3    H227662   5.666   6.762  13.770  1.1309 -0.7387  1.6085
 2083TIP3   OH227663   0.072   6.649  15.686  0.0143 -0.5213 -0.0961
 2083TIP3    H127664   0.137   6.680  15.749  0.3338 -0.2277 -0.5677
 2083TIP3    H227665   0.107   6.566  15.655  2.7514  1.7752 -4.0023
 2084TIP3   OH227666   4.966   0.197  12.606 -0.8170 -0.1105  0.3183
 2084TIP3    H127667   4.931   0.212  12.694 -1.9180 -0.0661 -0.1023
 2084TIP3    H227668   4.973   0.284  12.568  0.2909 -0.0778  0.5844
 2085TIP3   OH227669   5.945   5.542   1.476  0.3357  0.0797 -0.4637
 2085TIP3    H127670   5.934   5.541   1.571 -0.2768 -0.0944 -0.5269
 2085TIP3    H227671   5.885   5.610   1.447 -0.8889 -1.1253 -0.8692
 2086TIP3   OH227672   2.422   6.423  13.863  0.4999 -0.1473 -0.0006
 2086TIP3    H127673   2.437   6.510  13.828  1.5705 -0.7031 -0.9584
 2086TIP3    H227674   2.458   6.363  13.798 -2.0556 -1.4330 -0.3968
 2087TIP3   OH227675   5.584   1.409   4.555  0.5474  0.4436 -0.1334
 2087TIP3    H127676   5.614   1.325   4.521  0.2567  0.5574 -0.6907
 2087TIP3    H227677   5.643   1.473   4.516 -1.6548  0.9130 -3.0558
 2088TIP3   OH227678   2.163   5.146  15.224  0.4817  0.2516 -0.1269
 2088TIP3    H127679   2.127   5.232  15.202  1.3009  0.7838  0.5542
 2088TIP3    H227680   2.210   5.118  15.146  0.5964  0.6312 -0.1943
 2089TIP3   OH227681   3.212   1.127  14.990  0.1713  0.2454  0.0772
 2089TIP3    H127682   3.119   1.141  14.974  0.0198  0.6138  1.1877
 2089TIP3    H227683   3.234   1.048  14.939 -0.8807 -0.1856  0.2675
 2090TIP3   OH227684   2.896   5.255  11.321  0.1780 -0.3720  0.1727
 2090TIP3    H127685   2.808   5.293  11.322  0.5410  0.4575  0.7320
 2090TIP3    H227686   2.888   5.180  11.261 -0.6795  0.2275 -0.4903
 2091TIP3   OH227687   1.093   0.992   5.701  0.4222 -0.7431  0.0732
 2091TIP3    H127688   1.028   0.982   5.632 -2.2059  0.4526  2.2104
 2091TIP3    H227689   1.109   0.903   5.732  1.1444 -1.2172 -1.5940
 2092TIP3   OH227690   6.404   5.134   2.359 -0.0148 -0.3987 -0.3631
 2092TIP3    H127691   6.487   5.089   2.369 -0.3960 -0.9803  0.2268
 2092TIP3    H227692   6.340   5.064   2.343 -0.2566  0.0997 -1.7534
 2093TIP3   OH227693   4.610   6.504  13.684  0.0729  0.2741  0.3615
 2093TIP3    H127694   4.597   6.411  13.667 -1.8078  0.5724 -0.0488
 2093TIP3    H227695   4.673   6.507  13.755  1.0556 -1.2728 -0.3845
 2094TIP3   OH227696   1.924   0.718  16.424  0.1074 -0.1401 -0.0533
 2094TIP3    H127697   1.965   0.643  16.465 -1.8356 -0.7299  0.9396
 2094TIP3    H227698   1.835   0.689  16.403 -0.2222  1.4146 -1.0030
 2095TIP3   OH227699   0.735   4.763  12.019  0.1267  0.0441  0.4485
 2095TIP3    H127700   0.769   4.840  11.972  1.2432 -0.6379  0.0909
 2095TIP3    H227701   0.692   4.711  11.952  0.2579 -0.1275  0.4968
 2096TIP3   OH227702   2.057   6.569   5.152 -0.1246 -0.2110 -0.6502
 2096TIP3    H127703   2.074   6.531   5.238  0.2372  1.0958 -0.1247
 2096TIP3    H227704   2.138   6.615   5.129 -0.8544  1.0570 -0.8064
 2097TIP3   OH227705   2.206   5.865  11.169 -0.4024 -0.0874 -0.0444
 2097TIP3    H127706   2.176   5.892  11.082 -0.4032  0.5250  0.1420
 2097TIP3    H227707   2.286   5.815  11.152 -0.4101  0.0164 -0.3940
 2098TIP3   OH227708   5.210   6.638   4.406 -0.1967 -0.0942  0.3086
 2098TIP3    H127709   5.179   6.677   4.324  1.1451 -1.8904 -1.1272
 2098TIP3    H227710   5.162   6.556   4.413 -0.1699 -0.0377  1.2716
 2099TIP3   OH227711   5.589   0.627   2.554  0.4835  0.2882 -0.7070
 2099TIP3    H127712   5.517   0.651   2.495  0.4571 -0.7461 -1.1227
 2099TIP3    H227713   5.635   0.709   2.570  0.6585  0.5700 -2.4052
 2100TIP3   OH227714   4.093   6.068   2.943 -0.1791  0.2095 -0.6153
 2100TIP3    H127715   4.181   6.097   2.965 -0.0922  0.1950 -0.9267
 2100TIP3    H227716   4.078   5.992   2.999  0.1479 -0.0045 -0.8114
 2101TIP3   OH227717   6.437   3.451   1.404 -0.2855  0.3557  0.0121
 2101TIP3    H127718   6.475   3.528   1.446  1.3350  0.4380 -1.4975
 2101TIP3    H227719   6.370   3.486   1.345  0.7623  0.6785 -1.0103
 2102TIP3   OH227720   0.715   4.410  14.435 -0.1723 -0.2010  0.1008
 2102TIP3    H127721   0.730   4.371  14.349  0.4823 -2.2929  1.0906
 2102TIP3    H227722   0.658   4.347  14.480  1.2983 -0.3019  1.9392
 2103TIP3   OH227723   6.377   4.852   1.449 -0.4953 -0.1975 -0.4409
 2103TIP3    H127724   6.453   4.896   1.413  0.0938 -1.6360 -1.0344
 2103TIP3    H227725   6.411   4.803   1.524 -0.8316 -0.8023 -0.6713
 2104TIP3   OH227726   0.981   6.759   1.824 -0.2834  0.1334  0.2058
 2104TIP3    H127727   1.069   6.723   1.813 -0.5105 -0.8790  1.3859
 2104TIP3    H227728   0.923   6.682   1.821 -1.2021  0.8439 -1.1434
 2105TIP3   OH227729   3.217   4.647   3.917  0.0634 -0.4162  0.1562
 2105TIP3    H127730   3.227   4.684   3.830 -1.9866  2.9831  1.1712
 2105TIP3    H227731   3.291   4.681   3.967  0.2578 -0.8891  0.1988
 2106TIP3   OH227732   0.308   6.017   3.858  0.1527 -0.7604 -0.2033
 2106TIP3    H127733   0.279   6.079   3.792  0.2390 -0.0040  0.4508
 2106TIP3    H227734   0.305   5.932   3.815  1.2216 -0.1634 -1.5175
 2107TIP3   OH227735   5.072   1.452   2.650 -0.3462 -0.0079 -0.3259
 2107TIP3    H127736   5.158   1.445   2.691  0.4153  0.6974 -1.7494
 2107TIP3    H227737   5.014   1.481   2.721  0.6139 -0.2754  0.5897
 2108TIP3   OH227738   0.227   0.638   1.027  0.6924  0.3243 -0.1118
 2108TIP3    H127739   0.240   0.731   1.007 -0.7538  0.7002  0.6217
 2108TIP3    H227740   0.140   0.633   1.065  0.9139 -1.2874  0.2555
 2109TIP3   OH227741   5.958   0.251  17.098 -0.0530 -0.5475 -0.1519
 2109TIP3    H127742   5.941   0.165  17.137  0.9786 -1.1446 -0.9798
 2109TIP3    H227743   6.010   0.297  17.163 -0.5036 -0.5843  0.2434
 2110TIP3   OH227744   6.262   0.195  15.596  0.4608 -0.4261 -0.7474
 2110TIP3    H127745   6.197   0.265  15.611 -0.0831 -1.1187  0.3061
 2110TIP3    H227746   6.305   0.219  15.514  1.5206  2.1072  0.4169
 2111TIP3   OH227747   6.705   3.285   5.683  0.4837 -0.5980  0.5631
 2111TIP3    H127748   6.798   3.278   5.664  0.3761 -0.4088 -0.0455
 2111TIP3    H227749   6.665   3.215   5.631  0.4349 -1.7067  2.0101
 2112TIP3   OH227750   0.095   2.714  13.566  0.3202  0.2464 -0.3614
 2112TIP3    H127751   0.079   2.619  13.567  0.1997  0.2656 -0.0523
 2112TIP3    H227752   0.190   2.723  13.560  0.4196  0.0852  0.6707
 2113TIP3   OH227753   3.168   3.521   5.866 -0.0820 -0.3910 -0.0098
 2113TIP3    H127754   3.107   3.525   5.793 -0.7807  3.2672  0.6067
 2113TIP3    H227755   3.114   3.528   5.944  0.9208 -0.0370  0.6800
 2114TIP3   OH227756   0.579   2.006   4.733 -0.1137 -0.0004  0.2477
 2114TIP3    H127757   0.589   2.093   4.771  1.1966 -0.1053  0.2038
 2114TIP3    H227758   0.518   1.961   4.791 -0.4243  0.7872  0.5463
 2115TIP3   OH227759   1.615   2.282  13.339 -0.3191 -0.4140 -0.1546
 2115TIP3    H127760   1.539   2.335  13.315  0.2396  0.5715  0.2356
 2115TIP3    H227761   1.656   2.261  13.255 -0.6599 -0.4272 -0.3231
 2116TIP3   OH227762   2.203   5.635  15.300  0.0217  0.2396  0.3997
 2116TIP3    H127763   2.267   5.577  15.260  1.5753  1.7575  0.5515
 2116TIP3    H227764   2.235   5.648  15.390  0.1488  1.8649  0.1544
 2117TIP3   OH227765   3.506   4.063  15.326  0.0957 -0.1109  0.9053
 2117TIP3    H127766   3.548   4.139  15.366  0.3403 -0.5892  1.5778
 2117TIP3    H227767   3.577   3.999  15.316 -0.3888 -0.7967  1.7263
 2118TIP3   OH227768   1.582   2.343  14.044 -0.3174 -0.1472  0.3438
 2118TIP3    H127769   1.519   2.307  13.980  0.5075  2.0795 -1.8876
 2118TIP3    H227770   1.666   2.338  14.000  0.5368  0.1596  1.8843
 2119TIP3   OH227771   1.110   2.750   4.783  0.2878 -0.0485  0.4897
 2119TIP3    H127772   1.062   2.729   4.703  0.7248 -1.8148  0.6566
 2119TIP3    H227773   1.094   2.844   4.796 -2.8100 -0.4347  0.3554
 2120TIP3   OH227774   3.587   3.393  12.410  0.2927 -0.6500  0.5424
 2120TIP3    H127775   3.588   3.328  12.340  0.9136  2.9996 -3.2993
 2120TIP3    H227776   3.497   3.425  12.411  0.6437  0.4029  0.1788
 2121TIP3   OH227777   5.839   6.771  16.677  0.2401  0.8137 -0.6928
 2121TIP3    H127778   5.927   6.744  16.702  0.4624  1.6045 -0.5957
 2121TIP3    H227779   5.846   6.794  16.584 -0.5650 -2.0347 -1.5718
 2122TIP3   OH227780   3.363   3.755  12.514 -0.7464  0.6751  0.2399
 2122TIP3    H127781   3.345   3.795  12.599 -0.7952  1.3748 -0.0928
 2122TIP3    H227782   3.403   3.825  12.462 -0.4801  0.1832 -0.2304
 2123TIP3   OH227783   6.428   4.173  13.062  0.0459  0.3687 -0.1601
 2123TIP3    H127784   6.504   4.213  13.103 -0.7102  2.5463 -0.7432
 2123TIP3    H227785   6.464   4.102  13.008  1.3094 -0.6330  1.8787
 2124TIP3   OH227786   6.756   3.748  12.000 -0.5668  0.5213 -0.1727
 2124TIP3    H127787   6.677   3.702  12.030 -1.2464  1.7475 -0.0117
 2124TIP3    H227788   6.728   3.839  11.990  0.2883  0.6293 -2.1075
 2125TIP3   OH227789   2.987   2.489  12.002  0.3752  0.6962  0.1797
 2125TIP3    H127790   3.069   2.511  12.048 -0.5129  1.9955  1.1982
 2125TIP3    H227791   2.919   2.497  12.068 -0.6807  0.2698 -0.8165
 2126TIP3   OH227792   3.381   4.371  14.756  0.2427 -0.4148 -0.0225
 2126TIP3    H127793   3.421   4.429  14.691 -0.0843 -1.2837 -1.0272
 2126TIP3    H227794   3.438   4.378  14.833  2.2508 -1.4403 -1.3314
 2127TIP3   OH227795   5.900   1.901   1.342  0.1143  0.5377 -0.6461
 2127TIP3    H127796   5.970   1.943   1.392 -1.1522  0.6177  1.1497
 2127TIP3    H227797   5.838   1.972   1.323  0.4690  0.4681 -2.2130
 2128TIP3   OH227798   4.810   3.162   3.443 -0.5120 -0.3796 -0.4880
 2128TIP3    H127799   4.885   3.103   3.442 -0.7998 -0.7437 -0.9262
 2128TIP3    H227800   4.734   3.105   3.435 -0.7579  0.0931 -1.8283
 2129TIP3   OH227801   0.111   3.348   1.596 -0.2557 -0.3582  0.1908
 2129TIP3    H127802   0.021   3.331   1.623 -0.1352  1.6655  2.2539
 2129TIP3    H227803   0.115   3.444   1.589  2.0182 -0.2810  1.5395
 2130TIP3   OH227804   4.119   6.299   3.450 -0.3262 -0.1005 -0.4568
 2130TIP3    H127805   4.061   6.321   3.377  1.6100 -1.0601 -2.3932
 2130TIP3    H227806   4.079   6.222   3.491 -0.3037 -0.9608 -1.9841
 2131TIP3   OH227807   0.880   4.620   6.904 -0.5991  0.4368  0.1791
 2131TIP3    H127808   0.875   4.545   6.844  0.8647  0.9365 -0.6307
 2131TIP3    H227809   0.840   4.589   6.985  2.4034 -2.2620  0.8501
 2132TIP3   OH227810   1.495   4.022  13.600 -0.1751  0.3511  0.5515
 2132TIP3    H127811   1.420   3.966  13.619 -0.8212  0.2754 -1.9285
 2132TIP3    H227812   1.456   4.105  13.572  0.6665  0.4765 -0.2786
 2133TIP3   OH227813   4.610   5.375  14.448  0.6130  0.0057  0.2988
 2133TIP3    H127814   4.577   5.360  14.537 -0.0690  0.7635  0.1922
 2133TIP3    H227815   4.705   5.385  14.459  1.0551 -3.3013  0.4661
 2134TIP3   OH227816   4.427   4.005   5.966 -0.6567  0.0203 -0.2304
 2134TIP3    H127817   4.403   4.005   6.058 -0.3780 -2.2118 -0.1140
 2134TIP3    H227818   4.346   4.030   5.920 -1.1545 -0.1443  0.5425
 2135TIP3   OH227819   5.692   1.700  12.641  0.4906  0.3958 -0.0358
 2135TIP3    H127820   5.711   1.609  12.621  0.3850 -0.0110  1.5836
 2135TIP3    H227821   5.774   1.734  12.677  0.2020  0.5942  0.4521
 2136TIP3   OH227822   6.540   3.433   3.217  0.0742 -0.0504 -0.2519
 2136TIP3    H127823   6.468   3.385   3.175 -1.6803  0.7235  1.6315
 2136TIP3    H227824   6.499   3.514   3.249  1.9133  0.6552  0.4687
 2137TIP3   OH227825   3.028   2.279  11.763  0.0802  0.1604 -0.0040
 2137TIP3    H127826   3.121   2.299  11.778  0.2270  0.1694 -0.8466
 2137TIP3    H227827   2.994   2.356  11.717 -0.2547 -0.0027 -0.0305
 2138TIP3   OH227828   4.685   4.164   4.886 -0.2391  0.4468 -0.1703
 2138TIP3    H127829   4.612   4.125   4.838  0.3128  0.6057 -1.1789
 2138TIP3    H227830   4.757   4.166   4.823  0.8251 -0.2502  0.9748
 2139TIP3   OH227831   4.478   1.915   2.384  0.0242 -0.2186 -0.3643
 2139TIP3    H127832   4.555   1.923   2.440 -1.0146  0.6283  1.0198
 2139TIP3    H227833   4.447   1.826   2.397 -0.5869  0.1672  0.9739
 2140TIP3   OH227834   1.655   0.264  13.713 -0.1078  0.1686 -1.3513
 2140TIP3    H127835   1.649   0.172  13.689  0.2324 -0.2092 -0.0710
 2140TIP3    H227836   1.610   0.270  13.798 -0.2329  1.2005 -1.4760
 2141TIP3   OH227837   2.256   3.199  14.329  0.6336 -0.0552 -0.2635
 2141TIP3    H127838   2.244   3.226  14.238  0.9364 -1.4870 -0.7591
 2141TIP3    H227839   2.272   3.105  14.324  0.7782 -0.1387  1.2697
 2142TIP3   OH227840   2.644   5.028   4.038  0.3339  0.0496  0.6914
 2142TIP3    H127841   2.576   4.975   4.080  0.0478  1.2403  1.8170
 2142TIP3    H227842   2.705   5.049   4.109  0.9905  0.3657  0.0483
 2143TIP3   OH227843   4.978   3.424  14.738  0.4398 -0.3681  0.2384
 2143TIP3    H127844   4.890   3.434  14.774  0.0833 -0.2814 -0.6242
 2143TIP3    H227845   4.975   3.473  14.655  1.2533 -0.4974  0.1260
 2144TIP3   OH227846   5.096   4.134   3.266 -0.0824 -0.6702 -0.0434
 2144TIP3    H127847   5.008   4.099   3.252  0.4572 -1.9453 -0.3847
 2144TIP3    H227848   5.111   4.123   3.360  0.0702 -1.3421 -0.1430
 2145TIP3   OH227849   3.141   4.049  14.721 -0.2686 -0.2888  0.9222
 2145TIP3    H127850   3.113   3.965  14.683  0.8144 -0.3430  0.1961
 2145TIP3    H227851   3.222   4.028  14.768  1.6295  0.7740 -1.6103
 2146TIP3   OH227852   0.041   4.883   1.487  0.1298  0.3128 -0.4892
 2146TIP3    H127853   0.101   4.871   1.413 -0.2399  0.1874 -0.7702
 2146TIP3    H227854   0.078   4.958   1.535 -0.3967  1.3109 -1.5869
 2147TIP3   OH227855   2.308   4.428   5.686 -0.2728  0.0921 -0.1863
 2147TIP3    H127856   2.343   4.506   5.731 -2.4932  0.9234  0.2132
 2147TIP3    H227857   2.308   4.360   5.754  4.2001 -1.2205 -1.1933
 2148TIP3   OH227858   6.273   3.580  11.896 -0.1061 -0.5856  0.4570
 2148TIP3    H127859   6.208   3.540  11.955 -0.0628  0.1311  1.0094
 2148TIP3    H227860   6.222   3.609  11.820 -0.2739 -0.9109  0.4462
 2149TIP3   OH227861   5.352   5.564  15.327 -0.2999  0.0219 -0.5798
 2149TIP3    H127862   5.328   5.525  15.243 -1.1961  0.8020 -0.7057
 2149TIP3    H227863   5.448   5.569  15.325 -0.2700 -0.6737 -1.2223
 2150TIP3   OH227864   6.582   5.442   0.127  0.6412 -0.1530 -0.7018
 2150TIP3    H127865   6.570   5.408   0.215 -0.3520  0.6597 -0.4942
 2150TIP3    H227866   6.568   5.367   0.070 -0.0091 -0.4225 -0.2002
 2151TIP3   OH227867   3.226   4.275  11.680  0.8098 -0.3275 -0.0052
 2151TIP3    H127868   3.181   4.191  11.666  0.1223 -0.1828  1.2403
 2151TIP3    H227869   3.198   4.330  11.607 -1.5349 -0.0531  1.0114
 2152TIP3   OH227870   5.814   5.691   5.547 -0.0400 -0.2871  0.0909
 2152TIP3    H127871   5.806   5.764   5.609  2.4546  0.5840 -0.4837
 2152TIP3    H227872   5.733   5.693   5.497 -0.3112  1.7232  0.5114
 2153TIP3   OH227873   2.238   4.896   3.225 -0.7907  0.1222 -0.0004
 2153TIP3    H127874   2.145   4.888   3.248 -1.4437  1.2148 -2.0626
 2153TIP3    H227875   2.257   4.817   3.175 -1.5112  1.2710 -2.2223
 2154TIP3   OH227876   2.619   1.597   1.383  0.6849  0.2674 -0.2562
 2154TIP3    H127877   2.643   1.675   1.333  0.2172 -0.1704 -1.1820
 2154TIP3    H227878   2.523   1.599   1.387  0.6717 -0.2175 -0.2314
 2155TIP3   OH227879   3.441   3.779   5.883 -0.1176  0.2255 -0.1980
 2155TIP3    H127880   3.443   3.684   5.888  0.7248  0.2611  0.3910
 2155TIP3    H227881   3.405   3.798   5.797  1.3744 -0.6520 -1.0674
 2156TIP3   OH227882   5.246   3.545   4.583 -0.0178 -0.8820  0.1722
 2156TIP3    H127883   5.151   3.530   4.574 -0.2061  0.4381 -0.1914
 2156TIP3    H227884   5.269   3.501   4.665 -1.4772  0.9975  1.6975
 2157TIP3   OH227885   5.196   6.758  13.065 -0.0015  0.3559 -0.1175
 2157TIP3    H127886   5.191   6.714  12.980 -1.7917  0.9889 -0.3880
 2157TIP3    H227887   5.260   6.707  13.115 -1.2148 -1.9406 -0.7681
 2158TIP3   OH227888   2.253   0.224   1.269 -0.2005  0.0263  0.4190
 2158TIP3    H127889   2.294   0.298   1.313 -0.3832  0.0863  0.4879
 2158TIP3    H227890   2.306   0.149   1.293 -0.3320  0.0502  0.7872
 2159TIP3   OH227891   1.692   6.254   3.434  0.1585  0.4041  0.2175
 2159TIP3    H127892   1.752   6.253   3.359 -0.3124 -2.3088 -0.2291
 2159TIP3    H227893   1.748   6.234   3.509 -0.0709 -2.1365 -0.2001
 2160TIP3   OH227894   2.359   3.755  17.053 -0.2882 -0.0358  0.0646
 2160TIP3    H127895   2.435   3.791  17.099 -0.3270  1.4773 -0.9917
 2160TIP3    H227896   2.378   3.661  17.044  1.3284  0.2716  0.0495
 2161TIP3   OH227897   6.136   6.473   0.033  0.4758  0.0820 -0.5547
 2161TIP3    H127898   6.151   6.415   0.108 -1.0691 -1.0457 -1.0774
 2161TIP3    H227899   6.215   6.463  -0.021  0.8273 -0.4675  0.0389
 2162TIP3   OH227900   1.885   5.023  16.373  0.2390 -0.2067  0.1126
 2162TIP3    H127901   1.838   4.949  16.333  0.6902 -0.2871 -0.2714
 2162TIP3    H227902   1.929   5.066  16.300  1.0292 -0.3180  0.5129
 2163TIP3   OH227903   0.074   1.453   1.728  0.1835  0.1442 -0.5904
 2163TIP3    H127904   0.084   1.536   1.682  2.3654  0.8476  0.9742
 2163TIP3    H227905   0.035   1.477   1.812  1.1862 -0.3261  0.0250
 2164TIP3   OH227906   2.755   0.878  15.315  0.7949  0.1545  0.1636
 2164TIP3    H127907   2.775   0.873  15.221  1.9975 -0.7907  0.4324
 2164TIP3    H227908   2.790   0.796  15.350  0.5456  0.5962  1.4730
 2165TIP3   OH227909   1.321   2.241  16.209 -0.7622 -0.1522 -0.3056
 2165TIP3    H127910   1.370   2.163  16.233 -2.4151 -0.5562  2.1046
 2165TIP3    H227911   1.241   2.207  16.168 -1.4895  0.2378  0.7504
 2166TIP3   OH227912   5.884   5.339   0.570  0.5014 -0.3149 -0.2734
 2166TIP3    H127913   5.956   5.366   0.514  0.0783 -1.5239 -1.4660
 2166TIP3    H227914   5.807   5.384   0.534  0.5805  0.7217  0.7961
 2167TIP3   OH227915   3.598   5.300  16.629 -0.1976 -0.2663 -0.2633
 2167TIP3    H127916   3.534   5.246  16.583  0.0073  0.2217 -1.1338
 2167TIP3    H227917   3.683   5.265  16.601 -0.0630  0.5323 -0.8838
 2168TIP3   OH227918   2.119   0.492  10.798  0.3747  0.7150  0.1342
 2168TIP3    H127919   2.121   0.429  10.726 -0.1775  1.3391 -0.4408
 2168TIP3    H227920   2.116   0.438  10.877 -0.3934  0.0220 -0.3591
 2169TIP3   OH227921   4.273   0.958   2.835 -0.2272 -0.0964  0.6457
 2169TIP3    H127922   4.321   1.034   2.802 -3.4842  0.3065 -4.3186
 2169TIP3    H227923   4.194   0.995   2.875 -0.2824 -0.8233  1.2252
 2170TIP3   OH227924   5.247   1.001  15.594  0.2012  0.0686  0.6655
 2170TIP3    H127925   5.262   1.068  15.661 -0.1841  1.1787 -0.3195
 2170TIP3    H227926   5.273   0.919  15.636  0.7774  0.8365  1.8739
 2171TIP3   OH227927   5.229   1.390  13.541  0.1362 -0.7694 -0.0046
 2171TIP3    H127928   5.323   1.381  13.526  0.5327 -0.0235  1.8092
 2171TIP3    H227929   5.193   1.305  13.515  1.2613 -1.0005 -0.9165
 2172TIP3   OH227930   3.204   2.329  10.583 -0.7500 -0.1635  0.1069
 2172TIP3    H127931   3.286   2.369  10.612 -1.5437  2.0455 -0.5224
 2172TIP3    H227932   3.143   2.402  10.574 -2.3067 -1.5257 -1.1180
 2173TIP3   OH227933   6.414   4.287  11.130  0.1153 -0.1552  0.0390
 2173TIP3    H127934   6.474   4.292  11.204  0.8828  1.3498 -0.6338
 2173TIP3    H227935   6.340   4.342  11.155 -0.3125 -0.8019  0.2448
 2174TIP3   OH227936   1.076   5.041   6.127  0.2786  0.0726  0.0433
 2174TIP3    H127937   0.994   5.067   6.170  0.2437 -0.0895  0.0732
 2174TIP3    H227938   1.097   4.955   6.164 -1.7336 -1.8769 -2.9003
 2175TIP3   OH227939   2.434   1.445  12.805  0.1655  0.1849  0.7897
 2175TIP3    H127940   2.464   1.367  12.851 -1.2833 -0.1356  1.2542
 2175TIP3    H227941   2.460   1.518  12.861  0.5717 -0.0297  0.8836
 2176TIP3   OH227942   3.937   3.786   0.542 -0.4232  0.7384  0.3484
 2176TIP3    H127943   3.858   3.743   0.574 -0.0514  1.0725  1.7919
 2176TIP3    H227944   3.985   3.811   0.621  0.5804  1.5567 -0.4790
 2177TIP3   OH227945   0.683   2.283  12.858  0.5101 -0.3428 -0.7653
 2177TIP3    H127946   0.735   2.355  12.893  0.4101 -0.7811  0.3020
 2177TIP3    H227947   0.681   2.218  12.928 -0.4638 -0.8456 -1.2388
 2178TIP3   OH227948   5.222   5.896  13.791 -0.4457  0.0400  0.1990
 2178TIP3    H127949   5.299   5.904  13.735 -0.2415 -1.8001  0.1625
 2178TIP3    H227950   5.253   5.848  13.868 -0.8730  1.9539  1.6541
 2179TIP3   OH227951   4.746   5.038  13.915  0.6486 -0.2269  0.1498
 2179TIP3    H127952   4.671   5.098  13.915  0.8340  0.0075 -0.1097
 2179TIP3    H227953   4.763   5.021  13.822  1.0656 -0.0975  0.2024
 2180TIP3   OH227954   4.117   0.348  12.025  0.2431  0.3347 -0.2533
 2180TIP3    H127955   4.125   0.256  11.997  1.4035  0.2853  0.2149
 2180TIP3    H227956   4.200   0.368  12.067 -0.0977  1.5373 -0.1179
 2181TIP3   OH227957   6.686   4.909  12.292  0.1101  0.3222 -0.3298
 2181TIP3    H127958   6.653   4.930  12.379 -0.6105 -1.6566 -0.0565
 2181TIP3    H227959   6.655   4.979  12.235 -1.8175  0.2111  0.5252
 2182TIP3   OH227960   1.487   4.532   4.153 -0.3444  0.0170 -0.2675
 2182TIP3    H127961   1.496   4.448   4.107 -2.4049 -0.5591  0.2652
 2182TIP3    H227962   1.505   4.598   4.086  0.7234 -0.8163 -0.8428
 2183TIP3   OH227963   2.817   1.663  16.281 -0.1211 -0.0222  0.7238
 2183TIP3    H127964   2.753   1.735  16.277  1.2077  1.1673 -0.1847
 2183TIP3    H227965   2.858   1.663  16.194 -0.7616 -2.5623  0.3473
 2184TIP3   OH227966   4.954   1.227   1.612  0.2201  0.1204 -0.1062
 2184TIP3    H127967   4.909   1.186   1.685  0.1355 -2.0176 -1.2809
 2184TIP3    H227968   5.023   1.165   1.588  0.2611  0.7698 -1.8073
 2185TIP3   OH227969   0.134   2.982   1.821 -0.1951  0.2378  0.4413
 2185TIP3    H127970   0.166   3.070   1.801  0.7474 -0.2218 -0.1432
 2185TIP3    H227971   0.124   2.981   1.916  1.0281  0.5874  0.5912
 2186TIP3   OH227972   4.371   3.077   5.446  0.3265  0.1031 -0.0628
 2186TIP3    H127973   4.464   3.098   5.440  0.7986 -1.3771  1.3094
 2186TIP3    H227974   4.350   3.034   5.364  0.4318  1.8210 -1.0344
 2187TIP3   OH227975   1.887   6.509   1.549  0.1530 -0.8611  0.1488
 2187TIP3    H127976   1.822   6.447   1.516 -0.0419 -0.5233 -0.1108
 2187TIP3    H227977   1.926   6.548   1.470 -2.0374  1.7715  0.1959
 2188TIP3   OH227978   1.157   0.292   2.638  0.1342  0.3987  0.5556
 2188TIP3    H127979   1.220   0.231   2.676 -0.0026  0.3617  0.7254
 2188TIP3    H227980   1.208   0.372   2.623  0.3377  0.2089  0.2291
 2189TIP3   OH227981   0.628   3.082   1.798 -0.6493 -0.4280  0.1404
 2189TIP3    H127982   0.573   3.005   1.784 -0.3697 -0.6232  0.1077
 2189TIP3    H227983   0.718   3.050   1.787 -0.5110 -0.1931  0.5522
 2190TIP3   OH227984   2.638   1.961   1.691  0.1523  0.0419 -0.2793
 2190TIP3    H127985   2.547   1.989   1.690 -0.4183 -1.4952  1.6273
 2190TIP3    H227986   2.677   2.009   1.764  0.5714 -0.1120 -0.4016
 2191TIP3   OH227987   6.326   4.433   5.033  0.0775 -0.1094 -0.2134
 2191TIP3    H127988   6.249   4.437   5.090  0.4359 -0.7279  0.3256
 2191TIP3    H227989   6.399   4.454   5.091  0.1117  3.2456 -1.2499
 2192TIP3   OH227990   4.208   3.810   5.662 -0.2926  0.1760 -0.2322
 2192TIP3    H127991   4.221   3.870   5.736 -1.2936  0.8037 -0.5453
 2192TIP3    H227992   4.295   3.776   5.643 -0.1398 -0.6884  1.8056
 2193TIP3   OH227993   4.505   3.683   0.325 -0.0174 -0.1548  0.7427
 2193TIP3    H127994   4.474   3.616   0.263  0.0437 -0.0735  0.6244
 2193TIP3    H227995   4.517   3.761   0.272 -1.3665  0.3389  1.1054
 2194TIP3   OH227996   1.563   0.353  16.455 -0.0859 -0.1602 -0.1815
 2194TIP3    H127997   1.606   0.353  16.369  1.0112  0.3775  0.3435
 2194TIP3    H227998   1.540   0.262  16.470  1.1537 -0.5343 -0.3710
 2195TIP3   OH227999   5.387   4.225  14.188  0.1607  0.0594 -0.0354
 2195TIP3    H128000   5.427   4.310  14.208  2.0205 -1.2096  2.0698
 2195TIP3    H228001   5.295   4.237  14.209  0.3236  1.6198 -0.0470
 2196TIP3   OH228002   4.743   0.937  13.766 -0.3002 -0.1571 -0.5567
 2196TIP3    H128003   4.747   0.893  13.681 -1.1270 -1.1283 -0.1245
 2196TIP3    H228004   4.664   0.990  13.762 -0.1443  0.0808 -0.5151
 2197TIP3   OH228005   6.308   6.779  16.178 -0.0780  0.5202  0.2054
 2197TIP3    H128006   6.397   6.770  16.145 -0.2990  1.1791 -0.6164
 2197TIP3    H228007   6.281   6.867  16.149 -1.8236 -0.5390 -1.6190
 2198TIP3   OH228008   3.424   0.206  12.937  0.1038 -0.1229 -0.2901
 2198TIP3    H128009   3.480   0.144  12.983  1.4148  0.7108 -0.7250
 2198TIP3    H228010   3.390   0.156  12.863  2.4146  0.0625 -1.5654
 2199TIP3   OH228011   4.694   5.008  16.586  0.7052 -0.3528 -0.4652
 2199TIP3    H128012   4.671   5.090  16.543 -1.3209 -0.8597 -0.4587
 2199TIP3    H228013   4.714   5.033  16.676 -0.8954  0.0747 -0.1859
 2200TIP3   OH228014   0.768   1.442   2.063 -0.2865 -0.5274  0.0271
 2200TIP3    H128015   0.717   1.364   2.043 -0.2201 -0.9488  1.4091
 2200TIP3    H228016   0.746   1.463   2.154 -0.1955  0.9822 -0.2680
 2201TIP3   OH228017   2.054   1.479  16.808  0.2208  0.6848 -0.6271
 2201TIP3    H128018   2.067   1.453  16.717 -2.0350  0.8269 -1.0471
 2201TIP3    H228019   1.959   1.490  16.816  0.4734  1.7451  1.4529
 2202TIP3   OH228020   2.730   2.162   1.874 -0.2576  0.5931 -0.1650
 2202TIP3    H128021   2.693   2.213   1.945  1.2763 -0.7117  1.6695
 2202TIP3    H228022   2.780   2.092   1.917 -1.3433 -1.8305 -2.5064
 2203TIP3   OH228023   6.226   1.438   5.182  0.6375  0.3606  0.1164
 2203TIP3    H128024   6.226   1.504   5.113  0.1688  0.3959  0.1489
 2203TIP3    H228025   6.150   1.383   5.162  0.1091  0.7574  0.9742
 2204TIP3   OH228026   4.391   6.570  15.945 -0.1034  0.2608 -0.2157
 2204TIP3    H128027   4.325   6.533  16.005  1.4370 -0.5522  1.0601
 2204TIP3    H228028   4.425   6.646  15.991 -0.5390  1.0246 -1.1335
 2205TIP3   OH228029   1.990   5.213  11.418  0.2747 -0.4794 -0.4810
 2205TIP3    H128030   2.049   5.251  11.484 -0.1482  0.3597 -0.5736
 2205TIP3    H228031   1.940   5.147  11.466 -2.1092  2.0999  0.8383
 2206TIP3   OH228032   4.104   0.333   0.474  0.4325  0.0317 -0.3776
 2206TIP3    H128033   4.107   0.265   0.541 -1.3765  0.3003  0.0179
 2206TIP3    H228034   4.151   0.295   0.400  0.5626 -1.1398  0.2794
 2207TIP3   OH228035   0.973   4.773   3.010  0.2950 -0.8749 -0.4274
 2207TIP3    H128036   0.979   4.826   3.089 -1.2728 -0.3477 -0.6150
 2207TIP3    H228037   1.033   4.814   2.948 -0.9472  0.8114 -0.6019
 2208TIP3   OH228038   1.507   3.682   0.277  0.0445 -0.2518  0.1645
 2208TIP3    H128039   1.565   3.619   0.318  0.6595  1.5562  2.2862
 2208TIP3    H228040   1.549   3.704   0.194  2.2589  0.7182  1.4710
 2209TIP3   OH228041   5.110   0.067   2.381 -0.1909  0.0637 -0.3328
 2209TIP3    H128042   5.107   0.160   2.403  1.0000  0.1773 -0.6087
 2209TIP3    H228043   5.114   0.023   2.466  2.4775  0.4273 -0.1943
 2210TIP3   OH228044   6.737   2.165   4.565 -0.4020  0.2501  0.6410
 2210TIP3    H128045   6.765   2.077   4.541  0.8056  0.7814  0.0474
 2210TIP3    H228046   6.726   2.161   4.660  0.5702 -0.2874  0.7462
 2211TIP3   OH228047   2.309   4.031   4.376  0.1378 -0.0986  0.1007
 2211TIP3    H128048   2.375   4.012   4.442  0.7678 -0.9230 -0.7327
 2211TIP3    H228049   2.239   4.076   4.423  0.2935 -1.2055  1.4453
 2212TIP3   OH228050   5.992   4.303   1.512  0.2793  0.2844  0.3114
 2212TIP3    H128051   6.065   4.337   1.459 -0.5729  2.4535  0.4044
 2212TIP3    H228052   5.916   4.309   1.454  0.2037 -2.4956  0.0200
 2213TIP3   OH228053   6.499   5.425  15.233  0.1054 -0.2263  0.1754
 2213TIP3    H128054   6.432   5.472  15.183  0.7081  1.5791  0.9960
 2213TIP3    H228055   6.469   5.334  15.231 -2.5502  0.5339  0.7468
 2214TIP3   OH228056   6.128   5.376   0.364  0.0419  0.0650  0.2772
 2214TIP3    H128057   6.049   5.376   0.311  0.1008  0.9398  0.1770
 2214TIP3    H228058   6.174   5.296   0.339  0.4239  0.8083 -1.5346
 2215TIP3   OH228059   1.365   4.601   1.358 -0.0220  0.0073 -0.0734
 2215TIP3    H128060   1.312   4.548   1.298  0.5340 -0.7983  0.1371
 2215TIP3    H228061   1.327   4.583   1.445 -0.7512  1.0808 -0.1509
 2216TIP3   OH228062   2.014   4.200   2.196  0.0022 -0.0592 -0.6876
 2216TIP3    H128063   2.063   4.120   2.215  0.7266  0.2552 -1.1878
 2216TIP3    H228064   1.933   4.170   2.157 -0.1338 -0.5801 -0.0263
 2217TIP3   OH228065   4.040   0.727   5.318 -0.0048  0.3391 -0.1732
 2217TIP3    H128066   4.036   0.638   5.353 -0.9785 -0.5073 -2.2393
 2217TIP3    H228067   4.091   0.776   5.382 -0.6966 -1.3355  1.7757
 2218TIP3   OH228068   4.760   2.292   4.558 -0.1073  0.0001 -0.4827
 2218TIP3    H128069   4.721   2.371   4.520 -1.0399 -0.4687 -0.5120
 2218TIP3    H228070   4.686   2.240   4.588  0.4459 -1.2292 -1.1582
 2219TIP3   OH228071   5.334   2.624   6.173 -0.2459 -0.6542 -0.6370
 2219TIP3    H128072   5.387   2.563   6.223  0.6725 -0.3197 -1.1795
 2219TIP3    H228073   5.260   2.645   6.230  0.1461 -1.2094  0.0813
 2220TIP3   OH228074   3.377   5.456   4.108 -0.3602  0.4938 -0.0457
 2220TIP3    H128075   3.339   5.387   4.163  1.3989 -0.3593  0.1592
 2220TIP3    H228076   3.418   5.409   4.035  1.5841  1.2198  0.5197
 2221TIP3   OH228077   6.300   5.579  15.113 -0.4042 -0.0786  0.1085
 2221TIP3    H128078   6.315   5.572  15.019 -2.1008  1.4279 -0.3456
 2221TIP3    H228079   6.278   5.671  15.127 -1.5976 -0.5437  1.7269
 2222TIP3   OH228080   0.011   3.096  11.602 -0.1393  0.0192  0.5863
 2222TIP3    H128081  -0.031   3.121  11.520 -1.1505  0.5006  1.2311
 2222TIP3    H228082   0.095   3.141  11.601  0.4991 -1.1124 -0.8132
 2223TIP3   OH228083   1.309   3.976  11.093 -0.0756 -0.7782  0.1043
 2223TIP3    H128084   1.341   4.066  11.090 -0.3274 -0.7086 -0.6741
 2223TIP3    H228085   1.339   3.937  11.011 -0.5491 -1.2044  0.1301
 2224TIP3   OH228086   2.559   6.546  15.028  0.8537  0.3156 -0.5849
 2224TIP3    H128087   2.544   6.628  14.982  2.8697  1.8129  1.2173
 2224TIP3    H228088   2.585   6.572  15.117 -1.1269 -2.3694  0.9331
 2225TIP3   OH228089   6.009   3.637  13.715 -0.4128 -0.8886  0.0901
 2225TIP3    H128090   6.042   3.548  13.708 -1.4556 -1.3853  1.1049
 2225TIP3    H228091   6.085   3.689  13.743 -0.2019 -1.8070  1.3080
 2226TIP3   OH228092   6.496   3.902  14.760  0.1941  0.9347 -0.6150
 2226TIP3    H128093   6.495   3.989  14.720  0.5561  1.2720  0.0938
 2226TIP3    H228094   6.407   3.870  14.749 -0.7121  2.4945  1.4660
 2227TIP3   OH228095   3.830   5.115  16.626 -0.0935 -0.0469  0.1765
 2227TIP3    H128096   3.881   5.070  16.558 -1.4689  1.5251 -2.0091
 2227TIP3    H228097   3.892   5.173  16.668  0.2274  1.0349 -1.7036
 2228TIP3   OH228098   3.669   5.093   0.112 -0.4140  0.0767  0.3269
 2228TIP3    H128099   3.761   5.087   0.135  0.1048  2.0911 -0.9576
 2228TIP3    H228100   3.638   5.173   0.153 -1.3335 -0.0612 -0.0568
 2229TIP3   OH228101   3.496   1.945  12.465 -0.0029  0.2969  0.3314
 2229TIP3    H128102   3.450   2.023  12.435  2.2020  1.2740 -0.7396
 2229TIP3    H228103   3.559   1.977  12.529  0.7331 -0.6365  0.0960
 2230TIP3   OH228104   3.598   2.860  11.503 -0.0246  0.4527 -0.1448
 2230TIP3    H128105   3.539   2.787  11.521  1.6784 -0.7252  0.8770
 2230TIP3    H228106   3.620   2.895  11.590  0.3043  1.2730 -0.5475
 2231TIP3   OH228107   5.036   3.257   0.016  0.2610 -1.0612  0.6869
 2231TIP3    H128108   4.951   3.229  -0.018  0.3103 -1.6275  1.0077
 2231TIP3    H228109   5.014   3.314   0.090  0.1575 -1.0602  0.6554
 2232TIP3   OH228110   3.116   6.757  14.898 -0.0180  0.1685  0.7488
 2232TIP3    H128111   3.133   6.849  14.878  0.8737  0.1223  1.2470
 2232TIP3    H228112   3.146   6.746  14.989 -1.3486 -0.2991  1.1575
 2233TIP3   OH228113   3.493   6.517  15.798 -0.4870 -0.1301 -0.1790
 2233TIP3    H128114   3.515   6.463  15.874 -1.6392  2.2571  2.0117
 2233TIP3    H228115   3.398   6.506  15.788 -0.7562  1.4195  0.3597
 2234TIP3   OH228116   1.526   1.428   4.682 -0.3017 -0.1381 -0.5510
 2234TIP3    H128117   1.486   1.359   4.629 -0.9386 -0.5012  0.3696
 2234TIP3    H228118   1.478   1.425   4.765  0.0330  1.0523 -0.3002
 2235TIP3   OH228119   1.791   2.375  16.731 -0.3217 -0.2169 -0.0691
 2235TIP3    H128120   1.730   2.303  16.718 -1.0900  0.5356 -0.7130
 2235TIP3    H228121   1.860   2.359  16.666  1.3813 -2.2593  2.0527
 2236TIP3   OH228122   5.497   1.068  13.018  0.6354  0.2459  0.0064
 2236TIP3    H128123   5.454   1.059  12.933 -1.6911 -0.4105  1.1765
 2236TIP3    H228124   5.540   0.984  13.032 -1.1845 -0.6251  0.5795
 2237TIP3   OH228125   5.044   5.243   0.461  0.1254 -0.4037 -0.7391
 2237TIP3    H128126   5.006   5.189   0.391 -1.1309  0.3137 -0.6510
 2237TIP3    H228127   5.006   5.330   0.447  0.9075  0.0804  0.0421
 2238TIP3   OH228128   1.813   5.157  14.745  0.1083 -0.1116  0.0083
 2238TIP3    H128129   1.877   5.135  14.677 -1.3126 -0.6391 -1.1957
 2238TIP3    H228130   1.763   5.077  14.759 -0.6716  0.4476  0.5069
 2239TIP3   OH228131   0.924   2.865  14.704  0.2869  0.2749  0.0386
 2239TIP3    H128132   1.015   2.891  14.685  0.5156 -0.5053  0.0258
 2239TIP3    H228133   0.915   2.779  14.662 -0.9745  1.0595 -1.3869
 2240TIP3   OH228134   4.242   6.649   2.048 -0.6974  0.5303  0.4284
 2240TIP3    H128135   4.332   6.631   2.074 -0.4995 -1.3122 -1.2933
 2240TIP3    H228136   4.188   6.602   2.112 -0.3173 -0.8479 -0.2155
 2241TIP3   OH228137   6.172   5.814   1.433 -0.1576  0.1019 -0.0614
 2241TIP3    H128138   6.114   5.800   1.358 -0.8928 -0.0062  0.5144
 2241TIP3    H228139   6.122   5.781   1.509 -0.1440  1.7874  0.7202
 2242TIP3   OH228140   5.569   2.100   4.549 -0.1186  0.5903 -0.4036
 2242TIP3    H128141   5.575   2.159   4.623  0.3149  1.3089 -0.9949
 2242TIP3    H228142   5.590   2.154   4.473 -1.9939  0.2240 -1.2322
 2243TIP3   OH228143   4.994   6.092   2.971 -0.0721 -0.2955 -0.2067
 2243TIP3    H128144   4.967   6.175   2.932  0.1730  0.4892  1.2022
 2243TIP3    H228145   4.913   6.055   3.007  0.2216  0.8907  1.8911
 2244TIP3   OH228146   3.193   2.338  11.189 -0.2663  0.1509  0.5570
 2244TIP3    H128147   3.237   2.406  11.241 -1.3925  0.6921  0.8360
 2244TIP3    H228148   3.217   2.359  11.099  0.6219  0.0019  0.7433
 2245TIP3   OH228149   5.712   6.076  15.731  0.2354 -0.4111  0.3013
 2245TIP3    H128150   5.790   6.029  15.760  0.0821 -0.0995  1.2274
 2245TIP3    H228151   5.655   6.008  15.696  1.4143 -0.5263 -1.6160
 2246TIP3   OH228152   6.039   6.181   4.985  0.1516  0.5633 -0.0149
 2246TIP3    H128153   6.032   6.137   5.070 -2.4008 -0.5622 -0.6867
 2246TIP3    H228154   5.970   6.248   4.988  0.8167  1.2974 -0.7872
 2247TIP3   OH228155   4.550   6.326  12.844  0.2693 -0.2299 -0.3588
 2247TIP3    H128156   4.494   6.403  12.851  0.2442 -0.2992  0.2566
 2247TIP3    H228157   4.621   6.353  12.786 -0.3622 -0.1223 -1.1009
 2248TIP3   OH228158   5.993   1.616  14.153 -0.0169  0.1911  0.1193
 2248TIP3    H128159   5.918   1.565  14.120 -2.5654  2.8081  1.4387
 2248TIP3    H228160   6.016   1.674  14.080 -0.5522  0.6865  0.3395
 2249TIP3   OH228161   6.272   2.481  16.884 -0.3324 -0.1231 -0.0653
 2249TIP3    H128162   6.325   2.415  16.928 -1.0169 -1.7080 -1.4871
 2249TIP3    H228163   6.249   2.543  16.952  2.9148  0.4120  0.7372
 2250TIP3   OH228164   5.986   5.928   2.475 -0.1620  0.3292 -0.2361
 2250TIP3    H128165   5.978   6.020   2.446 -0.0183  1.0729  1.9332
 2250TIP3    H228166   5.979   5.932   2.570  0.1718 -1.9113 -0.0696
 2251TIP3   OH228167   2.730   1.370   1.550 -0.2601 -0.2208  0.5559
 2251TIP3    H128168   2.714   1.384   1.457  1.1105 -0.4118  0.2677
 2251TIP3    H228169   2.648   1.395   1.593 -0.5159  1.0406 -0.5929
 2252TIP3   OH228170   2.488   6.066  16.755 -0.0395  0.2276  0.5196
 2252TIP3    H128171   2.473   6.012  16.833  1.1937 -0.4391  0.3271
 2252TIP3    H228172   2.404   6.067  16.710 -0.1111 -1.5357  0.5440
 2253TIP3   OH228173   0.399   3.047   5.639 -0.5577 -0.1805  0.2435
 2253TIP3    H128174   0.442   2.990   5.702  0.6679  0.1824 -0.2413
 2253TIP3    H228175   0.416   3.135   5.670 -0.5047 -0.0192 -0.2371
 2254TIP3   OH228176   4.427   2.987   4.100 -0.3697  0.4189  0.3556
 2254TIP3    H128177   4.404   3.064   4.153 -0.6137  1.9762 -1.8422
 2254TIP3    H228178   4.343   2.945   4.081 -0.1334 -1.3013  2.6930
 2255TIP3   OH228179   5.685   0.409  10.418 -0.3222 -0.0466 -0.3031
 2255TIP3    H128180   5.740   0.396  10.340 -2.4837 -2.2735 -1.5836
 2255TIP3    H228181   5.698   0.501  10.440  2.8663 -0.1292 -1.2683
 2256TIP3   OH228182   0.932   1.381   5.328  0.6640  0.0743  0.4544
 2256TIP3    H128183   0.874   1.457   5.333 -0.0444 -0.4669  0.5812
 2256TIP3    H228184   0.905   1.325   5.400 -0.4503 -1.4094 -1.0237
 2257TIP3   OH228185   1.066   2.653   3.219  0.4104  0.6559 -0.2321
 2257TIP3    H128186   0.973   2.671   3.202  0.4439  1.6251  0.4766
 2257TIP3    H228187   1.109   2.739   3.210  0.9466  0.5658  1.1767
 2258TIP3   OH228188   3.250   6.065  11.768 -0.0179 -0.5602  0.5401
 2258TIP3    H128189   3.261   6.107  11.853  0.2583  0.5764 -0.0389
 2258TIP3    H228190   3.335   6.074  11.726 -0.4379 -0.1855 -0.2514
 2259TIP3   OH228191   2.138   3.891   5.628 -0.4860 -0.4391  0.1312
 2259TIP3    H128192   2.111   3.983   5.636 -0.6162 -0.3834 -0.7898
 2259TIP3    H228193   2.097   3.847   5.703 -1.3491  0.0582 -0.0310
 2260TIP3   OH228194   0.339   5.595   4.073  0.1570 -0.1648  0.0141
 2260TIP3    H128195   0.245   5.584   4.065  0.0099  0.8409  0.1932
 2260TIP3    H228196   0.350   5.687   4.100  1.1187 -0.6025  1.2001
 2261TIP3   OH228197   2.695   5.590  12.152  0.6656  0.1602 -0.3815
 2261TIP3    H128198   2.685   5.659  12.087  0.8607  0.4168 -0.1381
 2261TIP3    H228199   2.611   5.543  12.150  0.1056  1.1001  0.2547
 2262TIP3   OH228200   1.165   6.048   1.582  0.0385  0.3977 -0.3496
 2262TIP3    H128201   1.204   5.981   1.638 -0.5816  0.3075 -0.0203
 2262TIP3    H228202   1.212   6.128   1.605  0.9525  0.0531 -0.9174
 2263TIP3   OH228203   4.372   0.135  15.254 -0.2611  0.3608  0.4611
 2263TIP3    H128204   4.331   0.182  15.327  0.8587 -0.3202  1.5656
 2263TIP3    H228205   4.458   0.109  15.288  0.5064  0.4909 -1.2944
 2264TIP3   OH228206   1.193   6.423  10.549 -0.6145  0.0103 -0.3326
 2264TIP3    H128207   1.284   6.407  10.575 -0.9486  0.1953  1.0162
 2264TIP3    H228208   1.175   6.357  10.482  0.7440  0.4671 -1.1929
 2265TIP3   OH228209   0.581   6.659  12.776  0.3651  0.6794  0.2417
 2265TIP3    H128210   0.619   6.673  12.689  2.5486  0.3979  1.0866
 2265TIP3    H228211   0.630   6.586  12.813 -1.1128  0.2157  1.4227
 2266TIP3   OH228212   0.238   3.785   2.619 -0.2147 -0.6200  0.2106
 2266TIP3    H128213   0.301   3.806   2.689  0.3273  0.5601 -0.5915
 2266TIP3    H228214   0.154   3.814   2.653  0.2466  1.2216 -0.1208
 2267TIP3   OH228215   2.676   5.636   2.370  0.3225  0.0928  0.6327
 2267TIP3    H128216   2.721   5.610   2.450  1.3927  2.0742  0.7580
 2267TIP3    H228217   2.657   5.729   2.382 -1.0937  0.0309 -0.7093
 2268TIP3   OH228218   1.814   5.037  11.523 -0.1065  0.2308  0.1831
 2268TIP3    H128219   1.770   5.075  11.599 -1.0812 -0.3557 -0.0768
 2268TIP3    H228220   1.863   4.962  11.558  2.5198  2.0813  0.8554
 2269TIP3   OH228221   1.069   3.141   2.838  0.2784 -0.1635 -0.1921
 2269TIP3    H128222   1.005   3.125   2.908 -0.1202  1.7019 -0.0696
 2269TIP3    H228223   1.131   3.069   2.846 -0.0766 -0.3277  1.7246
 2270TIP3   OH228224   1.604   4.047   0.442 -0.3714  0.2289 -0.0196
 2270TIP3    H128225   1.524   4.046   0.495 -0.4823 -1.5627 -0.1707
 2270TIP3    H228226   1.573   4.066   0.353 -0.4124  1.1668  0.1773
 2271TIP3   OH228227   2.384   3.137   2.589 -0.2592 -0.5124  0.3917
 2271TIP3    H128228   2.293   3.135   2.619 -0.8592 -0.2399 -1.2771
 2271TIP3    H228229   2.436   3.136   2.669 -1.7295 -0.4014  1.3902
 2272TIP3   OH228230   0.822   3.615  11.055  0.0506  0.1224 -0.2902
 2272TIP3    H128231   0.802   3.708  11.046 -0.1789  0.1745  0.5787
 2272TIP3    H228232   0.916   3.608  11.040 -0.0649  0.3626 -1.1836
 2273TIP3   OH228233   0.427   5.445  16.718  0.4415 -0.9869  0.3925
 2273TIP3    H128234   0.494   5.474  16.779  0.7338 -1.0023  0.0836
 2273TIP3    H228235   0.471   5.443  16.633  0.0192 -0.8817  0.1663
 2274TIP3   OH228236   5.274   4.538  12.256  0.4489  0.5012 -0.1791
 2274TIP3    H128237   5.345   4.539  12.192  2.6491 -0.2280  2.0785
 2274TIP3    H228238   5.244   4.447  12.258  0.5197  0.4817 -0.0197
 2275TIP3   OH228239   4.555   2.345  13.385  0.5430 -0.0598  0.0482
 2275TIP3    H128240   4.617   2.283  13.348  0.3069 -0.3288  0.0959
 2275TIP3    H228241   4.523   2.302  13.464  1.1083  0.5428  0.6237
 2276TIP3   OH228242   0.713   2.308  13.936  0.7247  0.3421  0.3419
 2276TIP3    H128243   0.652   2.237  13.915  1.2872 -0.3828  1.1278
 2276TIP3    H228244   0.658   2.376  13.975  0.0487  0.7075 -1.1484
 2277TIP3   OH228245   3.621   2.921   1.604 -0.1244  1.0368  0.2825
 2277TIP3    H128246   3.704   2.926   1.558  0.6701 -1.5648  1.2394
 2277TIP3    H228247   3.630   2.981   1.678  0.1814  2.0922 -0.5848
 2278TIP3   OH228248   2.937   2.150  14.524 -0.6455 -0.1196 -0.3306
 2278TIP3    H128249   3.032   2.157  14.508 -0.6540 -0.6901 -0.6527
 2278TIP3    H228250   2.930   2.098  14.603 -0.6715  0.7109  0.2267
 2279TIP3   OH228251   0.296   5.977  15.960  0.3705  0.2427 -0.8822
 2279TIP3    H128252   0.319   6.063  15.995 -0.7589 -0.0173  0.6081
 2279TIP3    H228253   0.380   5.932  15.948  0.8843  1.0298 -0.3159
 2280TIP3   OH228254   4.261   4.970   3.705 -0.1758  0.9662 -0.2812
 2280TIP3    H128255   4.267   4.936   3.794  0.9023  2.3354  0.2041
 2280TIP3    H228256   4.318   4.913   3.653 -1.5042 -0.3972 -0.3156
 2281TIP3   OH228257   1.241   2.107   4.787 -0.6458 -0.4977  0.0071
 2281TIP3    H128258   1.198   2.023   4.801  0.7838 -1.0774  1.2078
 2281TIP3    H228259   1.180   2.172   4.823  0.6874 -1.5382  4.8205
 2282TIP3   OH228260   5.935   0.398  16.637 -0.4426  0.2805 -0.5014
 2282TIP3    H128261   5.959   0.490  16.647  0.9001 -0.2166  1.1168
 2282TIP3    H228262   5.890   0.375  16.718  1.2572 -1.0617  0.1293
 2283TIP3   OH228263   0.037   0.976   6.528  0.1535  0.3125 -0.0689
 2283TIP3    H128264   0.081   0.926   6.460 -1.2225  0.0873 -0.8428
 2283TIP3    H228265  -0.001   0.910   6.585 -1.6972  0.3987 -1.1127
 2284TIP3   OH228266   2.563   1.267   4.624  0.3832 -0.1314  0.2386
 2284TIP3    H128267   2.496   1.330   4.648  0.6658  0.4205 -0.3816
 2284TIP3    H228268   2.645   1.315   4.629  0.4732 -0.0102 -1.6310
 2285TIP3   OH228269   0.911   5.788  13.033 -0.2676  0.5253  0.2141
 2285TIP3    H128270   0.935   5.777  13.125  0.2861 -0.6961 -0.0594
 2285TIP3    H228271   0.987   5.831  12.994  0.2744 -0.6091 -0.0285
 2286TIP3   OH228272   1.935   6.753  13.241  0.7518  0.3160 -0.0081
 2286TIP3    H128273   1.933   6.844  13.212  0.2536  0.3237  0.0309
 2286TIP3    H228274   1.885   6.705  13.175 -0.2750  0.3159  0.7333
 2287TIP3   OH228275   6.728   3.575   0.259 -0.2532  0.3479  0.4162
 2287TIP3    H128276   6.681   3.515   0.317  0.4218  0.7522  1.4139
 2287TIP3    H228277   6.816   3.538   0.252 -0.1770  0.5903  0.0773
 2288TIP3   OH228278   2.321   3.776   0.353  0.2363  0.3165 -0.0634
 2288TIP3    H128279   2.377   3.757   0.429  0.0412 -1.6487 -0.3448
 2288TIP3    H228280   2.380   3.769   0.278 -0.0162  0.0387 -0.2373
 2289TIP3   OH228281   0.067   0.092  15.945  0.1971 -0.7312 -0.2953
 2289TIP3    H128282   0.037   0.164  15.891  0.5403 -1.4834 -1.5309
 2289TIP3    H228283   0.073   0.129  16.033 -2.4528 -0.0528 -0.3163
 2290TIP3   OH228284   2.359   4.041   6.448  0.2367  0.2035 -0.2498
 2290TIP3    H128285   2.447   4.009   6.466 -0.1137 -0.7139 -0.0796
 2290TIP3    H228286   2.317   3.970   6.398 -0.5001  0.4818 -0.0486
 2291TIP3   OH228287   4.899   2.592  15.559 -0.4905 -0.0478 -0.1758
 2291TIP3    H128288   4.820   2.634  15.594  0.0555  0.0486  0.9828
 2291TIP3    H228289   4.866   2.528  15.496 -1.6954 -1.5526  1.8420
 2292TIP3   OH228290   3.187   6.740  11.257  0.2084  0.0401  0.0082
 2292TIP3    H128291   3.188   6.768  11.166 -0.0557 -2.6519 -0.9213
 2292TIP3    H228292   3.280   6.733  11.281  0.3048 -0.5690 -0.5233
 2293TIP3   OH228293   6.602   3.424  16.532  0.9068  0.6851  0.1463
 2293TIP3    H128294   6.588   3.496  16.593 -1.2138 -0.4388  1.1071
 2293TIP3    H228295   6.521   3.372  16.537  1.9858 -1.2670 -1.1715
 2294TIP3   OH228296   5.404   0.150  12.934  0.4610  0.1439 -0.4892
 2294TIP3    H128297   5.333   0.087  12.944  1.2285 -0.8863 -1.2014
 2294TIP3    H228298   5.366   0.234  12.958 -0.7605 -0.5057 -0.0668
 2295TIP3   OH228299   2.977   1.252  12.206 -0.1442 -0.1340 -0.1518
 2295TIP3    H128300   2.910   1.263  12.138  0.8306  0.3953 -1.0630
 2295TIP3    H228301   2.986   1.338  12.246 -1.0282 -0.5464  0.9831
 2296TIP3   OH228302   1.245   0.474  12.930  0.4530 -0.3677  0.3097
 2296TIP3    H128303   1.247   0.473  12.835 -0.5549  3.4446  0.0662
 2296TIP3    H228304   1.241   0.382  12.956 -0.5463 -1.4952 -3.3407
 2297TIP3   OH228305   0.670   3.115   2.405 -0.2206  0.0506  0.0272
 2297TIP3    H128306   0.725   3.036   2.404  2.3735  1.7174 -2.1872
 2297TIP3    H228307   0.730   3.185   2.429 -2.2277  1.5334  0.8800
 2298TIP3   OH228308   1.559   3.672   3.255  0.2754  0.4638  0.1949
 2298TIP3    H128309   1.571   3.764   3.275 -2.7380  1.1913 -0.8826
 2298TIP3    H228310   1.630   3.651   3.194  2.0487  1.4923  1.7743
 2299TIP3   OH228311   3.283   3.416   5.293 -0.4509  0.1654  0.3596
 2299TIP3    H128312   3.263   3.328   5.262  0.0883 -0.0051  0.4792
 2299TIP3    H228313   3.298   3.467   5.213 -0.6380  0.1150  0.2938
 2300TIP3   OH228314   1.059   4.675   4.643 -0.2948 -0.0483  0.3600
 2300TIP3    H128315   1.015   4.745   4.691 -0.4879 -2.1776  3.5064
 2300TIP3    H228316   1.144   4.665   4.686 -0.3805 -1.9150  0.1859
 2301TIP3   OH228317   6.539   3.046   1.021  0.3522  0.9433  0.1142
 2301TIP3    H128318   6.496   3.028   1.105  1.2660  0.9585  0.6049
 2301TIP3    H228319   6.481   3.108   0.977 -0.3754  0.5702  0.5284
 2302TIP3   OH228320   0.338   6.351  12.730 -0.3465 -0.3345  0.4495
 2302TIP3    H128321   0.353   6.329  12.822  0.1928 -1.6672  0.0802
 2302TIP3    H228322   0.404   6.299  12.683 -2.6104 -2.1848 -0.9052
 2303TIP3   OH228323   2.520   2.044   0.960  0.0099 -0.7493  0.0447
 2303TIP3    H128324   2.457   1.981   0.994  0.3426 -0.9337  0.3162
 2303TIP3    H228325   2.579   2.062   1.033  0.2564 -0.5553 -0.1986
 2304TIP3   OH228326   4.273   4.493   0.489  0.1220  0.6065  0.1798
 2304TIP3    H128327   4.333   4.552   0.444  0.6103  0.3689  0.5152
 2304TIP3    H228328   4.301   4.405   0.464 -0.9590  0.5114 -0.7690
 2305TIP3   OH228329   3.191   5.261   3.317 -0.0736 -0.1067 -0.1618
 2305TIP3    H128330   3.142   5.187   3.354 -0.5565 -0.9198 -2.2332
 2305TIP3    H228331   3.272   5.222   3.285  0.5508  0.6511  0.4706
 2306TIP3   OH228332   0.073   0.190   5.573 -1.1498  0.4364 -0.3771
 2306TIP3    H128333   0.159   0.181   5.616 -0.4963 -1.6024 -1.9272
 2306TIP3    H228334   0.030   0.261   5.620 -0.0643 -0.8845  2.8619
 2307TIP3   OH228335   5.278   4.338   1.453 -0.7144  0.2347  0.6040
 2307TIP3    H128336   5.356   4.303   1.497 -0.7970 -0.6584  0.0577
 2307TIP3    H228337   5.212   4.343   1.523 -0.1320  1.1492  1.1036
 2308TIP3   OH228338   6.377   1.887  16.165 -0.6434 -0.0821 -0.2889
 2308TIP3    H128339   6.378   1.914  16.257  2.6349  1.9988 -0.7559
 2308TIP3    H228340   6.399   1.794  16.166  1.3147  0.3469  1.0357
 2309TIP3   OH228341   5.621   0.245   4.704  0.3141  0.6180  0.1757
 2309TIP3    H128342   5.542   0.220   4.656  0.9062 -1.4347  0.1944
 2309TIP3    H228343   5.679   0.281   4.637  0.2646 -0.1067 -0.2680
 2310TIP3   OH228344   4.621   6.756  13.072 -0.7956 -0.5358  0.5478
 2310TIP3    H128345   4.529   6.769  13.049 -0.0642  0.9004 -1.9239
 2310TIP3    H228346   4.654   6.844  13.089  0.7903 -0.6207 -1.6521
 2311TIP3   OH228347   1.614   2.881   2.168  0.5568  0.6437 -0.1046
 2311TIP3    H128348   1.704   2.892   2.199 -0.1475  0.9411  1.9790
 2311TIP3    H228349   1.590   2.792   2.195 -0.1033  0.9225  0.2422
 2312TIP3   OH228350   3.926   5.640  11.507 -0.6485  0.4040 -0.1916
 2312TIP3    H128351   3.898   5.626  11.597 -0.5139  1.4821  0.0347
 2312TIP3    H228352   3.845   5.634  11.456 -0.4361 -2.5965 -0.3588
 2313TIP3   OH228353   6.587   6.390   4.191  0.3905  0.1723  0.1994
 2313TIP3    H128354   6.556   6.432   4.271 -1.2242  0.0322 -0.3080
 2313TIP3    H228355   6.660   6.334   4.219  0.6696  1.0735  1.3481
 2314TIP3   OH228356   4.484   6.657  12.669 -0.3318 -0.0247 -0.0911
 2314TIP3    H128357   4.445   6.743  12.652 -0.5662 -0.1015  0.0506
 2314TIP3    H228358   4.429   6.619  12.737 -0.0037 -0.1331  0.1155
 2315TIP3   OH228359   3.113   6.527   4.873  0.1509  0.2270  0.4603
 2315TIP3    H128360   3.150   6.598   4.927  1.4904 -0.4747  0.5199
 2315TIP3    H228361   3.021   6.523   4.898  0.6874  0.0088  2.6433
 2316TIP3   OH228362   3.107   1.583   2.058  0.3047  0.3857 -0.2566
 2316TIP3    H128363   3.012   1.583   2.046  0.4386  0.6748 -1.5528
 2316TIP3    H228364   3.121   1.610   2.148 -0.8534 -0.0696  0.0709
 2317TIP3   OH228365   1.876   1.100   4.878 -0.3425  0.1260  0.1527
 2317TIP3    H128366   1.811   1.126   4.813  0.5827  0.3191 -0.7079
 2317TIP3    H228367   1.945   1.057   4.828  0.1415 -0.1937  1.0737
 2318TIP3   OH228368   0.906   5.779   5.488 -0.0912 -0.0185 -0.1410
 2318TIP3    H128369   0.899   5.790   5.583 -0.8389 -0.7414 -0.0982
 2318TIP3    H228370   0.976   5.838   5.462  0.9114 -0.6338  1.0183
 2319TIP3   OH228371   3.052   4.597  15.708 -0.2953  0.3222  0.6523
 2319TIP3    H128372   2.998   4.523  15.680 -0.4951  1.0243 -0.9221
 2319TIP3    H228373   3.005   4.634  15.782 -1.4918  0.3495 -0.0982
 2320TIP3   OH228374   6.032   5.054  16.984  0.3115  0.3480  0.6546
 2320TIP3    H128375   6.117   5.097  16.984 -0.0841  1.3058 -1.8577
 2320TIP3    H228376   5.971   5.120  17.017  0.3176  0.1918  0.9811
 2321TIP3   OH228377   6.774   5.874   0.483  0.3135  0.0543 -0.8421
 2321TIP3    H128378   6.821   5.809   0.535 -0.5578 -0.4492 -0.6707
 2321TIP3    H228379   6.704   5.825   0.439  0.3369  0.6738 -1.6058
 2322TIP3   OH228380   6.024   2.293  11.757 -0.3170 -0.3706 -0.1783
 2322TIP3    H128381   6.013   2.209  11.802 -1.4747 -0.6371 -0.9319
 2322TIP3    H228382   6.000   2.359  11.822 -1.9677 -0.7522 -0.3803
 2323TIP3   OH228383   2.208   2.911  13.246  0.1581 -0.1104  0.0099
 2323TIP3    H128384   2.219   2.843  13.180 -1.0856  1.6459 -2.1071
 2323TIP3    H228385   2.285   2.967  13.235  0.8180 -0.7039  1.2772
 2324TIP3   OH228386   5.085   2.513   2.626  0.2498 -0.3389  0.7771
 2324TIP3    H128387   5.167   2.466   2.612  0.5376  0.7941 -1.7533
 2324TIP3    H228388   5.018   2.444   2.628  0.8688 -1.0308 -0.9492
 2325TIP3   OH228389   6.008   3.265  11.333  0.2657 -0.0682 -0.8685
 2325TIP3    H128390   5.941   3.326  11.302 -0.3071 -0.0128  0.4179
 2325TIP3    H228391   5.959   3.186  11.356  0.9473 -0.8696 -2.0925
 2326TIP3   OH228392   4.129   1.223   5.043  0.4511 -0.5072  0.1583
 2326TIP3    H128393   4.194   1.157   5.020  2.3377  1.0013  0.9439
 2326TIP3    H228394   4.117   1.212   5.138  0.5963  0.1233  0.2481
 2327TIP3   OH228395   6.768   3.225  12.090 -0.3450 -0.1433 -0.3850
 2327TIP3    H128396   6.717   3.287  12.142 -0.8680  0.1713 -1.2548
 2327TIP3    H228397   6.725   3.224  12.004  1.3557  0.4706 -1.2865
 2328TIP3   OH228398   4.121   4.591  13.921 -0.6252  0.1269 -0.6485
 2328TIP3    H128399   4.038   4.613  13.965 -1.4528 -2.3975 -0.8057
 2328TIP3    H228400   4.135   4.499  13.942  0.6655 -0.2764 -3.0060
 2329TIP3   OH228401   0.271   4.739  15.114  0.3396 -0.0576  0.4545
 2329TIP3    H128402   0.257   4.710  15.024 -1.1963  0.3278  0.5364
 2329TIP3    H228403   0.364   4.725  15.130  0.8781  0.8685 -1.5501
 2330TIP3   OH228404   0.789   0.652   2.392 -0.1033 -0.0351 -0.0279
 2330TIP3    H128405   0.767   0.559   2.393  2.7715 -0.8079  0.0312
 2330TIP3    H228406   0.802   0.674   2.484 -0.7905  0.4663 -0.0402
 2331TIP3   OH228407   2.303   5.234   3.981  0.2543 -0.0031  0.5035
 2331TIP3    H128408   2.287   5.310   4.037 -0.1264  0.5447 -0.3258
 2331TIP3    H228409   2.273   5.159   4.033 -0.0594  0.4902  1.0443
 2332TIP3   OH228410   0.831   4.652   6.537  0.4834 -0.3747  0.1839
 2332TIP3    H128411   0.924   4.629   6.533  0.3039 -1.0048 -0.5883
 2332TIP3    H228412   0.786   4.567   6.541 -0.1480 -0.1502 -1.5520
 2333TIP3   OH228413   3.659   5.172  16.310 -0.1531  0.1023 -0.3526
 2333TIP3    H128414   3.721   5.100  16.300 -0.4252 -0.2878  0.6224
 2333TIP3    H228415   3.713   5.251  16.302  0.1639 -0.2014 -1.3136
 2334TIP3   OH228416   1.229   0.868  16.861  0.1401 -0.2589 -0.5714
 2334TIP3    H128417   1.213   0.794  16.920  3.4776  1.5425  3.0276
 2334TIP3    H228418   1.304   0.841  16.809  2.7943  1.0770  2.2597
 2335TIP3   OH228419   0.742   2.184   3.823  0.2601 -0.2671  0.5434
 2335TIP3    H128420   0.832   2.212   3.806  0.4458 -1.1641 -0.0112
 2335TIP3    H228421   0.702   2.180   3.736  0.0057 -0.9305  0.6878
 2336TIP3   OH228422   6.408   5.249  12.094  0.3399  0.1225 -0.4742
 2336TIP3    H128423   6.475   5.287  12.037 -0.0568  0.3505 -0.7906
 2336TIP3    H228424   6.448   5.169  12.127  0.3325 -0.3735 -1.6187
 2337TIP3   OH228425   2.040   3.826  12.785 -0.4634  0.1381  0.3247
 2337TIP3    H128426   1.964   3.774  12.811 -1.5958  1.5875  0.0119
 2337TIP3    H228427   2.045   3.816  12.690 -0.9455  0.9153  0.2088
 2338TIP3   OH228428   4.255   1.527  15.433  0.1842  0.3777  0.0728
 2338TIP3    H128429   4.284   1.515  15.523  0.3825  1.6312  0.1952
 2338TIP3    H228430   4.169   1.486  15.429  1.1784 -1.8656  0.1685
 2339TIP3   OH228431   1.144   1.934   1.602 -0.0817  0.4205 -0.0016
 2339TIP3    H128432   1.078   1.916   1.536 -0.5481  0.8308  0.3513
 2339TIP3    H228433   1.118   1.882   1.678 -0.4705  1.2274  0.4259
 2340TIP3   OH228434   2.657   4.640   1.205 -0.1629 -0.0646  0.3860
 2340TIP3    H128435   2.602   4.690   1.266 -0.3247 -0.8382  0.8788
 2340TIP3    H228436   2.621   4.552   1.207  1.4133 -0.7104  1.0872
 2341TIP3   OH228437   3.580   2.451  14.006  0.4062  0.0650 -0.2395
 2341TIP3    H128438   3.645   2.515  13.977  2.5868 -1.5572  0.7901
 2341TIP3    H228439   3.542   2.489  14.085  0.2982  0.8959 -0.6785
 2342TIP3   OH228440   5.001   5.488  12.485 -0.0530 -0.1080  0.0885
 2342TIP3    H128441   5.017   5.455  12.574  1.1726 -0.1417 -0.1386
 2342TIP3    H228442   5.025   5.416  12.428  0.3853  0.3524 -0.3172
 2343TIP3   OH228443   3.799   6.761  15.084  0.4216  0.2346  0.1858
 2343TIP3    H128444   3.872   6.783  15.025  0.0100  1.9321  0.2581
 2343TIP3    H228445   3.835   6.694  15.143  1.4245 -0.0969 -0.7638
 2344TIP3   OH228446   1.399   3.949   0.670 -0.3391 -0.0524  0.1777
 2344TIP3    H128447   1.461   3.887   0.630 -0.1171 -0.0694  0.5395
 2344TIP3    H228448   1.330   3.960   0.605  0.8954  1.2893 -0.9684
 2345TIP3   OH228449   3.306   0.294   1.792 -0.2332 -0.0984  0.5270
 2345TIP3    H128450   3.283   0.205   1.821 -0.7191  0.0068  0.4744
 2345TIP3    H228451   3.395   0.307   1.825  0.2189 -0.9758 -0.3040
 2346TIP3   OH228452   5.440   4.682  13.926 -0.1189 -0.0960  0.4238
 2346TIP3    H128453   5.354   4.695  13.966 -0.5261 -0.0036 -0.4413
 2346TIP3    H228454   5.424   4.618  13.856  0.8531 -1.3827  1.3314
 2347TIP3   OH228455   0.075   5.090   2.487 -0.4736  0.1073 -0.0236
 2347TIP3    H128456   0.146   5.026   2.492 -0.6336 -0.0661  0.0299
 2347TIP3    H228457   0.084   5.141   2.567 -0.5812 -0.0958  0.1189
 2348TIP3   OH228458   2.612   2.607  16.874 -0.3395 -0.4129 -0.5898
 2348TIP3    H128459   2.701   2.573  16.875  0.1149  0.7248 -0.1821
 2348TIP3    H228460   2.602   2.647  16.788  0.4595  1.6653  0.2163
 2349TIP3   OH228461   6.537   0.908  11.014 -0.1486 -0.9295  0.1591
 2349TIP3    H128462   6.450   0.946  11.012  0.2404 -0.0503 -0.6510
 2349TIP3    H228463   6.539   0.857  11.096 -1.1624 -0.3823  0.5389
 2350TIP3   OH228464   1.385   5.674  13.949  0.0089 -0.6751  0.5106
 2350TIP3    H128465   1.358   5.670  13.858  0.6359  1.2688  0.1833
 2350TIP3    H228466   1.467   5.725  13.948 -0.5527  0.3688  2.2285
 2351TIP3   OH228467   3.572   0.656  13.194  0.4169  0.2844  0.0159
 2351TIP3    H128468   3.533   0.619  13.115 -0.6002  0.7950  0.2750
 2351TIP3    H228469   3.665   0.665  13.172  0.2013  0.1328 -1.0106
 2352TIP3   OH228470   3.203   4.024   5.552  0.2564 -0.2942 -0.7151
 2352TIP3    H128471   3.288   3.983   5.533  0.4424 -0.1362 -0.2365
 2352TIP3    H228472   3.220   4.082   5.626 -0.1663  0.1108 -0.9314
 2353TIP3   OH228473   5.431   2.512  15.236  0.1403 -0.5572  0.0450
 2353TIP3    H128474   5.440   2.442  15.172  2.3009 -0.5034  0.1986
 2353TIP3    H228475   5.470   2.477  15.316  0.7040  0.5931  0.3049
 2354TIP3   OH228476   0.422   2.734  13.347 -0.3005  0.0096  0.2188
 2354TIP3    H128477   0.393   2.817  13.310 -3.1481 -2.5203 -4.0140
 2354TIP3    H228478   0.471   2.691  13.277 -0.7732 -2.7601  1.4148
 2355TIP3   OH228479   4.620   2.305  11.938 -0.0291  0.3882  0.0597
 2355TIP3    H128480   4.549   2.258  11.896  0.4722  0.9451 -1.4682
 2355TIP3    H228481   4.617   2.392  11.899  2.0337  0.1576 -0.7272
 2356TIP3   OH228482   2.302   2.288   1.871 -0.0900 -0.3514 -0.5143
 2356TIP3    H128483   2.275   2.203   1.907 -0.1920 -0.3650 -0.6193
 2356TIP3    H228484   2.337   2.336   1.945 -1.5000  0.1213 -0.1147
 2357TIP3   OH228485   2.089   2.415   2.043  0.2133  0.0853  0.4473
 2357TIP3    H128486   2.074   2.502   2.006 -2.7999  0.4104  2.0252
 2357TIP3    H228487   2.003   2.372   2.038  0.6335 -1.3067  3.1814
 2358TIP3   OH228488   2.400   0.862   3.934 -0.6663  0.6931  0.0698
 2358TIP3    H128489   2.324   0.817   3.971  0.4081 -1.5227 -0.2402
 2358TIP3    H228490   2.365   0.910   3.858 -1.9324  0.6723  0.6217
 2359TIP3   OH228491   3.582   4.792  11.058 -0.0833 -0.2260 -0.7657
 2359TIP3    H128492   3.577   4.738  10.979  0.0743 -0.5547 -0.5554
 2359TIP3    H228493   3.651   4.751  11.110  1.0580  1.0264 -1.2268
 2360TIP3   OH228494   5.615   0.867   5.504  0.0014  0.1051 -0.0367
 2360TIP3    H128495   5.582   0.833   5.421  0.8052  0.0917 -0.3646
 2360TIP3    H228496   5.681   0.803   5.531 -0.2654  0.1054  0.6198
 2361TIP3   OH228497   3.361   3.776   5.629  0.3058  0.1917 -0.0061
 2361TIP3    H128498   3.306   3.747   5.556  1.2048  0.3280 -0.7456
 2361TIP3    H228499   3.388   3.695   5.673 -0.7226  0.1330  0.5641
 2362TIP3   OH228500   3.655   4.763   0.622 -0.0223  0.0177 -0.0688
 2362TIP3    H128501   3.631   4.678   0.659  0.3815  0.0732  0.3361
 2362TIP3    H228502   3.573   4.811   0.619 -0.2005 -0.2746  0.0054
 2363TIP3   OH228503   4.800   4.674   4.627 -0.2163 -0.1246 -0.3705
 2363TIP3    H128504   4.772   4.592   4.586  1.7285  0.3762 -2.9516
 2363TIP3    H228505   4.895   4.662   4.639  0.1808  1.8621 -1.2208
 2364TIP3   OH228506   4.319   2.282  13.137  0.0472  0.1893  0.0600
 2364TIP3    H128507   4.348   2.221  13.206 -0.3671  1.5736  1.5291
 2364TIP3    H228508   4.378   2.357  13.145  0.3859  0.1283 -1.5474
 2365TIP3   OH228509   2.710   2.449   1.084  0.0490  0.2726 -0.1421
 2365TIP3    H128510   2.677   2.375   1.136  1.5247 -0.4138 -0.1273
 2365TIP3    H228511   2.768   2.409   1.020 -0.0342  1.3314 -0.8982
 2366TIP3   OH228512   3.727   3.654   1.403  0.2808 -0.1520 -0.1525
 2366TIP3    H128513   3.677   3.727   1.437 -1.6573 -0.9584 -1.1244
 2366TIP3    H228514   3.714   3.584   1.467  3.2427  0.6276  1.4979
 2367TIP3   OH228515   3.714   5.462   4.727  0.0489 -0.0777 -0.1187
 2367TIP3    H128516   3.710   5.378   4.682 -0.3495  0.5713 -1.3437
 2367TIP3    H228517   3.792   5.504   4.690 -0.0008  0.2583  0.1608
 2368TIP3   OH228518   3.897   1.721   3.733  0.3954 -0.0263 -0.1532
 2368TIP3    H128519   3.824   1.772   3.698  1.0995  0.1898 -1.3989
 2368TIP3    H228520   3.857   1.662   3.796 -0.8256  0.2551 -0.6285
 2369TIP3   OH228521   1.662   4.298   4.771 -0.2354 -0.1501  0.2218
 2369TIP3    H128522   1.737   4.284   4.713  1.2582  0.4890  1.8847
 2369TIP3    H228523   1.598   4.344   4.717  0.5714 -0.6644 -1.2404
 2370TIP3   OH228524   0.189   0.368   0.011 -0.5930  0.2942  0.5953
 2370TIP3    H128525   0.134   0.399  -0.062 -0.4465 -1.7518 -0.4647
 2370TIP3    H228526   0.187   0.273   0.003  1.1501  0.0914  2.0349
 2371TIP3   OH228527   3.051   5.438  11.872 -0.0274  0.1757 -0.5187
 2371TIP3    H128528   3.083   5.420  11.783 -0.4067  0.0931 -0.6399
 2371TIP3    H228529   2.983   5.504  11.860 -0.0740  0.1697 -0.2854
 2372TIP3   OH228530   0.456   1.557  16.688 -0.4141 -0.8973 -0.0178
 2372TIP3    H128531   0.423   1.500  16.758  1.5011 -1.0743  0.7984
 2372TIP3    H228532   0.385   1.620  16.674 -0.5778 -0.3440  2.6655
 2373TIP3   OH228533   3.569   3.805  13.557 -0.2799 -0.4189 -0.2736
 2373TIP3    H128534   3.516   3.846  13.626  0.3441 -0.3138  0.1532
 2373TIP3    H228535   3.507   3.786  13.487 -0.9064 -0.4290  0.2770
 2374TIP3   OH228536   2.268   6.724   2.008  0.0392  0.0534 -0.4535
 2374TIP3    H128537   2.298   6.693   2.093  1.3813  0.6316 -0.6848
 2374TIP3    H228538   2.184   6.767   2.025  0.4076  0.3574  0.6109
 2375TIP3   OH228539   1.080   4.523   6.515 -0.2329 -0.3213 -0.0883
 2375TIP3    H128540   1.069   4.429   6.502 -1.3285  0.0162 -1.9172
 2375TIP3    H228541   1.163   4.544   6.473  0.7635 -0.6504  1.6015
 2376TIP3   OH228542   4.802   0.738  15.185  0.2087  0.3334 -0.0457
 2376TIP3    H128543   4.812   0.784  15.102  0.9862  2.0673  0.9462
 2376TIP3    H228544   4.884   0.689  15.196 -0.6790 -1.5502 -1.1736
 2377TIP3   OH228545   1.374   0.588  14.272 -0.3112 -0.3725  0.0021
 2377TIP3    H128546   1.395   0.503  14.312 -1.6214 -0.4871  0.5029
 2377TIP3    H228547   1.454   0.639  14.279  0.2534 -1.2962  0.4239
 2378TIP3   OH228548   2.051   1.981  12.513 -0.3160  0.3592 -0.2656
 2378TIP3    H128549   2.017   1.968  12.601  0.8672  0.0790  0.1579
 2378TIP3    H228550   2.097   2.065  12.517  3.4559 -1.5498  0.6169
 2379TIP3   OH228551   0.244   5.281  14.417  0.2488  0.6280  0.0967
 2379TIP3    H128552   0.173   5.235  14.463  0.0907  1.9070  1.1864
 2379TIP3    H228553   0.223   5.374  14.427  0.8722  0.9804 -1.5562
 2380TIP3   OH228554   6.317   6.002  12.240  0.6109 -0.2928  0.2885
 2380TIP3    H128555   6.307   6.097  12.226  0.4134 -0.2453  0.7471
 2380TIP3    H228556   6.398   5.980  12.193  0.6457  0.0966  0.1574
 2381TIP3   OH228557   6.530   3.087   1.912 -0.1730 -0.0240 -0.4568
 2381TIP3    H128558   6.581   3.009   1.889  0.5771  0.0287  0.9187
 2381TIP3    H228559   6.441   3.067   1.884  0.0012 -1.3787 -0.1068
 2382TIP3   OH228560   4.923   6.297   5.613  0.5367 -0.6727  0.0518
 2382TIP3    H128561   4.995   6.276   5.673 -0.3621 -0.2107  1.3522
 2382TIP3    H228562   4.876   6.214   5.601 -0.3177 -0.4326  1.4679
 2383TIP3   OH228563   1.171   2.553   5.104  0.1937  0.1447  0.2629
 2383TIP3    H128564   1.098   2.491   5.100  0.1905  0.2093 -2.1856
 2383TIP3    H228565   1.158   2.600   5.186 -2.6100  0.2661 -0.1524
 2384TIP3   OH228566   1.004   2.602  13.667  0.2913  0.0666  0.9739
 2384TIP3    H128567   1.088   2.584  13.625 -0.0996  0.0686  0.1658
 2384TIP3    H228568   0.996   2.698  13.664 -0.0814  0.0245  0.3388
 2385TIP3   OH228569   4.991   1.114  12.999  0.0623  0.0446  0.3399
 2385TIP3    H128570   4.901   1.147  12.990 -0.0797 -0.2197  0.7556
 2385TIP3    H228571   5.044   1.176  12.949 -0.2031  0.9164  1.0971
 2386TIP3   OH228572   3.796   0.261   2.787  0.6488 -0.0625 -0.2567
 2386TIP3    H128573   3.771   0.341   2.832 -0.0391 -0.9080  0.9079
 2386TIP3    H228574   3.833   0.204   2.855  2.3760 -0.2600 -1.2936
 2387TIP3   OH228575   0.593   4.046   1.779 -0.4216  0.4965 -0.3571
 2387TIP3    H128576   0.629   4.109   1.842  0.1742 -0.3498  0.1631
 2387TIP3    H228577   0.519   4.092   1.739 -1.3682  0.7431  1.5723
 2388TIP3   OH228578   0.304   1.050  13.603  0.1762 -0.0271  0.6264
 2388TIP3    H128579   0.293   1.120  13.539 -0.1379 -0.1161  0.5864
 2388TIP3    H228580   0.399   1.039  13.608  0.1801 -0.5106 -0.3525
 2389TIP3   OH228581   0.245   6.149   5.691  0.0818  0.4975  0.3330
 2389TIP3    H128582   0.204   6.199   5.619  3.1966 -0.6591 -2.4779
 2389TIP3    H228583   0.195   6.068   5.695 -2.0502  1.7650  1.7356
 2390TIP3   OH228584   6.447   4.326   2.184  0.1814  0.3028 -0.0513
 2390TIP3    H128585   6.536   4.302   2.208 -0.1574 -0.7263  0.2001
 2390TIP3    H228586   6.410   4.248   2.144 -1.3030 -0.0081  1.7815
 2391TIP3   OH228587   0.439   3.870  16.851 -0.2247  0.2180 -0.6973
 2391TIP3    H128588   0.458   3.959  16.881 -0.9561  0.3593 -0.6214
 2391TIP3    H228589   0.395   3.881  16.767 -2.8964  0.1270  0.5652
 2392TIP3   OH228590   0.584   5.332   0.545 -0.4241  0.3791 -0.2530
 2392TIP3    H128591   0.529   5.341   0.467 -1.3545  0.4572  0.4015
 2392TIP3    H228592   0.578   5.239   0.568 -0.6112  0.4628  0.0466
 2393TIP3   OH228593   3.469   1.459  10.824  0.0478 -0.6468  0.0280
 2393TIP3    H128594   3.427   1.544  10.840 -1.5788 -1.6650  1.5773
 2393TIP3    H228595   3.466   1.449  10.729 -0.1763  0.8118 -0.1422
 2394TIP3   OH228596   0.019   6.443   5.555 -0.3108 -0.2565 -0.0290
 2394TIP3    H128597   0.063   6.432   5.640 -0.3157  1.2017  0.2049
 2394TIP3    H228598  -0.058   6.497   5.575 -1.6219 -1.8416 -0.6120
 2395TIP3   OH228599   6.645   4.217  14.925  0.7694 -0.1183  0.1338
 2395TIP3    H128600   6.692   4.281  14.980 -0.3337  1.2864 -0.4831
 2395TIP3    H228601   6.651   4.135  14.974  2.0327  0.4920  1.0804
 2396TIP3   OH228602   1.706   2.593   1.648 -0.1318  0.0162 -0.2649
 2396TIP3    H128603   1.612   2.587   1.666  0.1370  0.4660  1.5405
 2396TIP3    H228604   1.736   2.502   1.650 -0.1511 -0.0116  1.8075
 2397TIP3   OH228605   5.824   0.341  12.450 -0.1283 -0.1902  0.3845
 2397TIP3    H128606   5.889   0.396  12.406 -1.8726  0.7006 -1.2735
 2397TIP3    H228607   5.795   0.280  12.381 -1.2064 -0.3922  1.0020
 2398TIP3   OH228608   2.930   4.859   1.852 -0.1162  0.2079  0.2111
 2398TIP3    H128609   2.939   4.899   1.939  0.0282  0.4255  0.0994
 2398TIP3    H228610   2.857   4.799   1.861  0.4966 -0.4799  0.7454
 2399TIP3   OH228611   2.963   6.566   3.763 -0.2735 -0.1884 -0.2235
 2399TIP3    H128612   2.911   6.486   3.776  0.0215 -0.2175  0.8617
 2399TIP3    H228613   3.036   6.538   3.708 -0.5105 -0.5231 -0.3759
 2400TIP3   OH228614   4.017   4.100   0.718 -0.0847  0.4741 -0.3735
 2400TIP3    H128615   3.939   4.151   0.695  0.5442  1.3394 -0.6363
 2400TIP3    H228616   4.047   4.138   0.800 -0.3776 -0.3811  0.1428
 2401TIP3   OH228617   3.909   1.884  12.970 -0.3591 -1.0659  0.5398
 2401TIP3    H128618   3.932   1.966  12.927  0.4853 -1.0720  0.9455
 2401TIP3    H228619   3.851   1.910  13.042  0.7490 -0.6809  1.3248
 2402TIP3   OH228620   6.600   1.404   4.013  0.5638 -0.7050  0.1525
 2402TIP3    H128621   6.525   1.414   3.953 -0.3282 -0.2090  1.3075
 2402TIP3    H228622   6.625   1.312   4.005 -1.7829 -1.5662  1.5439
 2403TIP3   OH228623   6.464   0.735  13.827  0.1046 -0.1413  0.0433
 2403TIP3    H128624   6.444   0.714  13.736  0.8903 -2.9578  0.4427
 2403TIP3    H228625   6.380   0.727  13.872 -0.0773  0.1595 -0.2355
 2404TIP3   OH228626   4.163   4.156   4.530  0.2291  0.2722  0.0572
 2404TIP3    H128627   4.186   4.247   4.547 -1.6324  0.6909  0.5412
 2404TIP3    H228628   4.245   4.108   4.542  0.8032  1.6063  1.9963
 2405TIP3   OH228629   5.949   6.776  15.471  0.2454 -0.1267 -0.1383
 2405TIP3    H128630   5.922   6.709  15.535  0.4316 -0.8670 -0.8150
 2405TIP3    H228631   5.990   6.726  15.400 -0.4372  0.6352 -1.0913
 2406TIP3   OH228632   0.510   3.776  17.194  0.0418 -0.9238  0.0244
 2406TIP3    H128633   0.578   3.841  17.177 -1.5140  1.1065  1.0493
 2406TIP3    H228634   0.546   3.694  17.161  2.5285  0.2443 -0.4007
 2407TIP3   OH228635   5.812   2.964   4.167 -0.2864 -0.2000 -0.3158
 2407TIP3    H128636   5.825   2.890   4.108 -1.2875 -1.2098  0.6895
 2407TIP3    H228637   5.891   2.966   4.221  0.2762  0.2360 -1.1257
 2408TIP3   OH228638   0.155   6.069  14.871 -0.5674  0.2336  0.3543
 2408TIP3    H128639   0.065   6.061  14.903 -0.2741  1.1692  1.4852
 2408TIP3    H228640   0.157   6.155  14.829  0.1414  0.8475  1.5924
 2409TIP3   OH228641   6.336   1.238   2.083  0.7676  0.1799 -0.1748
 2409TIP3    H128642   6.335   1.300   2.156  0.4935  2.5243 -2.0336
 2409TIP3    H228643   6.426   1.207   2.078  1.2028  1.3564  0.1160
 2410TIP3   OH228644   0.997   5.352   3.006  0.0298 -0.0362 -0.2087
 2410TIP3    H128645   0.984   5.365   3.100 -1.1419  0.0974 -0.3739
 2410TIP3    H228646   1.012   5.258   2.998  4.2048  0.4131  0.5096
 2411TIP3   OH228647   4.747   4.947   3.492  0.1648  0.1831 -0.1453
 2411TIP3    H128648   4.766   4.879   3.427 -1.0499 -0.4640  0.1547
 2411TIP3    H228649   4.667   4.988   3.460 -0.7626 -0.5110  1.2160
 2412TIP3   OH228650   0.418   2.554  11.879  0.6996  0.5141  0.5383
 2412TIP3    H128651   0.485   2.603  11.832  0.3707 -1.1586 -1.9028
 2412TIP3    H228652   0.442   2.462  11.865 -0.6452 -0.0813  1.8800
 2413TIP3   OH228653   0.822   4.927  12.797  0.5463  0.2270 -0.1824
 2413TIP3    H128654   0.870   4.938  12.880 -1.3789  1.9995  0.7957
 2413TIP3    H228655   0.756   4.861  12.817  1.6109 -1.1809 -1.1143
 2414TIP3   OH228656   3.249   6.351   2.746 -0.6238  0.3218  0.3999
 2414TIP3    H128657   3.168   6.302   2.762  1.0891 -2.5732  0.9495
 2414TIP3    H228658   3.300   6.294   2.689  1.8061  1.1495  1.6264
 2415TIP3   OH228659   4.727   0.661  13.191  0.0677 -0.0031  0.3549
 2415TIP3    H128660   4.687   0.577  13.169 -0.3900  0.2807  0.0929
 2415TIP3    H228661   4.774   0.644  13.273  1.0870 -0.8574 -0.3714
 2416TIP3   OH228662   4.853   0.298   0.968  0.1763 -0.0517 -0.1579
 2416TIP3    H128663   4.935   0.335   0.936 -0.2478  1.7945  0.7885
 2416TIP3    H228664   4.852   0.315   1.062 -1.5092  0.4711 -0.2225
 2417TIP3   OH228665   2.843   0.257   5.775  0.3251 -0.3906 -0.2383
 2417TIP3    H128666   2.887   0.297   5.700 -0.5619  0.4334 -0.3451
 2417TIP3    H228667   2.895   0.179   5.795  3.7331  2.1055  1.6568
 2418TIP3   OH228668   5.358   4.910  11.650 -0.0888 -0.0175 -0.2306
 2418TIP3    H128669   5.357   4.974  11.579  0.6270 -0.5272 -0.7221
 2418TIP3    H228670   5.447   4.875  11.649  0.0690  0.2865  1.2267
 2419TIP3   OH228671   3.135   0.520   2.360 -0.4953 -0.2731  0.1627
 2419TIP3    H128672   3.223   0.534   2.327 -0.6300 -1.0070 -0.5558
 2419TIP3    H228673   3.133   0.563   2.445  0.2567  0.5660 -0.2363
 2420TIP3   OH228674   5.991   1.543  12.409  0.0621  0.1603  0.0301
 2420TIP3    H128675   5.939   1.586  12.341 -0.2171  0.4702  0.4252
 2420TIP3    H228676   6.079   1.579  12.399 -0.1175  0.6709  0.2134
 2421TIP3   OH228677   5.594   6.326   5.088  0.2931 -0.1547 -0.3208
 2421TIP3    H128678   5.658   6.289   5.028 -0.8176 -1.1135 -0.9554
 2421TIP3    H228679   5.599   6.271   5.166  0.4521 -0.0409 -0.2505
 2422TIP3   OH228680   2.063   2.072   4.386  0.6909 -0.1947 -0.4970
 2422TIP3    H128681   2.090   2.053   4.476  0.7583  0.9722 -0.2487
 2422TIP3    H228682   2.107   2.155   4.366 -0.8355  0.5459 -0.9161
 2423TIP3   OH228683   2.856   1.189  11.045 -0.1096 -0.6408  0.0277
 2423TIP3    H128684   2.906   1.254  10.996  0.8506 -0.6858  0.9014
 2423TIP3    H228685   2.773   1.182  10.999  0.3314  0.1408 -0.9174
 2424TIP3   OH228686   2.205   3.739  13.383 -0.1968 -0.0523 -0.5168
 2424TIP3    H128687   2.247   3.789  13.314 -1.2655 -0.7527 -1.7181
 2424TIP3    H228688   2.261   3.752  13.460  1.6021 -0.1126 -1.7610
 2425TIP3   OH228689   0.646   4.628  16.693 -0.6613 -0.1508 -0.2680
 2425TIP3    H128690   0.600   4.684  16.631 -0.2131  0.9546  0.3675
 2425TIP3    H228691   0.700   4.571  16.637 -1.8234 -0.6172 -0.9566
 2426TIP3   OH228692   4.668   2.698  14.993  0.6270  0.3226  1.1077
 2426TIP3    H128693   4.575   2.709  14.977  1.0359 -0.7664 -2.9450
 2426TIP3    H228694   4.687   2.757  15.066 -3.1063  0.8053  1.8595
 2427TIP3   OH228695   5.183   4.940  14.639  0.1247 -0.7261  0.3106
 2427TIP3    H128696   5.124   4.961  14.565  0.6103 -1.5634 -0.3303
 2427TIP3    H228697   5.172   5.013  14.699  0.2903  0.3798 -0.9501
 2428TIP3   OH228698   2.199   1.345   3.174  0.2347  0.4681 -0.4027
 2428TIP3    H128699   2.276   1.302   3.138  0.5767 -0.8212  1.6683
 2428TIP3    H228700   2.188   1.305   3.261 -2.1882  1.3131 -0.2391
 2429TIP3   OH228701   3.918   3.363  11.537  0.0122 -0.4035 -0.1016
 2429TIP3    H128702   3.874   3.448  11.534 -2.6032 -1.5982  1.2625
 2429TIP3    H228703   3.902   3.325  11.451 -1.8166 -0.8560  0.4025
 2430TIP3   OH228704   2.478   6.613  16.500 -0.8345  0.6727 -0.1077
 2430TIP3    H128705   2.503   6.698  16.536  1.1413  0.3842 -0.6855
 2430TIP3    H228706   2.483   6.552  16.574 -0.4632  0.7510 -0.0650
 2431TIP3   OH228707   0.791   5.634  15.810  0.4052 -0.1576 -0.2615
 2431TIP3    H128708   0.851   5.633  15.735  0.4699 -1.3433 -0.2098
 2431TIP3    H228709   0.847   5.615  15.886  0.5479  2.1506  0.2853
 2432TIP3   OH228710   2.349   1.575  16.638  0.0834  0.3258 -0.1756
 2432TIP3    H128711   2.367   1.668  16.624 -0.1333  0.6027  1.2968
 2432TIP3    H228712   2.262   1.561  16.602 -0.2936  0.9250  0.4893
 2433TIP3   OH228713   6.433   0.638  14.692  0.1611  0.0767 -0.4830
 2433TIP3    H128714   6.462   0.682  14.771 -0.1252 -3.5035  1.8396
 2433TIP3    H228715   6.351   0.681  14.669  1.1267  2.3374  0.0465
 2434TIP3   OH228716   1.852   3.511  11.559  0.4310  0.6581 -0.8200
 2434TIP3    H128717   1.850   3.461  11.641 -0.2078  1.3062 -0.4313
 2434TIP3    H228718   1.900   3.591  11.580 -1.4172  1.7487 -0.5101
 2435TIP3   OH228719   5.170   4.893   5.870  0.5171  0.1956 -0.1552
 2435TIP3    H128720   5.260   4.922   5.881  0.6458 -0.3060  0.1498
 2435TIP3    H228721   5.120   4.941   5.935  0.6561  0.0662  0.0470
 2436TIP3   OH228722   6.461   0.372  14.765  0.2946  0.1585 -0.3429
 2436TIP3    H128723   6.456   0.398  14.857  2.9293 -0.5652  0.0679
 2436TIP3    H228724   6.474   0.454  14.717  0.4420  0.3868  0.0863
 2437TIP3   OH228725   4.623   4.885  13.005 -0.2558 -0.4517  0.7669
 2437TIP3    H128726   4.610   4.939  13.084  0.7876  1.7892 -0.4985
 2437TIP3    H228727   4.535   4.852  12.985 -0.6893 -0.3773  2.3568
 2438TIP3   OH228728   3.574   2.754   3.156  0.0588  0.3526 -0.7552
 2438TIP3    H128729   3.652   2.804   3.135  0.6792 -1.1025 -2.1813
 2438TIP3    H228730   3.505   2.793   3.103  0.2752  0.3988 -1.0045
 2439TIP3   OH228731   0.039   0.103   3.027 -0.0856  0.8085  0.8473
 2439TIP3    H128732   0.119   0.064   2.994 -1.4133  0.0099 -1.6981
 2439TIP3    H228733   0.014   0.048   3.101  0.1419 -0.8179 -0.2375
 2440TIP3   OH228734   2.975   0.153  15.537  0.4835  0.4841  0.5322
 2440TIP3    H128735   2.929   0.197  15.609  1.6273  2.7546 -0.0050
 2440TIP3    H228736   2.949   0.062  15.543 -0.2972  0.8121  3.1531
 2441TIP3   OH228737   4.608   5.714   1.167 -0.1669  0.0284 -0.2173
 2441TIP3    H128738   4.609   5.717   1.262 -1.1257  0.8932 -0.2092
 2441TIP3    H228739   4.641   5.627   1.144 -0.7062 -0.4935  0.9284
 2442TIP3   OH228740   6.206   2.901   1.433 -0.5399 -0.3652 -0.0122
 2442TIP3    H128741   6.136   2.942   1.484 -1.3192 -2.8120  1.0199
 2442TIP3    H228742   6.261   2.857   1.498 -1.4939 -3.4792 -1.1490
 2443TIP3   OH228743   5.409   4.241  14.503  0.1071 -0.2559  0.1445
 2443TIP3    H128744   5.316   4.260  14.495  0.0563 -0.2814  0.6590
 2443TIP3    H228745   5.447   4.274  14.422 -0.2450  0.3897  0.2363
 2444TIP3   OH228746   0.389   1.444   3.346 -0.6995 -0.2437 -0.0397
 2444TIP3    H128747   0.452   1.410   3.283  0.6134  0.4526  0.8675
 2444TIP3    H228748   0.315   1.383   3.339 -0.1195 -0.8528 -1.3998
 2445TIP3   OH228749   2.105   2.119   0.115 -0.0745 -0.7708 -0.0277
 2445TIP3    H128750   2.152   2.070   0.183 -0.6316 -0.1215  0.8422
 2445TIP3    H228751   2.097   2.057   0.042  1.3075 -1.1847  0.1505
 2446TIP3   OH228752   2.923   3.759   4.994 -1.0918  0.0203 -0.0326
 2446TIP3    H128753   2.979   3.694   4.952 -0.6939  0.3976 -0.0901
 2446TIP3    H228754   2.968   3.842   4.981 -1.7924  0.3712 -0.3114
 2447TIP3   OH228755   1.238   0.909  14.745 -0.2878 -0.2971  0.0381
 2447TIP3    H128756   1.195   0.832  14.709 -1.6805  0.7473 -0.6023
 2447TIP3    H228757   1.243   0.893  14.839 -1.6220 -0.6695  0.0538
 2448TIP3   OH228758   6.289   5.903  14.400 -0.1468  0.0887  0.0877
 2448TIP3    H128759   6.201   5.877  14.373 -0.1817 -1.0377  1.1921
 2448TIP3    H228760   6.319   5.961  14.330 -0.0786 -2.9004 -2.6182
 2449TIP3   OH228761   0.117   4.883  15.777  0.0687 -0.0488  0.0677
 2449TIP3    H128762   0.081   4.949  15.837 -0.1343  0.0951 -0.2104
 2449TIP3    H228763   0.206   4.869  15.808  0.2672  0.7014 -0.1460
 2450TIP3   OH228764   1.484   4.768   5.602  0.2144 -0.5171  0.3428
 2450TIP3    H128765   1.404   4.820   5.599  0.1327 -0.6895 -0.8856
 2450TIP3    H228766   1.492   4.742   5.694 -0.7651  0.0649  0.6102
 2451TIP3   OH228767   2.245   2.301  13.326 -0.3005  0.1878 -0.3193
 2451TIP3    H128768   2.160   2.345  13.327  0.2050  1.2758  1.9455
 2451TIP3    H228769   2.261   2.278  13.417  1.0586 -1.6036 -0.9584
 2452TIP3   OH228770   2.922   0.554   4.345  0.3110  0.4253 -0.7139
 2452TIP3    H128771   3.009   0.521   4.323 -0.0536 -1.5066  0.5110
 2452TIP3    H228772   2.863   0.481   4.325 -0.9261  1.3786 -0.6508
 2453TIP3   OH228773   5.830   0.317   4.057  0.3859  0.4219  0.8312
 2453TIP3    H128774   5.754   0.264   4.034  0.3368  0.6285  0.5104
 2453TIP3    H228775   5.822   0.395   4.002  1.5429 -0.1627 -0.2158
 2454TIP3   OH228776   4.945   0.411   3.357 -0.3999  0.4811  0.0842
 2454TIP3    H128777   5.026   0.459   3.338 -0.0922  0.1998  0.6424
 2454TIP3    H228778   4.896   0.470   3.415 -1.7826  1.7632 -2.2606
 2455TIP3   OH228779   5.192   3.724   2.983  0.4531  0.2011 -0.3676
 2455TIP3    H128780   5.128   3.795   2.994 -1.0942 -1.1403 -0.2320
 2455TIP3    H228781   5.193   3.680   3.068  1.1564 -0.1475 -0.5496
 2456TIP3   OH228782   3.490   4.756   3.328  0.5170 -0.2992  0.2894
 2456TIP3    H128783   3.469   4.681   3.383 -1.2866 -0.3210 -0.3315
 2456TIP3    H228784   3.405   4.782   3.290  1.2010  1.5933 -0.0744
 2457TIP3   OH228785   4.491   6.056  12.899 -0.4805 -0.4642  0.0877
 2457TIP3    H128786   4.471   6.142  12.862 -1.1569 -0.1663  1.0976
 2457TIP3    H228787   4.580   6.065  12.934 -0.5747 -0.1495  0.2495
 2458TIP3   OH228788   1.808   2.154  14.853 -0.0925 -0.0126  0.1835
 2458TIP3    H128789   1.727   2.184  14.813  0.2107  1.5368  0.6975
 2458TIP3    H228790   1.790   2.063  14.877 -0.8024 -0.5288 -2.0393
 2459TIP3   OH228791   2.307   5.064  14.975 -0.7646 -0.1212 -0.1986
 2459TIP3    H128792   2.249   5.079  14.901 -1.5825  0.2211  0.4947
 2459TIP3    H228793   2.371   5.136  14.972  0.3074 -1.0889 -1.5819
 2460TIP3   OH228794   5.401   1.664  13.960  0.3215  0.2518  0.3768
 2460TIP3    H128795   5.346   1.591  13.988  0.3866  0.5780  1.3697
 2460TIP3    H228796   5.347   1.710  13.895  0.4398 -0.8968 -0.5802
 2461TIP3   OH228797   6.701   3.380  11.185 -0.5589 -0.7659 -0.0623
 2461TIP3    H128798   6.686   3.318  11.113  1.8224  0.2038 -1.5385
 2461TIP3    H228799   6.743   3.455  11.143 -0.2690  0.4064  2.1816
 2462TIP3   OH228800   0.398   5.839  16.368  0.3591  0.8750  0.7732
 2462TIP3    H128801   0.334   5.783  16.325  1.2621 -0.0735  0.6183
 2462TIP3    H228802   0.358   5.926  16.368 -1.4874  0.0866  1.8526
 2463TIP3   OH228803   2.444   5.639  14.864 -0.0553  0.1264 -0.2035
 2463TIP3    H128804   2.480   5.554  14.889  0.7825  0.5964  0.2291
 2463TIP3    H228805   2.448   5.639  14.768 -0.2280 -0.3857 -0.2152
 2464TIP3   OH228806   1.578   0.495  10.438 -0.1743 -1.2892 -0.2122
 2464TIP3    H128807   1.497   0.542  10.417  0.6255 -0.2403 -1.1045
 2464TIP3    H228808   1.634   0.561  10.479 -0.4247 -2.4707  2.2002
 2465TIP3   OH228809   2.257   5.999  13.003 -0.0263 -0.0232 -0.0490
 2465TIP3    H128810   2.176   5.950  13.017 -0.3380  0.1748 -1.0819
 2465TIP3    H228811   2.247   6.077  13.057  0.1972 -0.7645  1.1116
 2466TIP3   OH228812   5.101   2.775   3.921 -0.6531 -0.6699 -0.7379
 2466TIP3    H128813   5.015   2.735   3.935 -0.3897 -0.7888  0.6541
 2466TIP3    H228814   5.159   2.700   3.909 -0.3541 -0.6834  0.7081
 2467TIP3   OH228815   3.250   5.835  16.988 -0.0653 -0.2767 -0.3774
 2467TIP3    H128816   3.316   5.899  16.963 -1.7210  0.8172 -2.1355
 2467TIP3    H228817   3.276   5.755  16.942  0.4192 -0.0692 -0.4720
 2468TIP3   OH228818   2.998   0.208  13.364 -0.0860 -0.9806  0.5421
 2468TIP3    H128819   3.083   0.238  13.397  0.7616 -1.7242 -0.8662
 2468TIP3    H228820   3.016   0.122  13.327 -1.1031 -0.4814 -1.2344
 2469TIP3   OH228821   2.913   4.339   2.622 -0.6265  0.1293 -0.1118
 2469TIP3    H128822   2.940   4.379   2.705  0.6089  0.8559 -0.8342
 2469TIP3    H228823   2.946   4.398   2.555 -0.9394 -0.8419 -1.1500
 2470TIP3   OH228824   3.237   4.182  15.839  0.2620 -0.1711 -0.0615
 2470TIP3    H128825   3.208   4.270  15.862 -2.5211 -1.1027  0.5075
 2470TIP3    H228826   3.238   4.135  15.923  0.0757 -1.0687 -0.5477
 2471TIP3   OH228827   1.912   1.056   2.487  0.1758  0.0189 -0.3296
 2471TIP3    H128828   1.884   1.015   2.568 -0.8305 -1.2791 -1.2931
 2471TIP3    H228829   1.862   1.012   2.419  0.5103  1.5257 -1.6095
 2472TIP3   OH228830   6.431   0.578  16.365  0.3016  0.2166 -0.1618
 2472TIP3    H128831   6.364   0.625  16.414 -0.3747 -0.0780 -0.7788
 2472TIP3    H228832   6.448   0.633  16.289  1.7723  0.9587  0.6673
 2473TIP3   OH228833   2.607   3.946   2.373 -0.0644  0.2734 -0.2488
 2473TIP3    H128834   2.574   3.979   2.289  0.7306  0.0694 -0.6545
 2473TIP3    H228835   2.666   4.015   2.404 -0.1219  0.2161 -0.0115
 2474TIP3   OH228836   6.165   4.581   3.063 -0.3366 -0.1449 -0.3355
 2474TIP3    H128837   6.231   4.605   3.128 -1.5311  0.6082  0.6500
 2474TIP3    H228838   6.154   4.486   3.075  0.3079 -0.2207 -0.2827
 2475TIP3   OH228839   0.619   4.017   3.775 -0.0254  0.5548 -0.8476
 2475TIP3    H128840   0.632   3.923   3.766  1.0002  0.6423 -0.3493
 2475TIP3    H228841   0.684   4.056   3.717  1.2220  0.9867  0.8003
 2476TIP3   OH228842   4.106   4.205   0.944  0.3337 -0.0895 -0.1622
 2476TIP3    H128843   4.132   4.297   0.935 -0.0798 -0.1583 -2.9739
 2476TIP3    H228844   4.021   4.209   0.988  0.9007  0.7383  0.9266
 2477TIP3   OH228845   2.341   3.964   0.864  0.2224 -0.1544 -0.3817
 2477TIP3    H128846   2.390   4.011   0.932  1.1181 -0.5608 -0.7223
 2477TIP3    H228847   2.309   4.032   0.805 -1.3118  0.2793  0.8940
 2478TIP3   OH228848   2.703   0.759  12.458  0.4166  0.3391 -0.1063
 2478TIP3    H128849   2.633   0.812  12.498 -0.3411 -1.1505  0.6171
 2478TIP3    H228850   2.761   0.738  12.531  1.2604  0.9490 -0.5737
 2479TIP3   OH228851   6.249   0.475  11.397  0.1632 -0.2784  0.4496
 2479TIP3    H128852   6.175   0.536  11.396  1.1951  1.0488  0.6148
 2479TIP3    H228853   6.256   0.446  11.487  0.7124  0.7463  0.7538
 2480TIP3   OH228854   1.722   6.764  12.253 -0.1568 -0.4027 -0.5494
 2480TIP3    H128855   1.647   6.784  12.197  0.2204  0.9951 -0.5781
 2480TIP3    H228856   1.702   6.677  12.288 -1.1352 -0.6414 -1.6246
 2481TIP3   OH228857   0.904   0.595  16.056 -0.4105 -0.4811 -0.1976
 2481TIP3    H128858   0.858   0.563  16.134  0.8054  0.6455  1.0122
 2481TIP3    H228859   0.904   0.520  15.997 -1.4981 -1.3165  0.8004
 2482TIP3   OH228860   3.744   0.295   6.458 -0.1393  0.4274  0.2041
 2482TIP3    H128861   3.835   0.279   6.482 -0.6062 -0.2237  1.6025
 2482TIP3    H228862   3.731   0.389   6.474  0.5695  0.7693 -1.0734
 2483TIP3   OH228863   0.131   3.155  12.798  0.2992 -0.4775 -0.0282
 2483TIP3    H128864   0.098   3.072  12.832 -0.3716 -0.6099 -0.9781
 2483TIP3    H228865   0.223   3.157  12.825 -0.0815 -0.7897  1.3505
 2484TIP3   OH228866   0.231   0.600  11.662  0.2707 -0.0824 -0.8784
 2484TIP3    H128867   0.276   0.582  11.580 -0.9509 -0.9537 -1.3855
 2484TIP3    H228868   0.254   0.527  11.719 -2.0499 -1.6759 -1.8313
 2485TIP3   OH228869   3.516   6.172  11.700  0.5073  0.3063  0.2340
 2485TIP3    H128870   3.479   6.217  11.776  0.7523  0.9037  0.0053
 2485TIP3    H228871   3.593   6.224  11.675  0.8767 -0.3093  0.0404
 2486TIP3   OH228872   1.626   4.783   2.138  0.5066 -0.4793 -0.4577
 2486TIP3    H128873   1.633   4.693   2.107  0.1063 -0.0545 -1.8364
 2486TIP3    H228874   1.534   4.805   2.127  0.3012 -0.3516  1.2346
 2487TIP3   OH228875   3.015   5.817  16.094 -0.0533  0.4008  1.1299
 2487TIP3    H128876   3.077   5.817  16.167 -0.0043 -2.1054  1.1895
 2487TIP3    H228877   3.069   5.808  16.016 -0.2500 -0.0491  1.0434
 2488TIP3   OH228878   6.707   2.045   0.884 -0.7982 -0.3081 -0.1731
 2488TIP3    H128879   6.694   2.131   0.844 -1.1107  1.1369  2.8017
 2488TIP3    H228880   6.628   2.031   0.936 -1.0734 -2.7719 -1.1355
 2489TIP3   OH228881   1.530   3.053   2.907  0.6049 -0.1781 -0.4838
 2489TIP3    H128882   1.487   3.010   2.981 -0.8833 -0.0808 -1.2500
 2489TIP3    H228883   1.538   3.144   2.934 -1.6558  0.2640 -1.1087
 2490TIP3   OH228884   5.301   0.876  14.228  0.2183  0.4621  0.2982
 2490TIP3    H128885   5.303   0.784  14.254 -0.8081  0.3711  0.0857
 2490TIP3    H228886   5.211   0.891  14.200  0.4048  1.5084  0.2337
 2491TIP3   OH228887   4.202   2.146   3.898  0.8592  0.2289  0.1747
 2491TIP3    H128888   4.279   2.105   3.936  1.5916  0.1332 -1.3405
 2491TIP3    H228889   4.134   2.078   3.903  0.7603  0.4078  1.7619
 2492TIP3   OH228890   2.943   4.892   2.383  0.7195  0.3918  0.4533
 2492TIP3    H128891   2.910   4.859   2.467  0.3419 -0.4207 -0.0076
 2492TIP3    H228892   3.038   4.883   2.390  0.8268  1.9419  1.4502
 2493TIP3   OH228893   4.195   0.921  15.965 -0.0243 -0.0780 -0.3329
 2493TIP3    H128894   4.218   0.994  15.908 -0.8725  0.9777  0.6078
 2493TIP3    H228895   4.254   0.929  16.040 -0.0002 -0.4648 -0.3092
 2494TIP3   OH228896   3.881   2.500  11.132  0.2105  0.9245 -0.1663
 2494TIP3    H128897   3.945   2.552  11.181  0.9936 -1.1463  1.1443
 2494TIP3    H228898   3.932   2.455  11.065  0.2632 -0.8688  0.9869
 2495TIP3   OH228899   6.433   4.789  14.250  0.4216  0.0793  0.5627
 2495TIP3    H128900   6.486   4.861  14.217  2.4977 -0.5033  2.3357
 2495TIP3    H228901   6.362   4.831  14.298  0.8657  0.9505  0.4761
 2496TIP3   OH228902   4.503   5.752   4.896 -0.0895 -0.5714 -0.4454
 2496TIP3    H128903   4.514   5.761   4.801  0.7912 -2.1302 -0.5423
 2496TIP3    H228904   4.587   5.780   4.932 -0.1419 -0.7472 -0.1866
 2497TIP3   OH228905   2.951   0.090  17.141  1.0765 -0.1027 -0.3758
 2497TIP3    H128906   2.932   0.002  17.172  0.8253 -0.2995 -1.0653
 2497TIP3    H228907   2.887   0.145  17.187  0.3517 -0.4602 -0.9242
 2498TIP3   OH228908   6.569   2.511  15.583  0.5461 -0.3178  0.0081
 2498TIP3    H128909   6.544   2.423  15.609  0.9103 -1.0832 -1.9931
 2498TIP3    H228910   6.647   2.531  15.635  1.5884 -1.9810 -0.8209
 2499TIP3   OH228911   2.585   2.566  14.861  0.1755  0.0772  0.4679
 2499TIP3    H128912   2.523   2.639  14.863  0.7794  0.6029  0.3041
 2499TIP3    H228913   2.586   2.534  14.951 -1.2074 -0.7012  0.2362
 2500TIP3   OH228914   3.860   5.473   5.429  0.0012 -0.5714  0.2019
 2500TIP3    H128915   3.939   5.433   5.464  1.0304 -0.5007 -1.8983
 2500TIP3    H228916   3.877   5.567   5.432  0.2909 -0.5768 -0.8227
 2501TIP3   OH228917   5.573   0.477   6.240 -0.0860 -0.4729  0.0144
 2501TIP3    H128918   5.603   0.568   6.245  0.5285 -0.7159  1.4543
 2501TIP3    H228919   5.632   0.435   6.178 -0.2918  0.0685 -0.5594
 2502TIP3   OH228920   1.316   5.853   4.920  0.5629 -0.1126 -0.1669
 2502TIP3    H128921   1.302   5.891   5.007  1.5325 -1.4675  0.6317
 2502TIP3    H228922   1.239   5.797   4.906  0.9535 -0.8102  0.3723
 2503TIP3   OH228923   1.608   2.004  16.787  0.2374 -0.8545 -0.6006
 2503TIP3    H128924   1.610   2.049  16.702 -0.4729  1.4902  0.5447
 2503TIP3    H228925   1.517   2.011  16.816  0.8712  0.3621  1.2984
 2504TIP3   OH228926   5.411   3.200   3.583 -0.1291  0.6687 -0.5322
 2504TIP3    H128927   5.484   3.141   3.604 -0.3690  1.0746  1.6892
 2504TIP3    H228928   5.338   3.142   3.565 -0.1993  0.2138  1.0149
 2505TIP3   OH228929   6.239   0.397   1.873  0.1067  0.1216 -0.3900
 2505TIP3    H128930   6.315   0.406   1.930 -0.3969  2.1442  0.0059
 2505TIP3    H228931   6.237   0.303   1.851  1.1055 -0.4582  1.7651
 2506TIP3   OH228932   5.067   1.020  14.479 -0.5112  0.6757 -0.0619
 2506TIP3    H128933   5.042   1.055  14.564 -0.6646  0.7560 -0.1382
 2506TIP3    H228934   5.045   0.927  14.483  1.6536  0.1398  0.8212
 2507TIP3   OH228935   2.641   3.955  16.686 -0.9397  0.1685 -0.7893
 2507TIP3    H128936   2.608   3.872  16.721 -2.1260  0.9799  0.1494
 2507TIP3    H228937   2.616   4.020  16.752  0.5256  1.1966 -1.1894
 2508TIP3   OH228938   4.060   1.869   5.940 -0.1161  0.0151  0.1090
 2508TIP3    H128939   4.118   1.825   6.003  0.5609  1.1757  0.3327
 2508TIP3    H228940   4.023   1.942   5.990 -1.1130 -0.2123 -0.2887
 2509TIP3   OH228941   3.943   0.952  11.099  0.1347 -0.2983  0.1083
 2509TIP3    H128942   3.881   1.021  11.123  0.2842  0.0873 -0.5877
 2509TIP3    H228943   3.909   0.916  11.017 -0.3691 -1.5967  0.8551
 2510TIP3   OH228944   0.869   4.663   3.835 -0.0952  0.2077  0.1409
 2510TIP3    H128945   0.928   4.681   3.908  1.0595  2.2456 -1.1831
 2510TIP3    H228946   0.827   4.748   3.817 -1.5045 -0.6091 -0.6005
 2511TIP3   OH228947   5.608   4.752  13.349 -0.9136  0.0806  0.0475
 2511TIP3    H128948   5.526   4.798  13.329 -1.8422 -0.1837  2.7465
 2511TIP3    H228949   5.643   4.798  13.425  0.6277 -0.8275 -0.0730
 2512TIP3   OH228950   3.946   0.432  14.871  0.5054  0.3830  0.3466
 2512TIP3    H128951   3.931   0.418  14.965  1.1625  0.1586  0.4251
 2512TIP3    H228952   4.027   0.383  14.852  0.8726  1.1623 -0.1415
 2513TIP3   OH228953   5.282   4.991   0.462 -0.6583 -0.5393 -0.3807
 2513TIP3    H128954   5.370   4.971   0.430 -0.3714  0.3505 -0.1752
 2513TIP3    H228955   5.262   4.919   0.522  0.7986  0.3161  1.2293
 2514TIP3   OH228956   6.465   6.103   4.322  0.1028 -0.1315  0.1573
 2514TIP3    H128957   6.385   6.090   4.374 -1.1268  0.6904 -1.4450
 2514TIP3    H228958   6.496   6.190   4.348  0.0443 -0.1272  0.2154
 2515TIP3   OH228959   4.277   6.296   4.956  0.3520 -0.4519  0.8011
 2515TIP3    H128960   4.201   6.289   5.014  0.3871 -1.4828  0.7422
 2515TIP3    H228961   4.314   6.208   4.954  0.5768 -0.3472 -0.4878
 2516TIP3   OH228962   4.432   5.964   3.024  0.5806  0.1995  0.0795
 2516TIP3    H128963   4.429   5.894   2.959  0.6305  1.5003 -1.3875
 2516TIP3    H228964   4.376   5.933   3.095 -0.7075 -0.6566 -1.2337
 2517TIP3   OH228965   5.924   0.287  15.427 -0.4306 -0.1071  0.6520
 2517TIP3    H128966   5.889   0.340  15.498 -0.1321 -0.0038  0.7211
 2517TIP3    H228967   5.973   0.217  15.471  1.4290  1.0706  0.5412
 2518TIP3   OH228968   6.643   3.775   1.939 -0.2360 -0.7006 -0.7750
 2518TIP3    H128969   6.560   3.742   1.906 -0.5465  0.1530 -0.8897
 2518TIP3    H228970   6.622   3.812   2.025 -0.1587  0.2606 -1.1553
 2519TIP3   OH228971   3.232   4.749  12.991  1.1733  0.1006 -0.1788
 2519TIP3    H128972   3.142   4.719  13.004  0.1459  3.8398  3.2390
 2519TIP3    H228973   3.227   4.805  12.914  0.7600 -0.2362 -0.4073
 2520TIP3   OH228974   6.548   4.154   2.504 -0.4181  0.6421  0.3119
 2520TIP3    H128975   6.453   4.162   2.512 -0.3050  1.8046  0.6449
 2520TIP3    H228976   6.573   4.222   2.441  0.2952  1.0177  0.9819
 2521TIP3   OH228977   4.320   3.195  16.838 -0.0227  0.2639  0.4891
 2521TIP3    H128978   4.243   3.245  16.813 -0.3137  0.0972  1.0263
 2521TIP3    H228979   4.321   3.198  16.934 -0.9096 -1.9920  0.6390
 2522TIP3   OH228980   0.267   2.984  11.907  0.2237  0.1282 -0.1371
 2522TIP3    H128981   0.342   2.981  11.849  0.2821  0.3031 -0.0727
 2522TIP3    H228982   0.233   2.894  11.908 -1.0092  0.5242 -2.0350
 2523TIP3   OH228983   1.773   2.059  10.813 -0.2037 -0.1187  0.2684
 2523TIP3    H128984   1.758   2.029  10.724  1.1435 -0.7953  0.2377
 2523TIP3    H228985   1.861   2.098  10.812 -0.2949  0.1548  1.2173
 2524TIP3   OH228986   4.889   5.811   6.102 -0.0201 -0.0607  0.3187
 2524TIP3    H128987   4.889   5.749   6.176  2.7525 -0.0206  0.4766
 2524TIP3    H228988   4.927   5.891   6.139  0.4803  0.2786 -0.8859
 2525TIP3   OH228989   2.544   6.188   4.699 -0.1655  0.0651 -0.1512
 2525TIP3    H128990   2.563   6.198   4.606  0.7537  1.8592  0.1933
 2525TIP3    H228991   2.616   6.232   4.744 -1.6700  1.1560  1.3463
 2526TIP3   OH228992   4.353   0.758   5.041 -0.4553 -0.4087 -0.5398
 2526TIP3    H128993   4.401   0.716   4.969 -0.8363 -0.1985 -0.9219
 2526TIP3    H228994   4.419   0.771   5.109  0.4570  1.4164 -1.6882
 2527TIP3   OH228995   2.729   1.202   0.089 -0.4547  0.3995 -0.3947
 2527TIP3    H128996   2.669   1.137   0.127 -1.3185  0.6707 -1.2719
 2527TIP3    H228997   2.742   1.266   0.159  1.7215 -1.5099  1.0956
 2528TIP3   OH228998   4.098   2.752   3.022 -0.3653  0.1417 -0.3243
 2528TIP3    H128999   4.116   2.844   3.006  1.0965 -0.3400 -1.6363
 2528TIP3    H229000   4.048   2.724   2.945 -2.3326  0.1972  0.8548
 2529TIP3   OH229001   6.318   6.164   1.272 -0.7103  0.2105 -0.0418
 2529TIP3    H129002   6.329   6.117   1.355  0.3229 -1.2308 -0.9598
 2529TIP3    H229003   6.382   6.235   1.276  0.5198 -0.8544 -0.2687
 2530TIP3   OH229004   1.219   1.157  14.974  0.2010 -0.1427 -0.1459
 2530TIP3    H129005   1.204   1.066  15.000  0.0801 -0.2891 -0.7103
 2530TIP3    H229006   1.161   1.170  14.899 -0.0102  0.4944  0.1210
 2531TIP3   OH229007   4.202   0.904  16.630 -0.1323  0.4278  0.4575
 2531TIP3    H129008   4.201   0.935  16.540  0.6887 -0.1645  0.2339
 2531TIP3    H229009   4.197   0.809  16.623 -2.9843  0.4159  1.1497
 2532TIP3   OH229010   3.474   0.960  10.670 -0.2159  0.1517 -0.1334
 2532TIP3    H129011   3.525   1.036  10.698  1.2980 -0.8038 -0.1759
 2532TIP3    H229012   3.521   0.926  10.594 -1.2818 -0.4046 -0.5663
 2533TIP3   OH229013   1.914   4.726   0.258  0.2750  0.0769  0.2491
 2533TIP3    H129014   1.954   4.812   0.270 -0.4341  0.4556  0.0181
 2533TIP3    H229015   1.886   4.725   0.166  0.7483 -0.6106  0.1103
 2534TIP3   OH229016   2.270   4.821  13.187 -0.2478 -0.1308  0.0098
 2534TIP3    H129017   2.274   4.775  13.104 -2.2551 -0.9205  0.2897
 2534TIP3    H229018   2.218   4.900  13.169 -0.3956 -0.1268  0.4294
 2535TIP3   OH229019   1.104   0.659   6.274  0.5392 -0.0107  0.2168
 2535TIP3    H129020   1.110   0.747   6.236  0.6630  1.1505  2.7354
 2535TIP3    H229021   1.011   0.646   6.289  0.7121  1.0920  2.7160
 2536TIP3   OH229022   4.321   3.274   1.245  0.4093  0.2265  0.4111
 2536TIP3    H129023   4.236   3.253   1.206 -0.0211  1.3446  0.7073
 2536TIP3    H229024   4.377   3.294   1.170  0.3937 -0.4260  0.2185
 2537TIP3   OH229025   1.460   0.107   1.477 -0.5383  0.1259  0.2559
 2537TIP3    H129026   1.531   0.044   1.477  0.2637  0.9993 -0.3457
 2537TIP3    H229027   1.502   0.191   1.497 -1.5180  0.5445  0.6629
 2538TIP3   OH229028   1.877   6.502   2.058  0.0470  0.2616 -0.1580
 2538TIP3    H129029   1.939   6.452   2.111  1.1718  1.8922  0.1249
 2538TIP3    H229030   1.793   6.458   2.071  0.9864 -1.5644  0.0335
 2539TIP3   OH229031   5.573   5.960   0.328 -0.3021  0.5270 -0.3497
 2539TIP3    H129032   5.581   5.893   0.395  1.5414  0.2907 -0.7525
 2539TIP3    H229033   5.587   6.043   0.374  0.5831  0.3905 -0.3498
 2540TIP3   OH229034   6.450   0.235   3.810 -0.1430 -0.3764  0.7538
 2540TIP3    H129035   6.423   0.285   3.733 -0.2175 -0.9650  0.3882
 2540TIP3    H229036   6.542   0.258   3.823 -0.3502  0.3371  0.9730
 2541TIP3   OH229037   2.639   3.908   5.988  0.0483 -0.4066 -0.2710
 2541TIP3    H129038   2.554   3.929   6.025 -0.4709 -1.0775 -1.0418
 2541TIP3    H229039   2.690   3.873   6.061 -0.8533 -1.4330 -0.1148
 2542TIP3   OH229040   4.244   5.774   5.524  0.4336  0.1014 -0.6786
 2542TIP3    H129041   4.240   5.868   5.506  1.4884  0.2672 -0.1357
 2542TIP3    H229042   4.283   5.737   5.445 -1.5748 -0.1420 -1.6222
 2543TIP3   OH229043   4.327   5.807  13.606 -0.0276  0.1279  0.3286
 2543TIP3    H129044   4.329   5.733  13.546  1.0628  0.5519 -0.1697
 2543TIP3    H229045   4.284   5.877  13.557  2.4648  1.0512 -0.6854
 2544TIP3   OH229046   4.839   6.698  13.350  0.2305 -0.0904 -0.2770
 2544TIP3    H129047   4.878   6.645  13.420  1.9410 -0.7623 -1.6586
 2544TIP3    H229048   4.879   6.664  13.270  0.3721  2.4291 -1.3485
 2545TIP3   OH229049   1.277   6.573  12.452  0.2477  0.0866 -0.0861
 2545TIP3    H129050   1.356   6.593  12.402 -0.9649  0.6991 -1.8955
 2545TIP3    H229051   1.240   6.659  12.474  0.1172 -0.1878  0.7876
 2546TIP3   OH229052   2.662   3.255  11.390  0.6354 -0.1534 -0.0600
 2546TIP3    H129053   2.587   3.257  11.450 -0.2134 -1.5470 -1.0048
 2546TIP3    H229054   2.650   3.332  11.335  0.7537  0.4661  0.7631
 2547TIP3   OH229055   1.294   3.822   0.895 -0.2029 -0.6368  0.2522
 2547TIP3    H129056   1.326   3.750   0.841  0.1444 -1.1244  1.1113
 2547TIP3    H229057   1.291   3.897   0.834  0.3503 -1.1337 -0.4041
 2548TIP3   OH229058   1.882   0.200   1.491 -0.1030 -0.2351  0.5119
 2548TIP3    H129059   1.926   0.285   1.490  2.0111 -1.1887 -2.3882
 2548TIP3    H229060   1.789   0.221   1.483  0.1921  1.7887  1.6218
 2549TIP3   OH229061   3.532   1.827   1.804 -1.1083 -0.0276  0.2586
 2549TIP3    H129062   3.445   1.789   1.794 -0.9514  0.0353 -1.8358
 2549TIP3    H229063   3.572   1.820   1.717  0.2863  1.6121  0.7006
 2550TIP3   OH229064   1.479   2.996   3.910  0.2984  0.1640 -0.7180
 2550TIP3    H129065   1.515   3.024   3.995 -0.6389  1.6414 -0.7735
 2550TIP3    H229066   1.542   2.931   3.878 -0.0169 -1.4825  1.7250
 2551TIP3   OH229067   2.776   2.592  16.162 -0.7176 -0.2527 -0.0228
 2551TIP3    H129068   2.862   2.564  16.131  0.3834  1.7641  1.0202
 2551TIP3    H229069   2.761   2.540  16.241 -0.9094 -1.2639 -0.7043
 2552TIP3   OH229070   6.766   6.118  13.797  0.7820 -0.4634  0.1793
 2552TIP3    H129071   6.831   6.052  13.818  1.7693  0.7641  1.1575
 2552TIP3    H229072   6.687   6.089  13.843  1.4768 -0.4883  1.4029
 2553TIP3   OH229073   3.748   5.941  13.796 -0.0860 -0.3333  0.2484
 2553TIP3    H129074   3.716   6.026  13.825 -0.8814 -0.5653  0.0658
 2553TIP3    H229075   3.672   5.897  13.760  0.3653 -1.0384  0.1226
 2554TIP3   OH229076   2.437   6.163  17.204  0.4568  0.1408 -0.0085
 2554TIP3    H129077   2.346   6.190  17.208  1.0103  2.1287  0.1081
 2554TIP3    H229078   2.437   6.089  17.142 -1.4174 -0.9724  1.2285
 2555TIP3   OH229079   6.106   5.810   0.219  0.0307  0.3824  0.1721
 2555TIP3    H129080   6.126   5.749   0.148  1.6582 -1.3679  2.0185
 2555TIP3    H229081   6.175   5.796   0.284  0.4389  4.1785  0.7800
 2556TIP3   OH229082   1.632   3.362   4.533  0.1211 -0.3402 -0.1396
 2556TIP3    H129083   1.537   3.360   4.535  0.0847  0.9630  0.5928
 2556TIP3    H229084   1.654   3.450   4.503  1.1271 -1.4329 -2.9584
 2557TIP3   OH229085   0.374   0.235   0.994  0.2802 -0.3594 -0.0055
 2557TIP3    H129086   0.435   0.162   1.006 -0.3937 -0.9449 -0.0773
 2557TIP3    H229087   0.310   0.203   0.930 -1.0785 -0.3910  1.3114
 2558TIP3   OH229088   2.442   6.615  13.403 -0.0661  0.2225 -0.3409
 2558TIP3    H129089   2.427   6.532  13.358  0.2555 -0.3773  0.6264
 2558TIP3    H229090   2.362   6.665  13.388 -0.5056 -0.4941 -0.4344
 2559TIP3   OH229091   4.181   4.234   1.452  0.2753  0.0248 -0.1579
 2559TIP3    H129092   4.215   4.232   1.362  1.1841  1.6993  0.0926
 2559TIP3    H229093   4.198   4.147   1.486  1.1191 -0.2461 -1.2086
 2560TIP3   OH229094   0.125   5.609  15.423 -0.2443  0.0203 -0.5663
 2560TIP3    H129095   0.161   5.694  15.397  1.4065 -0.9030 -1.4321
 2560TIP3    H229096   0.147   5.601  15.516 -1.7890  1.1840 -0.0655
 2561TIP3   OH229097   0.399   3.364   4.381 -0.1865  0.1269 -0.4533
 2561TIP3    H129098   0.316   3.315   4.387 -0.1407  0.2201  1.3450
 2561TIP3    H229099   0.464   3.305   4.419  0.7251 -0.1578 -2.3251
 2562TIP3   OH229100   3.510   3.821  12.931  0.0329  0.1572  0.0517
 2562TIP3    H129101   3.470   3.898  12.972  0.9706  0.6510  0.0728
 2562TIP3    H229102   3.473   3.819  12.843 -0.6972  0.0939  0.3571
 2563TIP3   OH229103   4.669   5.750   4.364  0.0304 -0.2182 -0.1719
 2563TIP3    H129104   4.663   5.844   4.347 -0.4465 -0.1765  0.2191
 2563TIP3    H229105   4.762   5.729   4.349 -0.0180  0.1547 -1.0346
 2564TIP3   OH229106   2.989   2.711  14.631  0.3994 -0.1928  0.0952
 2564TIP3    H129107   2.896   2.724  14.648  0.2542  0.1967 -0.9220
 2564TIP3    H229108   3.017   2.647  14.696 -0.2244  0.8024  1.3827
 2565TIP3   OH229109   3.597   2.819  12.523  0.1434  0.3637  0.1842
 2565TIP3    H129110   3.541   2.870  12.582 -0.6171 -0.7287  0.4455
 2565TIP3    H229111   3.686   2.849  12.543 -0.2301  1.1233  0.7757
 2566TIP3   OH229112   0.641   0.860   1.802 -0.2061  0.1644 -0.1256
 2566TIP3    H129113   0.696   0.878   1.726  0.8361  2.2829  1.0501
 2566TIP3    H229114   0.629   0.765   1.801  0.7034  0.0244 -2.2758
 2567TIP3   OH229115   4.110   4.722   2.256 -0.0252 -0.5298 -0.4717
 2567TIP3    H129116   4.084   4.658   2.322 -0.7452  2.0489  1.9449
 2567TIP3    H229117   4.058   4.700   2.179 -1.0837 -2.1548  0.6579
 2568TIP3   OH229118   6.670   4.800   6.408 -0.1365 -0.5256 -0.5679
 2568TIP3    H129119   6.656   4.853   6.487  1.6700 -1.9726  0.8250
 2568TIP3    H229120   6.599   4.737   6.408 -1.3625  0.8076 -1.3263
 2569TIP3   OH229121   2.037   6.085  13.644  0.0964 -0.4966 -0.1763
 2569TIP3    H129122   2.091   6.067  13.567  1.7221  0.6678  0.6380
 2569TIP3    H229123   2.099   6.119  13.709 -1.1631 -1.7592  1.7702
 2570TIP3   OH229124   6.703   5.416  11.492 -0.8071  0.8775 -0.5164
 2570TIP3    H129125   6.668   5.454  11.411  0.8027 -0.0466 -1.7066
 2570TIP3    H229126   6.740   5.332  11.465 -0.6005  0.3604  1.2760
 2571TIP3   OH229127   0.360   4.920   1.502  0.1232  0.3072 -0.1339
 2571TIP3    H129128   0.377   4.838   1.547 -1.0957 -0.5397 -1.1346
 2571TIP3    H229129   0.421   4.921   1.429 -0.3231 -0.0565 -0.5187
 2572TIP3   OH229130   1.656   4.454  16.935  0.1821  0.0064  0.1525
 2572TIP3    H129131   1.610   4.501  16.866 -0.7160 -0.2598  0.5571
 2572TIP3    H229132   1.641   4.362  16.916 -1.2446 -0.0635  1.4468
 2573TIP3   OH229133   5.372   0.815   0.449 -0.4801  0.2446  0.2439
 2573TIP3    H129134   5.423   0.744   0.487  0.7025  0.2493 -1.2501
 2573TIP3    H229135   5.398   0.893   0.499  0.1554  0.0602  0.1998
 2574TIP3   OH229136   6.704   5.743   1.409 -0.4133 -0.4378 -0.0243
 2574TIP3    H129137   6.754   5.782   1.480  0.2561 -0.8622 -0.2578
 2574TIP3    H229138   6.616   5.730   1.446 -0.6501  1.2586  0.0543
 2575TIP3   OH229139   5.000   5.852  14.023 -0.4206 -0.3011 -0.0375
 2575TIP3    H129140   5.025   5.898  13.944 -4.3541  1.1962 -0.6432
 2575TIP3    H229141   4.966   5.920  14.081 -0.6244 -1.7570  1.6455
 2576TIP3   OH229142   0.654   2.660   5.742  0.2621 -0.0007 -0.0423
 2576TIP3    H129143   0.679   2.568   5.757  1.9017 -0.2443 -3.1963
 2576TIP3    H229144   0.669   2.703   5.826 -0.3930 -2.5436  1.5008
 2577TIP3   OH229145   3.016   6.274   2.591  0.6798 -0.3943  0.2634
 2577TIP3    H129146   3.009   6.179   2.604 -3.2050 -0.2537  0.4035
 2577TIP3    H229147   3.064   6.283   2.508  1.6403 -2.4019  0.5341
 2578TIP3   OH229148   1.272   1.591   1.888  0.1671  0.0967 -0.3103
 2578TIP3    H129149   1.318   1.657   1.940 -0.6331  1.4168 -1.2214
 2578TIP3    H229150   1.338   1.523   1.872  1.1044  0.8121  0.3935
 2579TIP3   OH229151   0.737   2.333  12.580  0.1260  0.0539 -0.2961
 2579TIP3    H129152   0.744   2.272  12.653  1.4706 -1.1340 -1.3611
 2579TIP3    H229153   0.797   2.299  12.514 -2.3542  0.0450 -2.7312
 2580TIP3   OH229154   6.262   6.256   3.620  0.4921 -0.1109  0.3044
 2580TIP3    H129155   6.297   6.320   3.682  0.9434 -0.2431  0.1890
 2580TIP3    H229156   6.272   6.299   3.534 -2.4861  1.1772  0.4755
 2581TIP3   OH229157   3.884   0.417   1.144  0.5372 -0.3924 -0.1005
 2581TIP3    H129158   3.948   0.380   1.205 -0.6177  0.2474  1.5764
 2581TIP3    H229159   3.852   0.342   1.094  1.9651 -0.8354 -0.3834
 2582TIP3   OH229160   2.784   0.527  10.199 -0.0809  0.0775  0.1553
 2582TIP3    H129161   2.740   0.612  10.206  0.1825  0.4789 -2.2851
 2582TIP3    H229162   2.715   0.466  10.173  0.2520  0.1120 -0.8186
 2583TIP3   OH229163   0.987   4.076  16.167 -0.3334 -0.1957 -0.1919
 2583TIP3    H129164   0.949   4.163  16.155 -1.3195 -0.5060  0.5477
 2583TIP3    H229165   1.069   4.078  16.117 -0.1647  1.2667  0.1108
 2584TIP3   OH229166   5.149   4.472  14.017  0.7493  0.4659 -0.7557
 2584TIP3    H129167   5.176   4.447  13.929 -1.2826 -0.0711 -1.2795
 2584TIP3    H229168   5.186   4.559  14.031 -0.0982  1.1964 -2.7340
 2585TIP3   OH229169   3.595   5.015   5.280  0.0400  0.4650 -0.1166
 2585TIP3    H129170   3.542   4.948   5.238  2.0073 -0.5862 -1.0492
 2585TIP3    H229171   3.559   5.098   5.248 -1.3044 -0.1881 -0.3366
 2586TIP3   OH229172   0.256   2.546   1.753  0.2508 -0.4617 -0.0387
 2586TIP3    H129173   0.326   2.539   1.688  0.0066  0.3564 -0.4012
 2586TIP3    H229174   0.193   2.605   1.713 -0.0581 -0.2088  0.8132
 2587TIP3   OH229175   2.249   0.239  11.025  0.4821 -0.1093  0.0060
 2587TIP3    H129176   2.323   0.225  10.966 -0.9309  1.2009 -2.1973
 2587TIP3    H229177   2.218   0.150  11.045  1.8424 -0.6246 -0.0412
 2588TIP3   OH229178   6.150   2.690  14.339  0.4756  0.2799  0.3147
 2588TIP3    H129179   6.093   2.723  14.408 -1.2957 -0.5840 -0.6685
 2588TIP3    H229180   6.190   2.611  14.376  0.3103  0.3687  0.6843
 2589TIP3   OH229181   3.086   0.304  16.523 -0.0772 -0.0206 -0.3173
 2589TIP3    H129182   3.065   0.210  16.525 -1.7704  0.2744 -2.0718
 2589TIP3    H229183   3.064   0.335  16.611 -0.0038 -1.1368  0.1236
 2590TIP3   OH229184   3.959   3.750   2.205  0.5649 -1.0042  0.1910
 2590TIP3    H129185   4.053   3.742   2.186 -0.0672 -3.4134 -2.5913
 2590TIP3    H229186   3.926   3.811   2.139  0.0854 -0.4938  0.8919
 2591TIP3   OH229187   2.719   3.767   4.370 -1.1011 -0.2459 -0.0708
 2591TIP3    H129188   2.723   3.859   4.396  0.6786 -0.7035  1.4614
 2591TIP3    H229189   2.660   3.766   4.294 -0.6453  2.2309 -0.5311
 2592TIP3   OH229190   1.881   6.326   0.389 -0.4048 -0.2282  0.0779
 2592TIP3    H129191   1.908   6.235   0.378 -1.1707 -0.4783  0.1923
 2592TIP3    H229192   1.859   6.334   0.482 -1.3576 -0.2208 -0.1368
 2593TIP3   OH229193   1.423   4.632  11.620  0.3256 -0.1972  0.0874
 2593TIP3    H129194   1.494   4.685  11.658  1.2960 -0.9666 -0.6217
 2593TIP3    H229195   1.405   4.674  11.536 -0.5661  0.4096  0.5596
 2594TIP3   OH229196   2.766   2.252   4.286  0.2098  0.1771  0.2579
 2594TIP3    H129197   2.840   2.274   4.343 -0.0383  1.0301  0.2601
 2594TIP3    H229198   2.806   2.236   4.200  0.3514  1.0802  0.1535
 2595TIP3   OH229199   0.190   3.915  14.147  0.4575  0.0764  0.3161
 2595TIP3    H129200   0.116   3.883  14.096  0.4292 -0.6641  0.8028
 2595TIP3    H229201   0.259   3.931  14.083 -0.0491  0.5610 -0.1154
 2596TIP3   OH229202   5.330   1.727  16.825  0.0692  0.0302  0.2445
 2596TIP3    H129203   5.348   1.757  16.736 -2.5441 -0.7702 -0.6539
 2596TIP3    H229204   5.331   1.807  16.878 -3.9053  1.5638 -1.5811
 2597TIP3   OH229205   6.304   5.738   5.498 -0.1562  1.2979 -0.0157
 2597TIP3    H129206   6.249   5.662   5.516 -1.1205  2.0312  0.1947
 2597TIP3    H229207   6.382   5.724   5.552 -0.2865  0.4268 -0.0364
 2598TIP3   OH229208   5.974   2.694   5.526 -0.0715 -0.2171  0.0597
 2598TIP3    H129209   6.033   2.666   5.597 -0.3863  0.3251  0.5464
 2598TIP3    H229210   5.888   2.660   5.551 -1.3342  4.0853  2.6457
 2599TIP3   OH229211   2.799   6.613   2.521 -0.3811 -0.4354  0.2826
 2599TIP3    H129212   2.820   6.690   2.572  1.5712  1.0831 -2.5369
 2599TIP3    H229213   2.814   6.539   2.580  0.2008  1.2334  2.3005
 2600TIP3   OH229214   5.443   1.663   2.814  0.9375  0.7082  0.0400
 2600TIP3    H129215   5.512   1.645   2.751 -0.5506 -2.5295 -0.9274
 2600TIP3    H229216   5.482   1.646   2.899  1.7728  0.5711 -0.3678
 2601TIP3   OH229217   1.741   4.045  14.264 -0.6292 -0.0459 -0.2745
 2601TIP3    H129218   1.769   3.976  14.204 -0.6538 -0.0104 -0.3265
 2601TIP3    H229219   1.677   4.096  14.214 -0.4026  0.1818 -0.3301
 2602TIP3   OH229220   3.047   5.725  12.813 -0.9285  0.0283  0.1414
 2602TIP3    H129221   3.115   5.748  12.749 -1.9412 -0.2952 -1.1055
 2602TIP3    H229222   3.057   5.788  12.883  0.0032  0.6267 -0.5092
 2603TIP3   OH229223   6.487   3.081   3.204 -0.0084  0.1022 -0.7624
 2603TIP3    H129224   6.540   3.052   3.279 -1.1226 -0.4665 -0.1735
 2603TIP3    H229225   6.470   3.173   3.221 -2.5460 -0.5974  1.1927
 2604TIP3   OH229226   0.690   4.358  12.212  0.0759 -0.3723  0.6443
 2604TIP3    H129227   0.714   4.369  12.304  0.8322  1.0695  0.2981
 2604TIP3    H229228   0.616   4.297  12.213  0.1822 -0.5018  2.1817
 2605TIP3   OH229229   3.875   1.130  10.849  0.1873 -0.2132 -0.1115
 2605TIP3    H129230   3.862   1.036  10.852  0.5444 -0.2665 -0.1563
 2605TIP3    H229231   3.791   1.165  10.819 -0.5363 -0.3594  1.6727
 2606TIP3   OH229232   1.615   4.507   2.013 -0.4745 -0.0324  0.4556
 2606TIP3    H129233   1.696   4.467   1.981 -2.1419 -2.3972 -1.1484
 2606TIP3    H229234   1.562   4.520   1.934 -1.7131  1.4141  1.4654
 2607TIP3   OH229235   2.044   5.531   5.641  0.2442 -0.4845  0.5562
 2607TIP3    H129236   2.041   5.437   5.621 -0.8208 -0.7345  1.7428
 2607TIP3    H229237   1.960   5.565   5.611  1.2365  0.4475 -1.3271
 2608TIP3   OH229238   4.566   4.779   1.635  0.5699 -0.0528  0.5842
 2608TIP3    H129239   4.585   4.872   1.633 -1.7758  0.4867  0.7742
 2608TIP3    H229240   4.594   4.751   1.722 -1.4183  1.1749  1.6906
 2609TIP3   OH229241   0.551   0.226   4.360 -0.0438  0.3092 -0.3108
 2609TIP3    H129242   0.592   0.216   4.446  2.0527 -1.4620 -1.4023
 2609TIP3    H229243   0.496   0.303   4.368  1.8562  1.5692  1.9635
 2610TIP3   OH229244   3.481   0.410  11.516 -0.0403  0.7047 -0.3482
 2610TIP3    H129245   3.418   0.348  11.479  1.8108 -1.0993 -0.6936
 2610TIP3    H229246   3.441   0.496  11.503 -2.5398 -0.3435 -0.2546
 2611TIP3   OH229247   3.221   2.883   4.908 -0.5170  0.3378 -0.0975
 2611TIP3    H129248   3.234   2.944   4.836  0.2454 -0.6094 -0.7870
 2611TIP3    H229249   3.128   2.891   4.930 -0.5441  1.3306 -0.5411
 2612TIP3   OH229250   4.455   5.529   1.917  0.0303 -0.4541  0.0270
 2612TIP3    H129251   4.376   5.569   1.953  0.4235  0.9336 -0.5734
 2612TIP3    H229252   4.493   5.597   1.860  1.5785 -1.1166  0.1997
 2613TIP3   OH229253   3.619   0.426   5.990  0.0833  0.5373 -0.3467
 2613TIP3    H129254   3.652   0.516   5.988 -1.2509  1.0212 -1.7565
 2613TIP3    H229255   3.697   0.372   5.977  1.0080  1.4210  1.1924
 2614TIP3   OH229256   2.987   0.277  13.884 -0.0002  0.0030 -0.0873
 2614TIP3    H129257   2.904   0.317  13.910 -0.5997 -0.8632 -0.6120
 2614TIP3    H229258   2.964   0.187  13.862  0.7001  0.3137 -2.3033
 2615TIP3   OH229259   0.515   5.267  15.577  0.1108  0.3277 -0.1033
 2615TIP3    H129260   0.470   5.343  15.612  0.4726  1.3650 -1.7870
 2615TIP3    H229261   0.453   5.230  15.513  0.9197  0.7639 -1.1772
 2616TIP3   OH229262   0.682   5.257   3.421 -0.0916 -0.2646  0.3102
 2616TIP3    H129263   0.624   5.183   3.439 -0.9322 -0.0644 -1.4402
 2616TIP3    H229264   0.728   5.271   3.504 -0.2204 -2.4516  0.8315
 2617TIP3   OH229265   6.468   2.909   3.647  0.4436  0.3037  0.1549
 2617TIP3    H129266   6.414   2.842   3.605  0.3187  0.0021  0.7906
 2617TIP3    H229267   6.558   2.887   3.620  0.5508 -0.9180  1.4138
 2618TIP3   OH229268   6.660   4.240  11.707 -0.0697 -0.2082  0.2623
 2618TIP3    H129269   6.745   4.280  11.724 -0.1713  0.5243 -0.8506
 2618TIP3    H229270   6.660   4.160  11.760  0.1931  1.1470  2.4521
 2619TIP3   OH229271   2.325   5.974  12.252 -0.1389  0.3234  0.4539
 2619TIP3    H129272   2.389   5.996  12.186 -0.1784 -0.0942  0.2698
 2619TIP3    H229273   2.325   5.878  12.254 -0.5754  0.3239  0.6249
 2620TIP3   OH229274   0.557   5.563   3.642 -0.1612  0.2622  0.2902
 2620TIP3    H129275   0.532   5.615   3.718 -1.7287 -1.2736  0.8988
 2620TIP3    H229276   0.569   5.627   3.572  2.6294  1.8670  2.0579
 2621TIP3   OH229277   6.656   4.971   1.980  0.5597  0.1492 -0.0712
 2621TIP3    H129278   6.708   5.023   1.919  2.2750 -0.6789  0.5965
 2621TIP3    H229279   6.678   5.008   2.066 -1.2498  0.8210  0.1486
 2622TIP3   OH229280   0.466   3.984   4.856 -0.2433  0.1158 -0.1651
 2622TIP3    H129281   0.536   4.036   4.818  0.0647 -0.4749 -0.4257
 2622TIP3    H229282   0.387   4.037   4.844  0.5923  2.4467  3.3217
 2623TIP3   OH229283   3.017   2.729  12.493 -0.0052  0.2057  0.6026
 2623TIP3    H129284   2.956   2.689  12.431 -1.2134  2.3337  0.3376
 2623TIP3    H229285   3.048   2.656  12.546 -2.9699 -0.9699  0.8902
 2624TIP3   OH229286   4.047   6.385   4.361  0.4180 -0.3646  0.2901
 2624TIP3    H129287   4.044   6.385   4.457 -1.5922 -2.3012  0.3189
 2624TIP3    H229288   3.987   6.455   4.335  1.0708  0.2552  0.4176
 2625TIP3   OH229289   4.173   4.918  16.148  0.6778  0.2982  0.3384
 2625TIP3    H129290   4.169   4.851  16.216 -1.2029  0.7482  0.7337
 2625TIP3    H229291   4.136   4.877  16.070 -0.3276  0.7973  0.5367
 2626TIP3   OH229292   0.391   2.951  13.586  0.3377 -0.1224  0.3092
 2626TIP3    H129293   0.391   2.855  13.591  0.6868 -0.0665  2.0599
 2626TIP3    H229294   0.445   2.971  13.509 -1.3335 -1.3305 -1.2448
 2627TIP3   OH229295   2.803   1.408   1.207  0.1415 -0.4840 -0.0874
 2627TIP3    H129296   2.884   1.454   1.185 -0.2104  0.3901  0.3746
 2627TIP3    H229297   2.738   1.479   1.218 -1.4390 -1.2135 -3.3398
 2628TIP3   OH229298   3.128   3.340   3.505 -0.0528  0.7270  0.0450
 2628TIP3    H129299   3.077   3.266   3.474  0.1744 -0.4214  2.2856
 2628TIP3    H229300   3.214   3.329   3.462  0.0845 -0.4990  0.5993
 2629TIP3   OH229301   4.783   1.212  14.215 -0.2457  0.3501  0.0981
 2629TIP3    H129302   4.876   1.197  14.202  0.1093  0.5412  2.2122
 2629TIP3    H229303   4.743   1.184  14.132  1.3395 -2.6962  0.2378
 2630TIP3   OH229304   2.295   3.292  16.299  0.3822 -0.3467 -0.5478
 2630TIP3    H129305   2.275   3.348  16.374  0.5541 -2.3973  1.1112
 2630TIP3    H229306   2.389   3.300  16.287  0.6077 -1.2153  0.5120
 2631TIP3   OH229307   6.198   2.462   4.153 -0.0216 -0.0673 -0.4190
 2631TIP3    H129308   6.160   2.545   4.125 -1.8646 -0.5600  0.4872
 2631TIP3    H229309   6.209   2.413   4.071  2.2071  1.4294 -1.1176
 2632TIP3   OH229310   6.087   5.341  14.456 -0.2992  0.1253  0.4261
 2632TIP3    H129311   6.086   5.299  14.370 -0.9760  1.3109 -0.1758
 2632TIP3    H229312   6.048   5.277  14.515  1.2271 -1.1650  0.1135
 2633TIP3   OH229313   6.463   5.862   4.991  0.7211  0.0040  0.8149
 2633TIP3    H129314   6.528   5.874   4.922  1.8755 -0.1107  1.8455
 2633TIP3    H229315   6.505   5.896   5.070  0.5633 -2.3359  2.0193
 2634TIP3   OH229316   6.559   0.980   1.243  0.2668  0.0658  0.2843
 2634TIP3    H129317   6.586   1.025   1.323  0.9043 -2.1332  1.3872
 2634TIP3    H229318   6.640   0.944   1.208 -0.3071 -0.7838 -0.1868
 2635TIP3   OH229319   1.563   2.487   4.499 -0.4119 -0.0404 -0.2902
 2635TIP3    H129320   1.516   2.461   4.578 -0.5372 -1.0569 -0.6903
 2635TIP3    H229321   1.592   2.577   4.518  0.4472 -0.6095  1.3158
 2636TIP3   OH229322   0.395   4.366   3.068 -0.0210  0.3124  0.2771
 2636TIP3    H129323   0.430   4.399   3.150 -1.3351  0.1203  0.9505
 2636TIP3    H229324   0.407   4.271   3.073  0.3438  0.3449  0.0255
 2637TIP3   OH229325   0.770   1.650  11.259  0.2081 -0.1279  0.6995
 2637TIP3    H129326   0.751   1.557  11.246 -1.4441  0.1671  0.8102
 2637TIP3    H229327   0.810   1.655  11.346 -0.7930 -0.6015  1.1922
 2638TIP3   OH229328   3.520   5.092  12.492 -0.5921  0.0340 -0.8857
 2638TIP3    H129329   3.483   5.071  12.407 -0.2573 -2.4353 -0.4751
 2638TIP3    H229330   3.504   5.015  12.546  0.1589  1.1048  0.9847
 2639TIP3   OH229331   0.091   1.481   4.002 -0.7188  0.7493 -0.3449
 2639TIP3    H129332   0.117   1.472   4.094 -0.0091 -1.1213 -0.6971
 2639TIP3    H229333  -0.003   1.497   4.005 -1.5106 -3.1909  0.6402
 2640TIP3   OH229334   2.578   2.529   3.357  0.8287 -0.2461  0.0194
 2640TIP3    H129335   2.510   2.524   3.424  1.4362  1.3158  0.8193
 2640TIP3    H229336   2.546   2.475   3.285 -0.9092 -0.1373  0.6738
 2641TIP3   OH229337   3.497   3.507  11.465  0.4655 -0.3016 -0.5391
 2641TIP3    H129338   3.571   3.510  11.527  0.5487  0.9205 -0.6866
 2641TIP3    H229339   3.448   3.429  11.491  0.6851  0.0011  0.8656
 2642TIP3   OH229340   3.350   5.762  15.434 -0.4910 -0.0548  0.5671
 2642TIP3    H129341   3.260   5.734  15.416 -0.5408  0.6228 -0.3009
 2642TIP3    H229342   3.341   5.844  15.481 -0.3278 -0.1990  0.8506
 2643TIP3   OH229343   6.402   3.947   3.077  1.1230  0.2169 -0.3831
 2643TIP3    H129344   6.407   3.933   3.172  0.5749 -1.0661 -0.5305
 2643TIP3    H229345   6.313   3.977   3.061  1.3904  1.0208 -0.4422
 2644TIP3   OH229346   6.578   1.019   0.201 -0.2501  0.5166 -0.0354
 2644TIP3    H129347   6.631   0.950   0.161 -1.4833 -1.0278  0.8798
 2644TIP3    H229348   6.574   1.087   0.134  1.1763 -0.1889 -0.8983
 2645TIP3   OH229349   6.485   4.336  16.751  0.0856  0.1887  0.2820
 2645TIP3    H129350   6.441   4.311  16.670 -0.2200  0.5037  0.3512
 2645TIP3    H229351   6.578   4.331  16.730  0.0299 -0.6256  0.1796
 2646TIP3   OH229352   3.946   1.364   2.925 -0.3767 -0.0063  0.0653
 2646TIP3    H129353   3.883   1.427   2.960 -1.0748 -0.2178 -0.7770
 2646TIP3    H229354   3.967   1.397   2.838 -1.7410 -1.5566 -0.9231
 2647TIP3   OH229355   3.207   4.428  15.973  0.4297 -0.2464  0.2945
 2647TIP3    H129356   3.138   4.430  16.040  0.5271 -0.7967  0.4124
 2647TIP3    H229357   3.233   4.520  15.963 -2.9174  0.6593 -2.4334
 2648TIP3   OH229358   4.806   0.492   2.543  0.1088 -0.1255  0.5795
 2648TIP3    H129359   4.749   0.493   2.620  0.5136  0.8189  0.8803
 2648TIP3    H229360   4.847   0.579   2.542 -1.3332  0.6244 -1.7904
 2649TIP3   OH229361   0.150   0.776   2.030  0.7696  0.2512 -0.2835
 2649TIP3    H129362   0.202   0.765   1.950  1.0482  0.5994 -0.1511
 2649TIP3    H229363   0.094   0.698   2.033  0.2635  0.5597 -1.1808
 2650TIP3   OH229364   3.043   1.596   1.637 -0.0132 -0.0824 -0.0609
 2650TIP3    H129365   3.028   1.502   1.638  0.4291 -0.1916 -1.3462
 2650TIP3    H229366   3.114   1.608   1.574  0.1622  1.0843  0.3265
 2651TIP3   OH229367   2.801   4.384   0.616 -0.2986 -0.0557  0.6282
 2651TIP3    H129368   2.804   4.312   0.679  1.1539  0.1714  0.8613
 2651TIP3    H229369   2.864   4.448   0.650 -2.2279  1.7698  0.9183
 2652TIP3   OH229370   1.714   1.131   4.634 -0.0951  0.5650 -0.7607
 2652TIP3    H129371   1.707   1.081   4.553  1.9324 -0.6240 -0.2678
 2652TIP3    H229372   1.754   1.213   4.608 -0.0506  0.4490 -1.0631
 2653TIP3   OH229373   2.113   2.353   6.444  0.5888 -0.3509  0.4468
 2653TIP3    H129374   2.170   2.289   6.487  1.6877 -0.2100 -0.7511
 2653TIP3    H229375   2.024   2.321   6.460  1.0634 -1.3866  1.0870
 2654TIP3   OH229376   4.353   4.145  12.925 -0.0369  0.0331 -0.7195
 2654TIP3    H129377   4.431   4.109  12.966  0.2357  0.3194 -0.9782
 2654TIP3    H229378   4.282   4.127  12.987  0.1300 -0.7437 -0.7526
 2655TIP3   OH229379   5.362   3.410  14.810  0.6564  0.2794  0.1481
 2655TIP3    H129380   5.316   3.406  14.727 -1.8631 -0.4662  1.4858
 2655TIP3    H229381   5.310   3.470  14.864  1.7368  0.0813  1.4729
 2656TIP3   OH229382   1.232   2.485   1.057  0.8890 -0.3206 -0.7386
 2656TIP3    H129383   1.291   2.531   0.998  0.7664 -0.2603 -0.8165
 2656TIP3    H229384   1.266   2.396   1.062  0.5275 -0.4993 -1.4127
 2657TIP3   OH229385   5.553   3.958  11.218 -0.3636  0.6584 -0.4211
 2657TIP3    H129386   5.543   4.046  11.183 -0.6764  0.1568 -1.6561
 2657TIP3    H229387   5.491   3.905  11.168  0.0547 -0.3237  0.0723
 2658TIP3   OH229388   5.694   3.975  13.734 -0.5569  0.0273  0.1932
 2658TIP3    H129389   5.762   3.988  13.668 -1.6851  0.7242 -0.8784
 2658TIP3    H229390   5.727   3.904  13.789  0.8903  0.1541 -0.4758
 2659TIP3   OH229391   3.679   5.364   3.857  0.9008 -0.1876 -0.3524
 2659TIP3    H129392   3.700   5.281   3.899  0.3104  0.1940  0.7059
 2659TIP3    H229393   3.584   5.367   3.854  0.9238 -0.0754 -1.4776
 2660TIP3   OH229394   1.715   3.884   6.679 -0.3400 -0.4960  0.2850
 2660TIP3    H129395   1.805   3.854   6.674 -1.3056 -3.5952 -0.3796
 2660TIP3    H229396   1.710   3.957   6.617  1.2013 -1.7020 -1.3498
 2661TIP3   OH229397   3.540   4.309   2.173 -0.7031 -0.0026  0.2125
 2661TIP3    H129398   3.548   4.327   2.266 -1.6702  0.1604  0.2716
 2661TIP3    H229399   3.461   4.357   2.146 -0.2661  0.2019 -0.7496
 2662TIP3   OH229400   1.928   5.871   5.595  0.0295 -0.2616 -0.4709
 2662TIP3    H129401   1.895   5.782   5.583  0.0145 -0.1756 -1.1256
 2662TIP3    H229402   1.932   5.907   5.506  0.9261  0.0705 -0.3084
 2663TIP3   OH229403   4.644   2.321   3.917  0.3857 -0.3860 -0.2554
 2663TIP3    H129404   4.604   2.356   3.996 -0.2254 -0.2649 -0.6143
 2663TIP3    H229405   4.702   2.252   3.948 -0.7746 -1.1821  0.2066
 2664TIP3   OH229406   2.014   5.999   4.622  0.1074 -0.0360 -0.3301
 2664TIP3    H129407   2.085   5.996   4.559  1.5373  0.3980  1.1809
 2664TIP3    H229408   2.014   6.089   4.655  0.5723 -0.6471  1.4920
 2665TIP3   OH229409   4.962   0.441  12.505 -0.5100 -0.2872 -0.5435
 2665TIP3    H129410   4.981   0.531  12.531  1.2867 -0.6719 -0.4078
 2665TIP3    H229411   4.904   0.449  12.429 -0.8463  0.9550 -0.1666
 2666TIP3   OH229412   4.599   1.996   4.178 -0.4383  0.4108  0.1277
 2666TIP3    H129413   4.679   1.980   4.128 -0.2538 -0.3311  0.6398
 2666TIP3    H229414   4.625   2.059   4.245 -0.6195  1.1965 -0.5267
 2667TIP3   OH229415   4.592   5.322  16.352 -0.6285  0.0926 -0.5956
 2667TIP3    H129416   4.527   5.363  16.294 -0.9052  1.4271  0.5720
 2667TIP3    H229417   4.607   5.235  16.315 -3.2992 -0.3746 -0.7852
 2668TIP3   OH229418   1.003   5.256   3.728 -0.2899  0.3571  0.2692
 2668TIP3    H129419   1.056   5.283   3.653  0.2335 -1.3844 -0.0345
 2668TIP3    H229420   0.915   5.286   3.706  0.3674  2.5530  0.4031
 2669TIP3   OH229421   2.365   3.603  16.096  0.2998 -0.6043 -0.6958
 2669TIP3    H129422   2.435   3.553  16.053  0.2013 -2.2201  0.9175
 2669TIP3    H229423   2.285   3.558  16.071 -0.1115  0.6108 -1.6733
 2670TIP3   OH229424   1.671   1.855   2.386  0.2371  0.4595  0.1677
 2670TIP3    H129425   1.647   1.880   2.297  0.5866 -0.1205 -0.0944
 2670TIP3    H229426   1.587   1.839   2.429  0.0457  1.2364  0.0963
 2671TIP3   OH229427   6.370   1.385  12.999  0.3044 -0.2229  0.6740
 2671TIP3    H129428   6.355   1.343  13.084  2.0030  0.6677  1.4823
 2671TIP3    H229429   6.323   1.468  13.005  1.1609  0.2540  1.1596
 2672TIP3   OH229430   6.502   2.607   0.899  0.6939  0.0562  0.1757
 2672TIP3    H129431   6.558   2.677   0.866  0.0320 -0.0441 -1.2504
 2672TIP3    H229432   6.471   2.562   0.820 -0.6290 -0.4831  0.9639
 2673TIP3   OH229433   2.506   1.313  14.086  0.0326  0.5926 -0.1872
 2673TIP3    H129434   2.449   1.323  14.163 -0.5979 -2.0258 -0.2221
 2673TIP3    H229435   2.455   1.351  14.014 -0.5811  0.5639  0.2151
 2674TIP3   OH229436   2.720   1.009  11.757 -0.0532 -0.0500 -0.0799
 2674TIP3    H129437   2.662   0.940  11.789 -0.2557 -0.9704 -2.2906
 2674TIP3    H229438   2.783   1.022  11.828 -1.2992 -0.9555  1.2510
 2675TIP3   OH229439   3.766   0.270  13.692  0.4195  0.0547 -1.5305
 2675TIP3    H129440   3.677   0.265  13.659  0.0740  0.3140 -0.6726
 2675TIP3    H229441   3.775   0.194  13.750 -0.3300  1.6437  0.8553
 2676TIP3   OH229442   1.213   4.874  13.216 -0.1254  0.5083  0.2449
 2676TIP3    H129443   1.306   4.851  13.212 -0.1290  0.5573 -0.1393
 2676TIP3    H229444   1.182   4.835  13.297  0.4644  1.3319  0.8848
 2677TIP3   OH229445   1.161   6.082  15.446  0.2913 -0.0355 -0.3046
 2677TIP3    H129446   1.232   6.020  15.462 -1.3905 -1.7294  1.0606
 2677TIP3    H229447   1.186   6.127  15.366  1.9953 -1.9044 -0.9026
 2678TIP3   OH229448   2.542   2.866   5.169  0.0421  0.0824 -0.4541
 2678TIP3    H129449   2.564   2.787   5.219  1.2632 -1.4445 -3.1870
 2678TIP3    H229450   2.460   2.897   5.208  1.8163  0.2266  3.7094
 2679TIP3   OH229451   6.185   4.927   2.503 -0.0697  0.3864  0.4239
 2679TIP3    H129452   6.281   4.925   2.504  0.1038 -1.9870 -2.9915
 2679TIP3    H229453   6.160   4.835   2.510 -2.0124  0.8254 -0.2026
 2680TIP3   OH229454   6.022   6.152  13.794  0.0793 -0.1665 -0.5369
 2680TIP3    H129455   6.054   6.231  13.838 -1.8688  0.8332 -0.7857
 2680TIP3    H229456   6.065   6.153  13.709  0.1369  0.5931 -0.5064
 2681TIP3   OH229457   6.346   1.636   5.359 -0.0405 -0.0749  0.8759
 2681TIP3    H129458   6.280   1.581   5.316  0.1903  2.3613 -3.1216
 2681TIP3    H229459   6.295   1.703   5.405 -0.4412  0.6587 -0.5713
 2682TIP3   OH229460   1.528   4.010   2.649  0.4831  0.1244  0.4188
 2682TIP3    H129461   1.490   3.925   2.674 -1.6979  1.5237  2.2466
 2682TIP3    H229462   1.465   4.047   2.587  0.8248  0.8778  0.5142
 2683TIP3   OH229463   5.182   6.349   1.226  0.3920  0.2493  0.2857
 2683TIP3    H129464   5.215   6.368   1.138  0.6471  0.3902  0.4096
 2683TIP3    H229465   5.200   6.256   1.239 -0.8526 -0.0967 -0.3198
 2684TIP3   OH229466   5.613   1.717  14.102  1.0912  0.3886  0.0702
 2684TIP3    H129467   5.540   1.697  14.044  2.2404 -0.3133 -1.2121
 2684TIP3    H229468   5.657   1.632  14.114  1.2065  0.6313  1.5285
 2685TIP3   OH229469   1.391   5.549   3.572 -0.6123  0.1508  0.3689
 2685TIP3    H129470   1.448   5.473   3.582  0.1725  0.8029  1.0129
 2685TIP3    H229471   1.328   5.541   3.643 -1.6392 -0.8123 -0.6135
 2686TIP3   OH229472   3.336   6.655   3.160 -0.4748 -0.0235  0.1015
 2686TIP3    H129473   3.263   6.611   3.116 -0.6699  0.8109 -0.4360
 2686TIP3    H229474   3.295   6.731   3.202  0.3125  1.4261 -1.6291
 2687TIP3   OH229475   5.838   2.163   0.983  0.0685  0.3227 -0.3224
 2687TIP3    H129476   5.917   2.110   0.996  0.1114  0.2297 -0.9401
 2687TIP3    H229477   5.852   2.240   1.037 -0.5888 -0.8860  1.7111
 2688TIP3   OH229478   0.485   1.795   2.520 -0.5008  0.0148 -0.2304
 2688TIP3    H129479   0.560   1.803   2.462 -0.9900 -0.7691 -0.9908
 2688TIP3    H229480   0.480   1.880   2.565 -0.2784  0.7402 -1.5317
 2689TIP3   OH229481   3.103   6.558   2.600 -0.1662  0.0728  0.0807
 2689TIP3    H129482   3.066   6.596   2.680  0.3459  1.7562 -0.4437
 2689TIP3    H229483   3.127   6.469   2.624 -3.6309 -0.8419  0.7316
 2690TIP3   OH229484   4.352   5.885  11.106  0.2645  0.2163 -0.9967
 2690TIP3    H129485   4.420   5.952  11.111 -0.8715  1.3180  0.8196
 2690TIP3    H229486   4.334   5.861  11.197 -1.8096  0.0247 -1.4076
 2691TIP3   OH229487   1.695   1.604  11.395 -0.6596 -0.0997 -0.4370
 2691TIP3    H129488   1.680   1.693  11.366 -0.2297  0.4972  1.0536
 2691TIP3    H229489   1.787   1.603  11.423 -1.2129 -0.3778  1.5463
 2692TIP3   OH229490   5.748   3.788  13.159 -0.0965  0.4945 -0.0256
 2692TIP3    H129491   5.825   3.782  13.103  1.5318  2.4442  1.8291
 2692TIP3    H229492   5.765   3.727  13.230  0.5851  2.0647  1.2286
 2693TIP3   OH229493   4.684   6.359   3.015 -0.3261  0.1106 -0.0883
 2693TIP3    H129494   4.600   6.318   3.037 -1.2245  0.9711 -1.7365
 2693TIP3    H229495   4.722   6.300   2.950  0.0966  0.0263  0.2307
 2694TIP3   OH229496   5.497   4.066  17.237  0.0454  0.4014 -0.0218
 2694TIP3    H129497   5.484   4.000  17.169 -0.9204  2.3098 -1.8219
 2694TIP3    H229498   5.580   4.108  17.214 -1.3942  2.6406 -1.5996
 2695TIP3   OH229499   2.393   1.168   2.100 -0.5547 -0.4460  0.1733
 2695TIP3    H129500   2.354   1.209   2.023 -0.6547 -1.5665 -0.4032
 2695TIP3    H229501   2.325   1.109   2.133 -0.0539 -0.9393  0.3416
 2696TIP3   OH229502   2.095   3.982   1.115 -0.0435 -0.0104 -0.5472
 2696TIP3    H129503   2.143   3.901   1.102  3.7517  1.6602  1.5543
 2696TIP3    H229504   2.071   3.982   1.208 -0.4057  1.0515 -0.6239
 2697TIP3   OH229505   1.466   6.660  11.901  0.1197 -0.4184  0.1697
 2697TIP3    H129506   1.507   6.705  11.827  0.1177 -0.1717  0.3155
 2697TIP3    H229507   1.435   6.731  11.958 -0.7482 -0.6012 -0.0647
 2698TIP3   OH229508   5.861   6.647  12.395  0.2410  0.6387  0.2089
 2698TIP3    H129509   5.829   6.643  12.486 -1.5295 -0.1326 -0.4021
 2698TIP3    H229510   5.864   6.556  12.366  0.8449  0.8738 -0.5056
 2699TIP3   OH229511   0.185   3.534  15.287 -0.0697 -0.2889  0.1298
 2699TIP3    H129512   0.229   3.618  15.274  0.2727 -0.8791 -3.5754
 2699TIP3    H229513   0.131   3.523  15.209 -1.3187 -2.8388  1.2333
 2700TIP3   OH229514   5.612   1.836   0.259 -0.1115 -0.0586  0.3864
 2700TIP3    H129515   5.696   1.879   0.275 -0.3225 -0.0793  1.6563
 2700TIP3    H229516   5.566   1.842   0.342 -1.8936  1.0575 -0.5987
 2701TIP3   OH229517   4.867   5.652  15.069  0.6462  0.9102  0.8579
 2701TIP3    H129518   4.776   5.628  15.050  1.3183 -0.8127 -0.5059
 2701TIP3    H229519   4.880   5.733  15.020  0.5191 -0.1786 -1.1143
 2702TIP3   OH229520   6.125   4.589  12.221  0.2920 -0.5628  0.2761
 2702TIP3    H129521   6.206   4.628  12.252  0.5488 -0.6628 -0.2526
 2702TIP3    H229522   6.150   4.543  12.141 -0.0627 -1.5175  0.6887
 2703TIP3   OH229523   3.211   1.041   0.627 -0.2059 -0.1802  0.0922
 2703TIP3    H129524   3.181   0.951   0.610  0.3977 -0.4665  0.5270
 2703TIP3    H229525   3.243   1.040   0.717 -1.5576  0.8529  0.6257
 2704TIP3   OH229526   3.787   3.934   2.763 -0.1333  0.0652  0.2640
 2704TIP3    H129527   3.862   3.993   2.759  0.1196 -0.1332  1.6013
 2704TIP3    H229528   3.824   3.848   2.780 -0.5472 -0.3998 -1.0564
 2705TIP3   OH229529   5.876   4.338  16.729 -0.3036  0.2639  0.0305
 2705TIP3    H129530   5.784   4.364  16.725 -1.0956 -2.3079 -0.6968
 2705TIP3    H229531   5.887   4.279  16.655  2.3487  1.5273 -0.7003
 2706TIP3   OH229532   1.944   2.538  11.765  0.0395  0.5781  0.3519
 2706TIP3    H129533   2.025   2.564  11.720  0.1188 -0.4186 -0.1062
 2706TIP3    H229534   1.894   2.490  11.699  0.8784 -2.3783  1.7322
 2707TIP3   OH229535   1.690   5.999  13.013  0.0196  0.1073 -0.1320
 2707TIP3    H129536   1.664   5.907  13.015 -0.4915  0.2360 -0.6606
 2707TIP3    H229537   1.777   6.000  13.055  0.6662 -0.8318 -1.3866
 2708TIP3   OH229538   6.753   3.412  13.669 -0.3489  0.2740 -0.3513
 2708TIP3    H129539   6.759   3.367  13.754  1.4306  0.4870 -0.3427
 2708TIP3    H229540   6.838   3.453  13.657 -1.2714  2.0707 -1.2626
 2709TIP3   OH229541   1.756   2.393   4.047  0.4070  0.3129 -0.0178
 2709TIP3    H129542   1.688   2.384   4.113 -0.5513 -0.2174 -1.0518
 2709TIP3    H229543   1.820   2.325   4.069 -0.9016 -1.2093 -0.7861
 2710TIP3   OH229544   1.207   4.027  15.842 -0.0853 -0.0032 -0.1152
 2710TIP3    H129545   1.154   4.076  15.779  2.1091 -0.1335 -2.1690
 2710TIP3    H229546   1.214   4.085  15.918  0.0880  1.6794 -1.3753
 2711TIP3   OH229547   5.770   2.421  15.111 -0.2314  0.1727  0.2379
 2711TIP3    H129548   5.781   2.348  15.173 -2.4272  0.1345  0.6813
 2711TIP3    H229549   5.784   2.381  15.025 -0.4898 -0.5686  0.5272
 2712TIP3   OH229550   1.140   1.825   0.015  0.0808  0.4047 -0.0212
 2712TIP3    H129551   1.213   1.764   0.009  0.4137  0.8247 -0.3330
 2712TIP3    H229552   1.126   1.837   0.109  0.6681  0.6183  0.0454
 2713TIP3   OH229553   2.083   5.875  16.928 -0.1318 -0.1628  0.3610
 2713TIP3    H129554   1.987   5.877  16.928 -0.1735 -0.9818 -0.8776
 2713TIP3    H229555   2.105   5.782  16.925  0.6770  0.0302 -0.1706
 2714TIP3   OH229556   0.565   5.239   0.275  0.7846 -0.0101  0.4827
 2714TIP3    H129557   0.499   5.212   0.212 -0.1823 -1.0267  1.8766
 2714TIP3    H229558   0.620   5.301   0.227  0.0568 -0.7002 -1.3166
 2715TIP3   OH229559   1.652   4.852   4.322  0.4469  0.2841 -0.0380
 2715TIP3    H129560   1.613   4.912   4.259 -0.0377 -1.5793 -1.6031
 2715TIP3    H229561   1.694   4.909   4.387  1.3232  2.3084 -2.2426
 2716TIP3   OH229562   6.527   0.466  11.388 -0.3703 -0.4664  0.3025
 2716TIP3    H129563   6.437   0.481  11.358  0.0362  1.0352 -0.2881
 2716TIP3    H229564   6.530   0.505  11.475 -0.0151  0.5604 -0.1471
 2717TIP3   OH229565   3.225   5.316   4.365  0.2652  0.3255  0.1203
 2717TIP3    H129566   3.261   5.301   4.453  0.6969  1.6968  0.2015
 2717TIP3    H229567   3.138   5.351   4.381 -0.8321 -2.1598 -0.0664
 2718TIP3   OH229568   2.256   2.722  11.805  0.1988  0.7776 -0.5026
 2718TIP3    H129569   2.349   2.735  11.825  0.3518  0.3735 -0.9214
 2718TIP3    H229570   2.216   2.696  11.888  0.7451 -0.5124 -0.6204
 2719TIP3   OH229571   4.909   1.986   1.571 -0.0550 -0.3380  0.1944
 2719TIP3    H129572   4.910   2.019   1.481  0.6901  0.4497  0.4736
 2719TIP3    H229573   4.952   1.901   1.566 -0.9392 -0.7623 -0.3537
 2720TIP3   OH229574   4.622   1.639   2.102  0.0208 -0.7672  0.1307
 2720TIP3    H129575   4.709   1.675   2.120  0.7642 -1.2373 -2.2661
 2720TIP3    H229576   4.617   1.562   2.158  2.2775 -2.2681 -1.5450
 2721TIP3   OH229577   1.504   6.102  16.082 -0.0687 -0.2491  0.6864
 2721TIP3    H129578   1.597   6.086  16.064 -0.0257  0.9946 -0.3041
 2721TIP3    H229579   1.503   6.185  16.130 -0.7331  0.2749 -0.2207
 2722TIP3   OH229580   1.182   4.117   2.955 -0.4011 -0.1773 -1.2158
 2722TIP3    H129581   1.167   4.209   2.976 -0.8377 -0.5650  0.3356
 2722TIP3    H229582   1.270   4.114   2.917  0.1081  0.7289 -0.1565
 2723TIP3   OH229583   5.133   4.843   0.991 -0.0051  0.9729 -0.2398
 2723TIP3    H129584   5.052   4.827   0.943  0.3959  1.4283 -1.0929
 2723TIP3    H229585   5.108   4.902   1.063 -0.4574  0.9667 -0.3926
 2724TIP3   OH229586   6.507   6.139  16.067 -0.2123 -0.1685 -0.2896
 2724TIP3    H129587   6.573   6.194  16.024  0.2927 -0.4951  0.0630
 2724TIP3    H229588   6.500   6.061  16.013  1.0198 -0.9493  0.6351
 2725TIP3   OH229589   0.149   4.566   0.129  0.2676 -0.0089  0.7486
 2725TIP3    H129590   0.173   4.504   0.198 -0.7456 -0.1120  1.0183
 2725TIP3    H229591   0.141   4.512   0.050 -2.1649 -0.5309  1.2901
 2726TIP3   OH229592   4.905   0.678  12.096  0.2641  1.1994 -0.4004
 2726TIP3    H129593   4.975   0.673  12.161 -0.9783  2.6717  1.1723
 2726TIP3    H229594   4.905   0.769  12.067 -1.6210  1.5403  0.4774
 2727TIP3   OH229595   1.121   1.984   1.120 -0.4827  0.3707  0.5427
 2727TIP3    H129596   1.074   2.043   1.061  0.3163  0.6014  0.1178
 2727TIP3    H229597   1.063   1.908   1.129 -0.6592  0.3574 -0.5008
 2728TIP3   OH229598   0.007   3.598   2.787  0.1002 -0.7967 -0.2529
 2728TIP3    H129599   0.073   3.530   2.779  0.1334 -0.8491  0.4076
 2728TIP3    H229600  -0.020   3.595   2.879  0.3205  0.2915 -0.1433
 2729TIP3   OH229601   0.344   0.128   3.721 -0.4065 -0.6936 -0.2566
 2729TIP3    H129602   0.295   0.121   3.803 -0.7988  0.1680 -0.4105
 2729TIP3    H229603   0.436   0.134   3.748 -0.6623  1.8496  0.2651
 2730TIP3   OH229604   0.468   2.289  11.838  0.2141 -0.1949 -0.5252
 2730TIP3    H129605   0.467   2.218  11.774  0.8890 -0.7095  0.0101
 2730TIP3    H229606   0.456   2.245  11.922 -0.8514  0.4935 -0.3039
 2731TIP3   OH229607   6.276   6.186   4.861  0.1193  0.6694  0.2350
 2731TIP3    H129608   6.182   6.202   4.872 -0.2364 -0.5030 -0.8890
 2731TIP3    H229609   6.299   6.129   4.935  0.0453  1.2739  0.7346
 2732TIP3   OH229610   5.427   2.535   5.916 -0.2731 -0.1396  0.2117
 2732TIP3    H129611   5.494   2.551   5.982  0.0003  1.0249 -0.3310
 2732TIP3    H229612   5.345   2.564   5.956  0.2021  2.8896 -0.7414
 2733TIP3   OH229613   2.403   1.044  14.025  0.0521 -0.5779 -0.1304
 2733TIP3    H129614   2.417   1.139  14.029  0.6987 -0.6675 -0.0984
 2733TIP3    H229615   2.422   1.021  13.934 -0.0980 -0.6764 -0.1366
 2734TIP3   OH229616   3.785   1.273  15.435 -0.3014  0.4467  0.6445
 2734TIP3    H129617   3.795   1.322  15.353 -1.4631  0.2713  0.3799
 2734TIP3    H229618   3.833   1.191  15.420  0.7362  1.0279  0.6956
 2735TIP3   OH229619   5.614   0.585  15.240 -0.1443  0.5447 -0.1794
 2735TIP3    H129620   5.536   0.531  15.226  0.4571  0.0356 -1.7724
 2735TIP3    H229621   5.582   0.661  15.289 -1.4689 -0.0633 -0.0620
 2736TIP3   OH229622   0.855   0.881   1.631  0.2060 -0.6897  0.0464
 2736TIP3    H129623   0.948   0.894   1.650  0.4933 -3.2642  0.8137
 2736TIP3    H229624   0.851   0.793   1.592 -1.7795 -0.1434 -1.1194
 2737TIP3   OH229625   6.104   4.401  11.607 -0.2938  0.2481  0.1203
 2737TIP3    H129626   6.165   4.337  11.644 -0.4250 -0.9659 -1.6592
 2737TIP3    H229627   6.147   4.433  11.528 -0.2173  2.4501  0.9669
 2738TIP3   OH229628   3.157   5.821   3.733  0.5079  0.6221  0.1458
 2738TIP3    H129629   3.154   5.785   3.821  1.3844  1.0500  0.3630
 2738TIP3    H229630   3.249   5.814   3.707 -0.1082 -1.8190 -1.7262
 2739TIP3   OH229631   4.869   2.374   0.660  0.3946  0.0485  0.2996
 2739TIP3    H129632   4.871   2.285   0.624 -0.1386 -0.4515  1.4429
 2739TIP3    H229633   4.822   2.365   0.743 -0.1308  1.4991  0.1895
 2740TIP3   OH229634   3.245   3.043  16.915 -0.2587 -0.3461  0.3151
 2740TIP3    H129635   3.288   3.004  16.991  0.0020 -0.0531  0.3193
 2740TIP3    H229636   3.317   3.071  16.859 -0.4308  0.6529  0.5716
 2741TIP3   OH229637   2.023   6.499   3.086  0.4442 -0.1422  0.7889
 2741TIP3    H129638   2.085   6.510   3.159  0.5334 -0.1099  0.7090
 2741TIP3    H229639   2.069   6.444   3.024  2.3910  3.5988 -1.4847
 2742TIP3   OH229640   5.503   4.868   4.735  0.1700  0.6363 -0.2060
 2742TIP3    H129641   5.493   4.960   4.761 -0.9245  0.0176  1.7708
 2742TIP3    H229642   5.493   4.819   4.817  0.5382 -1.2727 -1.2487
 2743TIP3   OH229643   4.880   2.533   5.074 -0.0076 -0.0295 -0.0365
 2743TIP3    H129644   4.944   2.551   5.006  0.5393 -2.4654 -0.2464
 2743TIP3    H229645   4.930   2.488   5.142 -0.9278  0.6942  1.1629
 2744TIP3   OH229646   3.828   5.646   0.028  0.2468 -0.3639  0.0906
 2744TIP3    H129647   3.810   5.704   0.102 -0.0047 -0.5947  0.2095
 2744TIP3    H229648   3.746   5.643  -0.021  0.8190  0.9142 -0.9820
 2745TIP3   OH229649   4.205   0.256  16.618 -0.6895 -0.5114 -0.8999
 2745TIP3    H129650   4.256   0.319  16.668 -0.8756 -0.7687 -0.3695
 2745TIP3    H229651   4.228   0.273  16.526  0.0145 -0.3407 -0.7000
 2746TIP3   OH229652   3.336   0.799  17.264 -0.3935 -0.0079  0.3107
 2746TIP3    H129653   3.332   0.800  17.168  0.2811  1.4950  0.2680
 2746TIP3    H229654   3.337   0.706  17.287 -0.8994 -0.3889 -1.1205
 2747TIP3   OH229655   4.915   4.248  13.278 -0.0001  0.1123  0.6272
 2747TIP3    H129656   4.878   4.163  13.256  1.7217 -0.9007  1.5163
 2747TIP3    H229657   5.006   4.243  13.251  0.2020  1.5815  0.9441
 2748TIP3   OH229658   1.186   0.778  17.265 -0.4156 -0.1356  0.3168
 2748TIP3    H129659   1.273   0.745  17.287 -0.5007 -0.4752  0.1555
 2748TIP3    H229660   1.181   0.864  17.307 -0.0226 -0.1377  0.3694
 2749TIP3   OH229661   6.084   5.604  14.511 -0.0308 -0.1932 -0.0004
 2749TIP3    H129662   6.122   5.654  14.439  2.1230 -0.4247  0.8754
 2749TIP3    H229663   6.097   5.512  14.486 -1.2924 -0.2989 -0.2939
 2750TIP3   OH229664   3.094   4.209  13.143  0.2069 -0.0573 -0.0550
 2750TIP3    H129665   3.074   4.299  13.170  0.1026 -0.1922  0.3209
 2750TIP3    H229666   3.181   4.191  13.180  0.9339  0.4194 -1.4220
 2751TIP3   OH229667   0.042   1.629  12.086  0.3236  0.1156  0.5122
 2751TIP3    H129668   0.092   1.570  12.029 -3.0145 -1.9043 -0.6411
 2751TIP3    H229669   0.043   1.713  12.041 -0.4406 -0.8937 -1.5509
 2752TIP3   OH229670   1.933   5.256  16.519  0.1563  0.0768 -0.2270
 2752TIP3    H129671   1.900   5.171  16.491  2.7149 -0.4351 -2.0031
 2752TIP3    H229672   1.887   5.319  16.464 -2.3147  0.0459  1.6085
 2753TIP3   OH229673   4.021   6.195   5.457 -0.2489  0.0534  0.1917
 2753TIP3    H129674   3.927   6.200   5.472 -0.2847 -1.4780  0.6647
 2753TIP3    H229675   4.042   6.274   5.409 -1.9123  0.0296 -0.6356
 2754TIP3   OH229676   4.096   5.016   2.131 -0.3163 -0.0269  0.5241
 2754TIP3    H129677   4.184   4.979   2.125 -0.4715 -0.3764  0.3794
 2754TIP3    H229678   4.043   4.946   2.170 -1.2626 -1.1285 -2.3860
 2755TIP3   OH229679   3.903   4.969  11.541  0.4853 -0.7633  0.4743
 2755TIP3    H129680   3.857   5.051  11.558 -1.4017 -1.6759  0.0250
 2755TIP3    H229681   3.874   4.943  11.453  0.7302 -2.1033  0.7670
 2756TIP3   OH229682   4.914   5.783  12.922 -0.4291  0.4640  0.0295
 2756TIP3    H129683   4.840   5.748  12.872  0.7775 -0.4909 -1.1463
 2756TIP3    H229684   4.912   5.877  12.904 -1.8832  0.6019  0.7582
 2757TIP3   OH229685   3.726   1.279   2.243 -0.0632  0.3696  0.1092
 2757TIP3    H129686   3.806   1.317   2.208 -1.5894  2.2184 -1.6300
 2757TIP3    H229687   3.688   1.348   2.297 -0.9973 -0.1165  0.0999
 2758TIP3   OH229688   5.251   4.996   4.144 -0.2506 -0.2983  0.4847
 2758TIP3    H129689   5.297   5.039   4.071 -0.6016 -0.7645 -0.0132
 2758TIP3    H229690   5.293   4.911   4.152 -1.0619 -0.7583 -0.0210
 2759TIP3   OH229691   5.056   3.137  13.584  0.5048  0.1852 -0.0191
 2759TIP3    H129692   4.996   3.185  13.528  2.8364  0.5416 -2.4092
 2759TIP3    H229693   5.065   3.051  13.543  2.6553  0.6253 -0.6100
 2760TIP3   OH229694   2.930   2.279  12.987  0.0690  0.3236  0.1144
 2760TIP3    H129695   2.981   2.207  13.024 -1.3649 -1.3522 -0.9704
 2760TIP3    H229696   2.923   2.258  12.894 -2.8356  0.2533  0.2505
 2761TIP3   OH229697   5.532   0.254  13.598  0.5844  0.2034  0.0110
 2761TIP3    H129698   5.535   0.188  13.668  0.5161 -0.1553 -0.3232
 2761TIP3    H229699   5.448   0.239  13.555  0.4982  0.6160  0.0351
 2762TIP3   OH229700   4.474   0.982   3.652  0.2918 -0.2001  0.2077
 2762TIP3    H129701   4.511   1.058   3.697 -1.1328  1.5213 -1.3561
 2762TIP3    H229702   4.504   0.990   3.562 -2.8583  0.6828 -0.8743
 2763TIP3   OH229703   4.520   1.739   2.870 -0.3606 -0.0780  0.5537
 2763TIP3    H129704   4.579   1.730   2.944  0.6046  2.8492  0.2756
 2763TIP3    H229705   4.575   1.769   2.798 -1.8119  0.4747 -0.3822
 2764TIP3   OH229706   1.884   3.333   5.471 -0.0595  0.0313 -0.4416
 2764TIP3    H129707   1.954   3.269   5.480  1.0940  1.2372 -0.5868
 2764TIP3    H229708   1.830   3.322   5.550  0.4856 -0.6792 -0.1695
 2765TIP3   OH229709   6.480   4.656  15.766  0.2843 -0.9605  0.5819
 2765TIP3    H129710   6.558   4.621  15.810  1.5273  0.2662 -0.5234
 2765TIP3    H229711   6.512   4.734  15.719 -1.9787  0.6539  1.5193
 2766TIP3   OH229712   6.007   5.482  14.776 -0.0340 -0.0278  0.1021
 2766TIP3    H129713   6.075   5.422  14.807  1.0776  1.1029 -0.0795
 2766TIP3    H229714   6.032   5.503  14.686  0.5783  2.0162  0.6891
 2767TIP3   OH229715   2.067   4.441   1.390  0.2907 -0.3070 -0.0616
 2767TIP3    H129716   2.117   4.430   1.309 -0.1320  1.9290 -0.7179
 2767TIP3    H229717   2.110   4.384   1.453  2.5673  0.1617 -1.0705
 2768TIP3   OH229718   5.373   3.945  14.134  0.1571  0.0306 -0.5919
 2768TIP3    H129719   5.464   3.928  14.158 -0.0623 -1.4359 -0.6943
 2768TIP3    H229720   5.358   4.036  14.159  0.7060 -0.6037  2.4551
 2769TIP3   OH229721   2.768   3.560   0.001  0.4728  0.1894 -0.1727
 2769TIP3    H129722   2.804   3.538   0.087  1.1550 -2.4485 -1.0244
 2769TIP3    H229723   2.800   3.490  -0.056 -1.2288  1.0080 -2.2403
 2770TIP3   OH229724   6.487   5.667  14.392  0.0056 -0.3926 -0.2030
 2770TIP3    H129725   6.415   5.638  14.335 -0.5581  1.4755 -0.5070
 2770TIP3    H229726   6.463   5.756  14.417  2.0498  0.1342  0.0163
 2771TIP3   OH229727   1.653   2.399   2.287 -0.1788  0.3095 -0.0114
 2771TIP3    H129728   1.582   2.345   2.252 -0.1064  0.9190 -1.1298
 2771TIP3    H229729   1.702   2.428   2.210  1.1777  0.0616  0.7312
 2772TIP3   OH229730   3.714   4.371  13.894  0.5982 -0.3020  0.8985
 2772TIP3    H129731   3.758   4.287  13.907  2.0202  0.2093 -0.3487
 2772TIP3    H229732   3.704   4.407  13.982  1.5513 -1.0054  1.3029
 2773TIP3   OH229733   3.495   0.556  12.507  0.2613 -0.2747  0.5501
 2773TIP3    H129734   3.472   0.573  12.416  0.9925 -2.7603 -0.1630
 2773TIP3    H229735   3.413   0.529  12.549  0.4697 -2.2066 -0.2055
 2774TIP3   OH229736   4.741   5.438   1.783 -0.2540  0.8687  0.1065
 2774TIP3    H129737   4.770   5.510   1.839  0.5969  0.5025  0.1568
 2774TIP3    H229738   4.645   5.442   1.786 -0.2611  2.8492 -0.9982
 2775TIP3   OH229739   4.964   1.002   1.283  0.0779 -0.1497  0.4423
 2775TIP3    H129740   5.049   0.978   1.319  0.1965 -0.5124 -0.0590
 2775TIP3    H229741   4.902   0.982   1.353  0.3099 -0.7912  0.4783
 2776TIP3   OH229742   6.054   4.777   0.915  0.0154  0.1278  0.1703
 2776TIP3    H129743   6.041   4.834   0.990 -1.1529  1.6298 -1.0876
 2776TIP3    H229744   6.004   4.698   0.936 -1.6816  1.1793  0.3586
 2777TIP3   OH229745   1.835   3.696  17.056 -0.1336 -0.0675  0.4054
 2777TIP3    H129746   1.915   3.737  17.024 -0.1116 -0.9038 -0.6930
 2777TIP3    H229747   1.864   3.631  17.119 -0.1944  1.8035  2.4829
 2778TIP3   OH229748   4.140   2.378  14.671  0.4785 -0.1718  0.4592
 2778TIP3    H129749   4.160   2.438  14.599 -0.5883  0.2918  0.5313
 2778TIP3    H229750   4.115   2.297  14.628 -1.8965  0.6300  0.1982
 2779TIP3   OH229751   1.935   0.346  12.832 -0.1924  0.0679 -0.1491
 2779TIP3    H129752   1.917   0.394  12.912 -2.1163  0.1770 -0.6062
 2779TIP3    H229753   1.986   0.407  12.778  1.3685 -0.1118  1.0514
 2780TIP3   OH229754   2.931   4.306  16.726  0.1531  0.0452 -0.0333
 2780TIP3    H129755   2.933   4.388  16.676  0.2122 -0.9540 -1.7324
 2780TIP3    H229756   2.845   4.305  16.768  0.4061  1.2742  0.5705
 2781TIP3   OH229757   3.625   4.369   5.289  0.3640  0.3648  0.0008
 2781TIP3    H129758   3.714   4.337   5.303 -0.6917 -2.7676  0.3433
 2781TIP3    H229759   3.619   4.448   5.342  2.4100 -0.3658  1.4365
 2782TIP3   OH229760   2.727   0.497  14.309 -0.4059 -0.6362  0.3615
 2782TIP3    H129761   2.752   0.580  14.269 -0.6978  0.0886  1.6239
 2782TIP3    H229762   2.791   0.434  14.276  0.2513  0.2327 -0.0608
 2783TIP3   OH229763   4.245   0.850  14.055  0.6983 -0.1963  0.3452
 2783TIP3    H129764   4.310   0.816  13.994 -0.2122 -0.5323 -0.4763
 2783TIP3    H229765   4.286   0.845  14.141  2.4802  1.4252 -0.3570
 2784TIP3   OH229766   4.736   2.381   5.679 -0.0613 -0.2658  0.2186
 2784TIP3    H129767   4.823   2.369   5.716  0.6039 -1.1473 -1.5263
 2784TIP3    H229768   4.685   2.307   5.713  0.6897 -1.3666 -0.9480
 2785TIP3   OH229769   5.252   2.052   6.349 -0.2636 -0.0259  0.2972
 2785TIP3    H129770   5.344   2.032   6.365 -0.1039 -0.3139 -0.8439
 2785TIP3    H229771   5.204   1.980   6.390  0.0208  0.0582  0.7863
 2786TIP3   OH229772   0.598   5.941  13.314 -0.1659  0.6944 -0.4712
 2786TIP3    H129773   0.505   5.922  13.324 -0.4703  2.2445 -0.1999
 2786TIP3    H229774   0.618   5.918  13.223 -1.1178  1.5515 -0.9065
 2787TIP3   OH229775   0.129   2.367  11.765 -0.1189  0.4146 -0.5625
 2787TIP3    H129776   0.143   2.274  11.782  2.0602  0.4947 -1.5769
 2787TIP3    H229777   0.124   2.407  11.852 -0.4213 -0.5452 -0.1276
 2788TIP3   OH229778   5.266   1.220  11.404 -0.2606 -0.2544 -0.4488
 2788TIP3    H129779   5.279   1.204  11.498  1.5278 -2.4637 -0.9865
 2788TIP3    H229780   5.172   1.212  11.391 -0.3874 -1.5167  0.9359
 2789TIP3   OH229781   2.817   3.971   4.080 -0.4869  0.0888 -0.2817
 2789TIP3    H129782   2.785   3.980   4.170  0.2503  0.2340 -0.0303
 2789TIP3    H229783   2.769   4.038   4.031 -1.0364 -0.1219 -0.0407
 2790TIP3   OH229784   0.911   3.745  10.718  0.3178 -0.4270  0.3596
 2790TIP3    H129785   0.996   3.776  10.687  0.3519 -0.6216  0.2529
 2790TIP3    H229786   0.851   3.818  10.704  0.1626 -0.7846 -0.9130
 2791TIP3   OH229787   5.317   4.772  11.881 -0.3868  0.4564 -0.5756
 2791TIP3    H129788   5.363   4.825  11.816  0.6058  0.9765  0.4997
 2791TIP3    H229789   5.331   4.681  11.852  1.0227  0.6192 -0.4989
 2792TIP3   OH229790   3.615   4.103  15.021  0.6205 -0.2344  0.2199
 2792TIP3    H129791   3.680   4.167  15.050  1.1331 -1.2237  1.3179
 2792TIP3    H229792   3.667   4.034  14.980  0.4434 -1.7213  2.3570
 2793TIP3   OH229793   0.791   2.097  14.176  0.2847 -0.7191 -0.6613
 2793TIP3    H129794   0.805   2.023  14.118  0.1949  0.0252 -1.6516
 2793TIP3    H229795   0.725   2.150  14.131  1.0064  0.4182 -0.4030
 2794TIP3   OH229796   2.770   4.403  15.090  0.5105 -0.1773  0.5422
 2794TIP3    H129797   2.730   4.466  15.149 -1.5456 -0.7584 -0.1665
 2794TIP3    H229798   2.846   4.449  15.053  1.6872  0.3060  3.3251
 2795TIP3   OH229799   3.733   3.154  14.993  0.1454 -0.2709 -0.2221
 2795TIP3    H129800   3.695   3.234  14.956  1.7661  0.7533  0.2192
 2795TIP3    H229801   3.678   3.135  15.069 -1.0486 -0.3584 -1.0803
 2796TIP3   OH229802   4.990   3.434  11.471 -0.2960 -0.1676  0.2384
 2796TIP3    H129803   5.049   3.502  11.503 -0.0587 -0.3536  0.2036
 2796TIP3    H229804   5.048   3.362  11.447 -0.5089 -0.2031 -0.1765
 2797TIP3   OH229805   2.310   3.068  17.160 -0.5502  0.2559  0.4368
 2797TIP3    H129806   2.228   3.116  17.173 -1.9780 -1.7447 -0.6503
 2797TIP3    H229807   2.313   3.006  17.233 -1.1642 -1.1438 -0.6831
 2798TIP3   OH229808   6.107   3.938  11.914  0.1938 -0.2939 -0.2544
 2798TIP3    H129809   6.168   3.881  11.868  2.0003  1.5603 -0.3148
 2798TIP3    H229810   6.131   3.931  12.006 -0.2877 -0.4272 -0.1338
 2799TIP3   OH229811   0.015   1.885  12.507 -0.1543 -0.9890  0.5998
 2799TIP3    H129812  -0.003   1.813  12.447  1.2112 -0.2469 -0.7897
 2799TIP3    H229813   0.110   1.880  12.523  0.2244  1.1805 -0.5400
 2800TIP3   OH229814   1.653   5.358   4.909 -0.3192 -0.5337  0.2968
 2800TIP3    H129815   1.657   5.399   4.996 -0.7426  0.3963 -0.1019
 2800TIP3    H229816   1.561   5.364   4.884  0.0245  0.6300 -0.8477
 2801TIP3   OH229817   1.248   0.157   3.281 -0.1024  0.1802  0.1714
 2801TIP3    H129818   1.247   0.168   3.186  0.0202 -1.2931 -0.0256
 2801TIP3    H229819   1.160   0.128   3.304 -0.4310  1.4874  0.6635
 2802TIP3   OH229820   1.869   5.674  10.431  0.5680 -0.4130 -0.0521
 2802TIP3    H129821   1.814   5.708  10.361  0.3983 -0.5656  0.0039
 2802TIP3    H229822   1.844   5.581  10.438  0.2670 -0.2971  0.5023
 2803TIP3   OH229823   6.524   4.116  11.502 -0.5116  0.1244  0.0634
 2803TIP3    H129824   6.563   4.154  11.581  3.0119 -0.0378 -1.4241
 2803TIP3    H229825   6.522   4.188  11.440  0.4344 -0.6129 -0.8580
 2804TIP3   OH229826   6.136   4.076   2.087  0.7897  0.1597 -0.2419
 2804TIP3    H129827   6.146   4.091   2.181 -0.3154 -1.4654  0.1789
 2804TIP3    H229828   6.225   4.073   2.053  1.2468 -0.3331  0.9519
 2805TIP3   OH229829   1.447   0.659  13.107 -0.1173  0.3666  0.2518
 2805TIP3    H129830   1.515   0.623  13.164 -1.6600 -0.4514  1.6723
 2805TIP3    H229831   1.403   0.582  13.070  0.7749  0.8788 -2.0378
 2806TIP3   OH229832   1.722   3.070  11.199  0.5066 -0.1306 -0.1497
 2806TIP3    H129833   1.652   3.055  11.135 -1.2361  1.5307  1.2497
 2806TIP3    H229834   1.703   3.008  11.269  1.0027 -0.3138 -0.1744
 2807TIP3   OH229835   5.540   3.192   2.847  0.0333 -0.5683  0.6376
 2807TIP3    H129836   5.634   3.174   2.837  0.1349  0.1251  0.2473
 2807TIP3    H229837   5.497   3.130   2.789  0.4581  1.3040 -1.8741
 2808TIP3   OH229838   0.242   5.759   1.419  0.1749  0.4424  0.1779
 2808TIP3    H129839   0.326   5.802   1.404 -0.1161  0.9527 -0.0025
 2808TIP3    H229840   0.194   5.769   1.337 -0.0313  0.0681  0.2471
 2809TIP3   OH229841   4.398   0.688   2.134 -0.7320  0.1902 -0.6747
 2809TIP3    H129842   4.375   0.655   2.047 -0.7304  0.5121 -0.7985
 2809TIP3    H229843   4.479   0.641   2.156 -1.2774 -0.6431 -0.4061
 2810TIP3   OH229844   6.715   1.205  11.599 -0.6444  0.3491 -1.0842
 2810TIP3    H129845   6.664   1.129  11.570 -0.7943  0.4700 -1.1382
 2810TIP3    H229846   6.788   1.210  11.537 -0.5813  0.1935 -1.0242
 2811TIP3   OH229847   2.615   0.017  16.113  0.0249 -0.1669  0.4990
 2811TIP3    H129848   2.659  -0.009  16.032  0.2174  0.4183  0.4076
 2811TIP3    H229849   2.607  -0.064  16.163  0.1345 -0.4903  0.0050
 2812TIP3   OH229850   4.730   0.860  15.844 -0.7965  0.3413  0.1797
 2812TIP3    H129851   4.761   0.912  15.918 -0.1495  0.3694 -0.1034
 2812TIP3    H229852   4.810   0.823  15.806 -1.1712 -0.1049 -0.1804
 2813TIP3   OH229853   4.408   1.376  13.129 -0.2869  0.0775 -0.1434
 2813TIP3    H129854   4.490   1.350  13.171 -0.9953 -1.8755  0.1535
 2813TIP3    H229855   4.411   1.335  13.043 -1.8020 -1.8583  0.6412
 2814TIP3   OH229856   5.166   0.821   1.711 -0.3661 -0.7980 -0.2487
 2814TIP3    H129857   5.159   0.785   1.800 -1.5648 -0.2860 -0.1247
 2814TIP3    H229858   5.170   0.916   1.723  0.0834 -0.7530 -0.7171
 2815TIP3   OH229859   0.654   2.398   4.552  0.1989  0.0673  0.5950
 2815TIP3    H129860   0.646   2.353   4.467  1.6956 -0.6658  0.8094
 2815TIP3    H229861   0.583   2.463   4.551 -0.2418 -0.3806 -0.9277
 2816TIP3   OH229862   3.899   0.047   5.564  0.5022 -0.5777 -0.8475
 2816TIP3    H129863   3.961  -0.019   5.531 -1.7237 -2.9594 -0.6085
 2816TIP3    H229864   3.821   0.034   5.510 -1.0518 -0.2495  1.2382
 2817TIP3   OH229865   4.359   2.587  16.197 -0.2585  0.7915  0.4117
 2817TIP3    H129866   4.289   2.636  16.239 -0.8223  0.0217  0.3921
 2817TIP3    H229867   4.416   2.561  16.269 -1.7930 -1.4530  0.9229
 2818TIP3   OH229868   0.947   4.470  15.150 -0.5457  0.6320 -0.0283
 2818TIP3    H129869   0.992   4.397  15.191 -1.7671 -0.9204 -1.3386
 2818TIP3    H229870   0.874   4.489  15.209 -1.2220 -0.3606 -0.5317
 2819TIP3   OH229871   5.559   0.930  13.387  0.5999  0.0879 -0.0051
 2819TIP3    H129872   5.580   0.875  13.311  1.3562 -0.4676  0.5904
 2819TIP3    H229873   5.597   0.883  13.461  1.1200  1.3361  0.5377
 2820TIP3   OH229874   1.111   1.456   3.601  0.0916 -0.0011  0.8701
 2820TIP3    H129875   1.189   1.415   3.640  0.9681  1.3088  0.5653
 2820TIP3    H229876   1.083   1.394   3.534  0.5430 -0.7499  1.3597
 2821TIP3   OH229877   3.521   5.680   1.293 -0.0866 -0.2844 -0.4826
 2821TIP3    H129878   3.617   5.682   1.282  0.2348  0.8423  1.9974
 2821TIP3    H229879   3.507   5.614   1.361 -0.9380  0.6126  0.2188
 2822TIP3   OH229880   6.272   1.762   0.496  0.5789 -0.2862 -0.5026
 2822TIP3    H129881   6.311   1.675   0.499 -0.8212 -0.9104  1.0442
 2822TIP3    H229882   6.320   1.813   0.562 -0.0888 -0.5935  0.2490
 2823TIP3   OH229883   5.787   5.265  13.913 -0.1465 -0.8481  0.2930
 2823TIP3    H129884   5.813   5.268  14.005 -0.6195 -1.9322  0.4759
 2823TIP3    H229885   5.758   5.175  13.899  1.4073 -1.1643 -1.3167
 2824TIP3   OH229886   5.470   4.554  11.610 -0.2146 -0.2328  0.4272
 2824TIP3    H129887   5.510   4.584  11.691 -0.0323  1.7778 -0.3596
 2824TIP3    H229888   5.534   4.575  11.542 -0.0692 -2.4770 -0.2147
 2825TIP3   OH229889   4.111   6.460  13.846  0.8077 -0.3842 -0.2412
 2825TIP3    H129890   4.031   6.507  13.820  0.3864 -0.0943  1.4285
 2825TIP3    H229891   4.103   6.374  13.804 -1.8112 -1.4070  2.0359
 2826TIP3   OH229892   0.562   0.066   2.634  0.4005  0.4147  0.4925
 2826TIP3    H129893   0.582   0.136   2.696  0.4254 -0.1264  1.0975
 2826TIP3    H229894   0.644   0.016   2.627  0.3553  0.3878  0.1322
 2827TIP3   OH229895   3.748   6.036   1.713  0.0688 -0.0410  0.2723
 2827TIP3    H129896   3.757   6.128   1.687 -0.0977 -0.5446 -1.7194
 2827TIP3    H229897   3.834   6.012   1.747  0.1371  0.7967  0.7286
 2828TIP3   OH229898   1.630   3.291  10.493  0.0422  0.1573  0.0394
 2828TIP3    H129899   1.579   3.234  10.434  2.0080  0.0047 -1.6443
 2828TIP3    H229900   1.661   3.233  10.562  0.1539 -0.3397 -0.4200
 2829TIP3   OH229901   4.865   0.912   6.282  0.1788  0.3660  0.0451
 2829TIP3    H129902   4.883   0.818   6.278 -0.3741  0.1965  1.0633
 2829TIP3    H229903   4.948   0.951   6.310 -0.0744 -0.0327  1.4130
 2830TIP3   OH229904   3.653   4.482   0.290  0.0623 -0.4125  0.2329
 2830TIP3    H129905   3.631   4.401   0.244  0.0682 -1.0433  1.2940
 2830TIP3    H229906   3.716   4.454   0.358 -0.4009  0.3654  1.0012
 2831TIP3   OH229907   4.656   4.458   2.258 -0.1675  0.1293  0.1704
 2831TIP3    H129908   4.720   4.389   2.242 -0.5575 -0.5550  1.3818
 2831TIP3    H229909   4.683   4.498   2.341 -0.4496  0.8520 -0.0749
 2832TIP3   OH229910   6.777   6.188   3.170 -0.1717  0.0588  0.8591
 2832TIP3    H129911   6.824   6.235   3.101 -1.0735 -0.8257 -0.4060
 2832TIP3    H229912   6.715   6.251   3.205 -1.2621 -0.0924 -0.7102
 2833TIP3   OH229913   4.899   6.779  13.059  0.0589 -0.2811 -0.1774
 2833TIP3    H129914   4.994   6.764  13.062 -0.0844 -1.2084  0.1151
 2833TIP3    H229915   4.862   6.707  13.109 -0.8159  0.0200 -0.3740
 2834TIP3   OH229916   3.146   5.881   5.610  0.5123 -0.6536 -0.3188
 2834TIP3    H129917   3.099   5.820   5.553 -0.2404 -1.0023  0.6446
 2834TIP3    H229918   3.077   5.936   5.648  1.1657  0.7414 -1.0849
 2835TIP3   OH229919   4.639   2.634   3.764 -0.4373  0.0491 -0.2367
 2835TIP3    H129920   4.579   2.669   3.830  1.4858 -0.0001  1.6056
 2835TIP3    H229921   4.595   2.554   3.732 -1.2593 -0.1150  1.2197
 2836TIP3   OH229922   6.014   3.074   4.351  0.5267  0.5463  0.1891
 2836TIP3    H129923   6.002   3.094   4.444 -0.2597 -0.4089  0.3181
 2836TIP3    H229924   6.107   3.057   4.341  0.5862  0.4655  0.8482
 2837TIP3   OH229925   3.642   2.420   2.338  0.1637  0.1548 -0.1771
 2837TIP3    H129926   3.646   2.328   2.312  0.0527  0.2057 -0.3805
 2837TIP3    H229927   3.549   2.442   2.335  0.1865  0.2637 -0.0939
 2838TIP3   OH229928   2.979   5.960   1.244  0.1341 -0.0061 -0.5929
 2838TIP3    H129929   2.927   5.941   1.322  0.0741  1.3522 -0.2768
 2838TIP3    H229930   2.950   5.896   1.179 -0.1614 -0.8453  0.3434
 2839TIP3   OH229931   0.423   2.965  11.521 -0.1385 -0.1735  0.5127
 2839TIP3    H129932   0.419   3.016  11.601 -0.8444 -1.4827  1.3454
 2839TIP3    H229933   0.352   2.901  11.529 -1.5724  0.9256 -2.0717
 2840TIP3   OH229934   1.918   5.360   6.632  0.1340 -0.1307  0.3540
 2840TIP3    H129935   1.832   5.390   6.662 -0.4072 -0.4185 -0.8536
 2840TIP3    H229936   1.917   5.375   6.538  0.4813 -2.3020 -0.0559
 2841TIP3   OH229937   1.440   4.698  14.248 -0.3850 -0.2494 -0.2534
 2841TIP3    H129938   1.524   4.696  14.202 -0.4647 -2.1980 -0.3777
 2841TIP3    H229939   1.413   4.790  14.244  1.9447  0.5043  0.2190
 2842TIP3   OH229940   1.541   1.887  13.047  0.2862  0.0336 -0.2925
 2842TIP3    H129941   1.607   1.956  13.062  0.1807 -0.1548  1.2119
 2842TIP3    H229942   1.589   1.805  13.058  0.0035 -0.1117 -0.1244
 2843TIP3   OH229943   2.585   4.136   4.087 -0.5810  0.1267 -0.3057
 2843TIP3    H129944   2.527   4.060   4.092  1.7258 -1.6595  1.3294
 2843TIP3    H229945   2.567   4.186   4.166 -0.2167 -0.1999 -0.0126
 2844TIP3   OH229946   1.418   3.449  12.067 -0.0404  0.8062  0.1953
 2844TIP3    H129947   1.466   3.451  11.984 -1.9326 -0.7550 -1.0319
 2844TIP3    H229948   1.470   3.391  12.123 -0.3132 -0.6549 -1.0074
 2845TIP3   OH229949   2.766   5.798  15.939  0.7195  0.2203  0.1192
 2845TIP3    H129950   2.840   5.844  15.979  1.6554 -1.5454  0.5577
 2845TIP3    H229951   2.769   5.710  15.977 -0.4915 -0.4698 -1.2501
 2846TIP3   OH229952   4.393   3.300  11.121 -0.4225 -0.3077 -0.0159
 2846TIP3    H129953   4.330   3.331  11.056 -1.0738  0.1945  0.8197
 2846TIP3    H229954   4.437   3.226  11.080  1.0756  1.5822 -2.0413
 2847TIP3   OH229955   0.134   6.328  16.488  0.3296 -0.1988 -0.0849
 2847TIP3    H129956   0.128   6.411  16.440 -0.4409 -0.7075 -0.8962
 2847TIP3    H229957   0.059   6.328  16.546  0.4157 -0.2599  0.0275
 2848TIP3   OH229958   4.821   5.447  11.450 -0.8016  0.3483 -0.0291
 2848TIP3    H129959   4.830   5.443  11.546 -1.0223  0.4774 -0.0022
 2848TIP3    H229960   4.812   5.541  11.431 -0.1478  0.3727 -0.2333
 2849TIP3   OH229961   3.348   2.664   3.818 -0.3179 -0.0738 -0.5309
 2849TIP3    H129962   3.392   2.745   3.842 -0.2249 -0.1474 -0.4519
 2849TIP3    H229963   3.411   2.617   3.764  0.5648 -1.1523  1.3175
 2850TIP3   OH229964   0.363   3.030  17.004 -0.3151 -0.4663 -0.4005
 2850TIP3    H129965   0.354   3.112  17.053 -0.4324 -0.2521 -0.7796
 2850TIP3    H229966   0.454   3.028  16.977  0.0582 -1.1625  0.8376
 2851TIP3   OH229967   3.765   2.541  14.625  0.7384 -0.9395 -0.5479
 2851TIP3    H129968   3.712   2.587  14.560 -1.2109 -2.2574  0.0113
 2851TIP3    H229969   3.770   2.451  14.592 -0.4176 -1.6760  1.1228
 2852TIP3   OH229970   0.436   5.084  12.030 -0.0143  0.0692  0.1463
 2852TIP3    H129971   0.368   5.043  12.082 -0.6495  3.2393  2.0464
 2852TIP3    H229972   0.510   5.095  12.090  0.6581  0.4270 -0.7124
 2853TIP3   OH229973   4.184   2.906  13.070  0.0934 -0.8159 -0.0523
 2853TIP3    H129974   4.259   2.901  13.011  0.0201 -1.0477 -0.1291
 2853TIP3    H229975   4.108   2.907  13.011 -0.0491 -2.4596  0.0480
 2854TIP3   OH229976   3.727   1.554   4.570  0.5861  0.2956  0.0812
 2854TIP3    H129977   3.713   1.648   4.564  1.3961  0.5072  1.1892
 2854TIP3    H229978   3.724   1.535   4.663  1.4782 -0.5968 -0.0465
 2855TIP3   OH229979   1.614   1.209   6.293  0.5628 -0.8505  0.3464
 2855TIP3    H129980   1.581   1.298   6.305  1.4400 -0.5815  0.9373
 2855TIP3    H229981   1.574   1.179   6.212 -2.6203 -1.2639  1.9292
 2856TIP3   OH229982   0.943   1.811  15.123  1.1357 -0.0474  0.2294
 2856TIP3    H129983   0.962   1.904  15.115 -1.3692  0.7851  2.3733
 2856TIP3    H229984   0.989   1.770  15.049  1.0455  3.0615 -1.7358
 2857TIP3   OH229985   1.192   4.450  14.950 -0.4971 -0.1021  0.3006
 2857TIP3    H129986   1.153   4.529  14.986 -0.2617 -0.2021  0.7733
 2857TIP3    H229987   1.188   4.463  14.855  2.1088  1.7922  0.3217
 2858TIP3   OH229988   0.869   2.358   2.862  0.1203 -0.1719  0.1193
 2858TIP3    H129989   0.842   2.358   2.770  0.5499 -0.3736 -0.0094
 2858TIP3    H229990   0.868   2.451   2.888 -1.9319 -0.2436  0.4989
 2859TIP3   OH229991   0.848   6.692   2.510 -0.3625 -0.4183 -0.5439
 2859TIP3    H129992   0.929   6.709   2.460 -0.2581 -0.1552 -0.2859
 2859TIP3    H229993   0.855   6.600   2.535 -0.7252 -0.7447 -1.5769
 2860TIP3   OH229994   1.584   5.038  15.023 -0.1180  0.2318  0.4277
 2860TIP3    H129995   1.523   5.021  14.951 -0.0949 -0.1732  0.4984
 2860TIP3    H229996   1.559   5.124  15.057  0.3251  0.7460 -0.5228
 2861TIP3   OH229997   5.149   4.050  15.657 -0.1030 -0.2558  0.1524
 2861TIP3    H129998   5.119   4.003  15.579 -0.1195  1.9344 -1.2374
 2861TIP3    H229999   5.242   4.065  15.641 -0.0858  0.1196  0.6117
 2862TIP3   OH230000   0.946   5.105  15.136 -0.0547  0.1239 -0.2378
 2862TIP3    H130001   0.935   5.180  15.194  0.8565  1.0640 -1.2340
 2862TIP3    H230002   0.937   5.141  15.048 -0.1859 -1.0482 -0.7268
 2863TIP3   OH230003   5.203   3.136  11.651 -0.3501  0.4710  0.5041
 2863TIP3    H130004   5.253   3.075  11.706 -0.5900 -0.4074 -0.2241
 2863TIP3    H230005   5.210   3.220  11.696  0.1638 -0.0468  1.4311
 2864TIP3   OH230006   5.807   0.487   2.459 -0.6040  0.0177 -0.2798
 2864TIP3    H130007   5.782   0.418   2.520 -0.4219  0.5095  0.3565
 2864TIP3    H230008   5.762   0.565   2.490  4.7692  2.1652  3.6837
 2865TIP3   OH230009   4.873   0.884   2.100 -0.1549 -0.4615  0.1227
 2865TIP3    H130010   4.868   0.849   2.011 -2.4652 -0.5491  0.2439
 2865TIP3    H230011   4.886   0.807   2.155  0.4836 -0.4851 -0.0461
 2866TIP3   OH230012   1.140   1.663  11.529 -0.5286  0.4097 -0.2638
 2866TIP3    H130013   1.089   1.582  11.531 -0.2772  0.2521 -0.2436
 2866TIP3    H230014   1.231   1.635  11.522 -0.4179  0.6849  0.0373
 2867TIP3   OH230015   2.663   3.641  16.206 -0.1883  0.3059  0.2933
 2867TIP3    H130016   2.702   3.564  16.248  0.7799 -0.3900 -1.7284
 2867TIP3    H230017   2.735   3.704  16.201 -0.5400  0.7287  0.4868
 2868TIP3   OH230018   1.191   0.645  13.637 -0.4614 -0.1312 -0.3941
 2868TIP3    H130019   1.105   0.605  13.627 -0.7439  0.1816  0.6551
 2868TIP3    H230020   1.181   0.709  13.708  1.4203 -2.5535  2.3078
 2869TIP3   OH230021   3.247   6.600   4.158 -0.4579  0.0919  0.2004
 2869TIP3    H130022   3.163   6.601   4.203 -0.2531 -1.4995  0.6607
 2869TIP3    H230023   3.311   6.578   4.225  0.2347  0.4431 -0.3188
 2870TIP3   OH230024   3.667   3.189  14.668  0.8183  0.0053 -0.2852
 2870TIP3    H130025   3.587   3.143  14.695  0.6419  0.4450 -0.0602
 2870TIP3    H230026   3.645   3.231  14.586  0.8867 -0.0525 -0.3338
 2871TIP3   OH230027   0.303   2.490   0.529 -0.1694 -0.0224 -0.3365
 2871TIP3    H130028   0.325   2.582   0.520 -0.0135 -0.1209 -1.0482
 2871TIP3    H230029   0.387   2.444   0.515 -0.0689 -0.2405  0.8718
 2872TIP3   OH230030   5.869   5.741   0.979 -0.0577 -0.1421 -0.6620
 2872TIP3    H130031   5.846   5.678   0.911 -1.1458  0.4010 -0.8146
 2872TIP3    H230032   5.899   5.819   0.931 -0.6477  0.1752 -0.5223
 2873TIP3   OH230033   3.914   2.395  14.842 -0.1411 -0.3863 -0.0356
 2873TIP3    H130034   3.863   2.426  14.768  0.2754 -0.2424 -0.2648
 2873TIP3    H230035   3.999   2.370  14.804 -0.4955 -1.9515  0.1069
 2874TIP3   OH230036   4.725   2.278  11.685 -0.0543  0.4935 -0.0196
 2874TIP3    H130037   4.712   2.282  11.780 -1.2969 -1.3506 -0.0544
 2874TIP3    H230038   4.801   2.220  11.674  0.5566  1.3074 -0.1496
 2875TIP3   OH230039   1.114   5.588   3.239 -0.7441 -0.0896  0.1726
 2875TIP3    H130040   1.142   5.609   3.328 -0.6083 -0.8420  0.3116
 2875TIP3    H230041   1.033   5.637   3.228 -1.3867 -0.8975  1.1357
 2876TIP3   OH230042   1.637   6.524  14.679 -0.3335 -0.0484  0.6161
 2876TIP3    H130043   1.617   6.606  14.723 -0.1624 -0.8896  2.3793
 2876TIP3    H230044   1.722   6.539  14.638  0.3118  0.3108  1.9970
 2877TIP3   OH230045   4.002   1.510   6.269  0.1755  0.0264  0.6838
 2877TIP3    H130046   4.082   1.459   6.279  0.3993  0.3250  0.4480
 2877TIP3    H230047   3.990   1.518   6.174  0.5877  1.0929  0.7107
 2878TIP3   OH230048   1.907   5.548   6.026 -0.1939 -0.0751 -0.1283
 2878TIP3    H130049   1.839   5.578   5.964 -0.2261  1.1781  0.4921
 2878TIP3    H230050   1.988   5.587   5.993 -0.0841 -0.0311  0.1955
 2879TIP3   OH230051   5.400   3.801   1.387 -0.1282 -0.2522  0.2698
 2879TIP3    H130052   5.426   3.818   1.296  0.8890  0.0716  0.6141
 2879TIP3    H230053   5.356   3.716   1.383  0.6519 -0.6426 -0.3985
 2880TIP3   OH230054   1.778   1.160  15.486 -0.0111  0.3098 -0.0110
 2880TIP3    H130055   1.726   1.138  15.564  0.0200  1.5952  0.3891
 2880TIP3    H230056   1.852   1.099  15.490  1.2203  1.7758  2.2682
 2881TIP3   OH230057   6.573   3.285  13.271  0.1658 -0.6370 -0.1438
 2881TIP3    H130058   6.500   3.231  13.300 -0.1580 -1.1492 -1.8080
 2881TIP3    H230059   6.636   3.282  13.343 -1.9353  0.8216  1.8732
 2882TIP3   OH230060   5.651   4.637   2.936  0.0098  0.4017  0.2601
 2882TIP3    H130061   5.659   4.543   2.951 -0.4797  0.1254 -1.0432
 2882TIP3    H230062   5.737   4.673   2.961  0.3992 -0.4752  0.2177
 2883TIP3   OH230063   2.842   5.918   5.688 -0.1374 -0.5380  0.1885
 2883TIP3    H130064   2.854   6.013   5.676  0.5310 -0.2505  2.4945
 2883TIP3    H230065   2.850   5.906   5.783 -1.2053 -2.7948  0.0423
 2884TIP3   OH230066   2.535   5.616   2.854 -0.4331  0.4236 -0.3449
 2884TIP3    H130067   2.510   5.529   2.823  1.8862 -0.3664 -0.1491
 2884TIP3    H230068   2.494   5.623   2.940 -0.6555 -0.4564 -0.3717
 2885TIP3   OH230069   5.392   1.320  12.962  0.4307  0.3493 -0.2912
 2885TIP3    H130070   5.416   1.229  12.982  0.6772  0.4496 -0.1364
 2885TIP3    H230071   5.469   1.355  12.916  2.1319  1.7635  3.2589
 2886TIP3   OH230072   0.258   0.026   1.955 -0.1255  0.0042 -0.0498
 2886TIP3    H130073   0.344  -0.012   1.938 -0.2909  0.1760 -1.4384
 2886TIP3    H230074   0.264   0.061   2.044  0.9980 -0.6033  0.1350
 2887TIP3   OH230075   1.222   0.107  15.484  0.0079  0.0053  0.2309
 2887TIP3    H130076   1.145   0.089  15.431  1.1501 -1.1431 -1.1101
 2887TIP3    H230077   1.296   0.090  15.425  1.3137 -0.5327  1.9639
 2888TIP3   OH230078   0.838   6.759   2.784  0.4796  0.0371  0.5489
 2888TIP3    H130079   0.892   6.700   2.731 -1.3634  0.1956 -1.6319
 2888TIP3    H230080   0.887   6.768   2.866  0.5203 -5.1013  1.4152
 2889TIP3   OH230081   2.221   0.809   3.460 -0.3716 -0.1107 -0.4510
 2889TIP3    H130082   2.170   0.866   3.402  0.5164 -0.2419 -1.4042
 2889TIP3    H230083   2.310   0.844   3.455 -0.5783  1.0377  2.3650
 2890TIP3   OH230084   0.739   6.375  14.862 -0.0732 -0.3256  0.2272
 2890TIP3    H130085   0.693   6.436  14.804  1.7966  1.6140  0.6555
 2890TIP3    H230086   0.699   6.390  14.948 -0.3438 -0.5110  0.1363
 2891TIP3   OH230087   1.886   2.457  15.809  0.1094  0.2757  0.2039
 2891TIP3    H130088   1.819   2.493  15.751  1.3933 -0.1404 -1.6329
 2891TIP3    H230089   1.915   2.531  15.862 -0.0025  1.0543 -0.7921
 2892TIP3   OH230090   5.571   1.942  11.754 -1.2916 -0.1355 -0.7588
 2892TIP3    H130091   5.530   1.856  11.765 -0.4001 -0.7115 -1.7142
 2892TIP3    H230092   5.581   1.952  11.659 -0.4487  0.5544 -0.6115
 2893TIP3   OH230093   1.193   3.336  16.322  0.2919 -0.0693 -0.5046
 2893TIP3    H130094   1.129   3.280  16.365 -1.2166  1.9200 -0.0177
 2893TIP3    H230095   1.275   3.320  16.370 -0.0690 -1.8371 -0.4253
 2894TIP3   OH230096   0.815   1.649   6.213 -0.3631  0.0950 -0.1941
 2894TIP3    H130097   0.770   1.565   6.210  0.3084 -0.2736 -0.1053
 2894TIP3    H230098   0.903   1.631   6.182  0.0740  0.5699  0.7180
 2895TIP3   OH230099   4.588   4.799  10.925  0.1534 -0.0411 -0.2036
 2895TIP3    H130100   4.614   4.768  10.839 -0.5640  1.3979 -0.9742
 2895TIP3    H230101   4.517   4.740  10.951 -1.1362  0.8332 -1.5930
 2896TIP3   OH230102   4.138   3.150   2.387  0.2969  0.2451  0.1333
 2896TIP3    H130103   4.093   3.076   2.428 -0.6574 -0.9573 -2.8200
 2896TIP3    H230104   4.224   3.151   2.428 -0.2697 -1.3874  1.4984
 2897TIP3   OH230105   4.932   6.263  15.215  0.1653  0.0493  0.4287
 2897TIP3    H130106   4.952   6.177  15.251 -1.1440 -0.9816 -1.1795
 2897TIP3    H230107   4.981   6.268  15.133  0.1311  0.7889  0.4442
 2898TIP3   OH230108   4.163   4.614   4.231 -0.7929  0.5703 -0.1377
 2898TIP3    H130109   4.226   4.660   4.287  0.5450  1.1211 -2.0075
 2898TIP3    H230110   4.096   4.679   4.211 -0.8478  0.6078  0.1625
 2899TIP3   OH230111   5.399   3.486  14.039 -0.4119 -0.2414 -0.1418
 2899TIP3    H130112   5.371   3.410  14.091 -0.7162 -0.3011 -0.3924
 2899TIP3    H230113   5.384   3.461  13.948  1.5082 -0.7069 -0.3721
 2900TIP3   OH230114   0.364   1.198  11.615  0.2975  0.6939 -0.6098
 2900TIP3    H130115   0.356   1.165  11.705  1.0608  2.8739  0.3347
 2900TIP3    H230116   0.285   1.167  11.571 -0.4978  0.2351  1.0436
 2901TIP3   OH230117   0.561   0.946   1.417  0.4403 -0.0006  0.2313
 2901TIP3    H130118   0.624   0.878   1.394  1.0183  0.1196  1.3635
 2901TIP3    H230119   0.511   0.961   1.337  1.0978 -0.9028 -0.3696
 2902TIP3   OH230120   0.366   4.672  11.975  0.0374  0.6234 -0.0838
 2902TIP3    H130121   0.371   4.630  12.061  0.8511 -0.1011 -0.4785
 2902TIP3    H230122   0.274   4.664  11.950 -0.4196  1.6750  1.1155
 2903TIP3   OH230123   2.365   6.307  11.133 -0.0380  0.1726  0.1084
 2903TIP3    H130124   2.412   6.228  11.162 -1.5139 -0.9934 -0.5154
 2903TIP3    H230125   2.319   6.338  11.210  0.6492  0.4964  0.3880
 2904TIP3   OH230126   1.272   1.348  11.918  0.1871 -0.3032 -0.4635
 2904TIP3    H130127   1.311   1.316  11.999 -0.2231 -0.2008 -0.2255
 2904TIP3    H230128   1.288   1.279  11.854  0.2893 -0.4909 -0.2330
 2905TIP3   OH230129   6.286   3.561   1.171 -0.3243  0.0084 -0.2980
 2905TIP3    H130130   6.259   3.648   1.200  0.0656 -0.1989  0.7328
 2905TIP3    H230131   6.209   3.525   1.127 -0.9853  0.2998  0.5912
 2906TIP3   OH230132   4.082   1.594   1.538 -0.2591  0.0158 -0.4401
 2906TIP3    H130133   4.102   1.612   1.630 -0.8572  0.5372 -0.4059
 2906TIP3    H230134   4.148   1.530   1.511 -0.2968 -0.4061  0.4500
 2907TIP3   OH230135   2.039   3.104  16.942 -0.7406 -0.1735  0.0765
 2907TIP3    H130136   2.061   3.139  17.028 -0.1428 -0.7884  0.1851
 2907TIP3    H230137   2.045   3.179  16.883 -2.1565  0.4681  0.7184
 2908TIP3   OH230138   3.074   1.192   2.839  0.3811  0.2447  0.2009
 2908TIP3    H130139   3.064   1.204   2.745 -1.7873 -1.6444  0.1108
 2908TIP3    H230140   3.163   1.157   2.850  0.0653 -1.1778 -1.3765
 2909TIP3   OH230141   2.749   1.414  13.113  0.4649  0.0569  0.0791
 2909TIP3    H130142   2.722   1.413  13.204  0.2193  1.5427  0.0543
 2909TIP3    H230143   2.681   1.364  13.067 -0.0013  0.2386  0.5649
 2910TIP3   OH230144   3.688   0.187  12.721 -0.2883  0.3131 -0.2329
 2910TIP3    H130145   3.627   0.113  12.727 -1.1514  1.0686  0.8707
 2910TIP3    H230146   3.741   0.182  12.800  0.9040 -0.1570 -1.0389
 2911TIP3   OH230147   6.449   4.330  16.058  0.8297  0.0338 -0.0774
 2911TIP3    H130148   6.427   4.423  16.062  0.8674  0.0466 -0.1753
 2911TIP3    H230149   6.492   4.312  16.142 -2.7665 -0.8246  1.7872
 2912TIP3   OH230150   3.278   1.861   2.504  0.6138  0.4009  0.3607
 2912TIP3    H130151   3.226   1.879   2.582  1.4539  0.1651  0.9817
 2912TIP3    H230152   3.359   1.823   2.537  1.2452  0.8904 -0.5837
 2913TIP3   OH230153   2.002   5.026   5.773 -0.7313 -0.3073  0.8778
 2913TIP3    H130154   1.913   5.033   5.809 -2.0710  1.3946 -2.3812
 2913TIP3    H230155   1.991   4.983   5.689  1.7381 -1.0525  0.8709
 2914TIP3   OH230156   0.383   0.337   4.991  0.3854 -0.5688  0.3126
 2914TIP3    H130157   0.333   0.257   4.973 -0.0447 -0.2422  0.0348
 2914TIP3    H230158   0.328   0.387   5.052  0.3182 -0.1602 -0.0751
 2915TIP3   OH230159   3.970   1.785   4.811  0.1428 -0.4798 -0.0978
 2915TIP3    H130160   3.950   1.840   4.736 -2.7427 -1.8175 -0.4586
 2915TIP3    H230161   3.886   1.772   4.854  1.6820  0.3478  3.5434
 2916TIP3   OH230162   0.176   0.949  12.795  0.4041  0.6360 -0.2849
 2916TIP3    H130163   0.100   1.001  12.818  1.4316  2.0420  0.0240
 2916TIP3    H230164   0.164   0.866  12.842 -0.8484  0.8812 -0.1468
 2917TIP3   OH230165   3.518   3.405   2.553 -0.1247 -0.1064 -0.0073
 2917TIP3    H130166   3.586   3.339   2.562  0.2661  0.4453  1.3395
 2917TIP3    H230167   3.530   3.441   2.465  2.4240  1.1429  0.7716
 2918TIP3   OH230168   3.601   0.394   0.842 -0.0507 -0.0740  0.1410
 2918TIP3    H130169   3.641   0.480   0.840  2.0634 -0.9730  1.1319
 2918TIP3    H230170   3.604   0.364   0.751 -1.1433  1.0054 -0.2748
 2919TIP3   OH230171   1.064   1.197   3.754 -0.4895 -0.1712  0.5094
 2919TIP3    H130172   1.160   1.193   3.754 -0.1648  3.6198  0.4565
 2919TIP3    H230173   1.038   1.156   3.836  1.0246 -2.3112 -0.0063
 2920TIP3   OH230174   3.247   0.513  15.967  0.7448  0.2422 -0.3209
 2920TIP3    H130175   3.242   0.564  16.048  1.5602 -0.8886  0.4807
 2920TIP3    H230176   3.255   0.578  15.898 -0.8012  1.2631  0.4062
 2921TIP3   OH230177   0.292   5.802  14.289  0.0220 -0.8143 -0.3169
 2921TIP3    H130178   0.285   5.886  14.335  0.6049 -0.3071 -1.1176
 2921TIP3    H230179   0.367   5.759  14.329  0.2259 -0.5891 -0.4502
 2922TIP3   OH230180   5.357   2.434   3.266 -0.4404 -0.1561 -0.1207
 2922TIP3    H130181   5.275   2.482   3.265 -0.8646 -0.8705 -0.8068
 2922TIP3    H230182   5.357   2.385   3.348 -0.0291  0.9573  0.5566
 2923TIP3   OH230183   2.702   6.249   3.249  0.1473  0.1218  0.1972
 2923TIP3    H130184   2.763   6.194   3.299  1.3913  1.5939  0.3964
 2923TIP3    H230185   2.645   6.287   3.316  0.2541  0.2182  0.2351
 2924TIP3   OH230186   4.993   6.770   1.679  0.0729 -0.1709 -0.0604
 2924TIP3    H130187   5.077   6.758   1.725 -0.3687  0.1267  0.8427
 2924TIP3    H230188   5.011   6.839   1.615  0.9151 -1.1481 -0.9184
 2925TIP3   OH230189   1.391   5.828   6.180  0.5558 -0.1265 -0.1358
 2925TIP3    H130190   1.380   5.736   6.157 -0.8097  0.0984 -0.4834
 2925TIP3    H230191   1.306   5.868   6.159  1.1948  1.2516 -0.1964
 2926TIP3   OH230192   5.800   3.178   2.588 -0.3611  0.3955  0.1690
 2926TIP3    H130193   5.875   3.138   2.543 -2.4408 -0.0172 -3.2455
 2926TIP3    H230194   5.831   3.192   2.677  2.8434 -2.3199 -0.3216
 2927TIP3   OH230195   4.621   6.770  12.392  0.0261 -0.1066  0.3670
 2927TIP3    H130196   4.587   6.761  12.303 -1.6802  0.5522  0.9110
 2927TIP3    H230197   4.605   6.686  12.434  0.7552 -0.3897  0.0916
 2928TIP3   OH230198   4.505   0.923   0.037  0.0652 -0.0470 -0.0484
 2928TIP3    H130199   4.414   0.906   0.063 -0.2329  0.8474 -0.4716
 2928TIP3    H230200   4.499   0.944  -0.056  0.4324  1.9643  0.3400
 2929TIP3   OH230201   0.280   5.871  15.268 -0.8099 -0.2446 -0.0198
 2929TIP3    H130202   0.353   5.833  15.219 -0.4935  0.6813 -0.2983
 2929TIP3    H230203   0.202   5.836  15.227 -0.5301 -1.5793  0.5467
 2930TIP3   OH230204   6.501   5.255  16.828 -0.1637  0.1054 -0.1082
 2930TIP3    H130205   6.496   5.281  16.736 -0.9416  0.5320  0.0430
 2930TIP3    H230206   6.505   5.338  16.875 -0.2978 -0.1030  0.2726
 2931TIP3   OH230207   6.285   4.973  14.405  0.0509 -0.1301  0.1224
 2931TIP3    H130208   6.293   5.030  14.481 -2.1593  1.1175 -0.4831
 2931TIP3    H230209   6.225   5.020  14.346  1.1010 -1.3812 -2.0699
 2932TIP3   OH230210   1.418   2.164   5.271  0.2466 -0.1024 -0.2046
 2932TIP3    H130211   1.435   2.187   5.179 -0.9672  0.7183 -0.2428
 2932TIP3    H230212   1.324   2.181   5.283  0.1264 -1.3487  0.8681
 2933TIP3   OH230213   3.068   6.289   4.704  0.1819 -0.3316  0.1136
 2933TIP3    H130214   3.075   6.255   4.793  0.3977 -0.3534  0.0912
 2933TIP3    H230215   3.028   6.375   4.714  1.2899  0.1710  0.3549
 2934TIP3   OH230216   3.948   2.201   3.431  0.1341 -0.5170 -0.0771
 2934TIP3    H130217   3.985   2.167   3.350  0.0619  0.3574 -0.4909
 2934TIP3    H230218   3.958   2.296   3.424 -1.1901 -0.3317  0.2824
 2935TIP3   OH230219   0.498   0.254  17.209  0.3256  0.4931  0.0247
 2935TIP3    H130220   0.418   0.290  17.247 -1.0090  1.0843 -3.0416
 2935TIP3    H230221   0.512   0.172  17.255 -0.4950  1.6067  2.4372
 2936TIP3   OH230222   3.864   2.163   3.765 -0.0913  0.3807 -0.0146
 2936TIP3    H130223   3.834   2.108   3.692 -1.2693 -2.3241  2.2914
 2936TIP3    H230224   3.921   2.104   3.816  0.3751  2.0436  1.4640
 2937TIP3   OH230225   2.562   0.616  14.927  0.1329  0.0885  0.5952
 2937TIP3    H130226   2.520   0.625  15.013 -1.4532 -0.1927 -0.1165
 2937TIP3    H230227   2.541   0.527  14.900  0.6711  0.1598 -0.0811
 2938TIP3   OH230228   5.678   6.236  14.128 -0.7850 -0.1011 -0.0690
 2938TIP3    H130229   5.651   6.153  14.168 -0.6524 -0.3147 -0.4242
 2938TIP3    H230230   5.636   6.303  14.182  0.3037 -0.3486  1.1445
 2939TIP3   OH230231   0.931   1.469  14.840  0.4517 -0.0313 -0.5114
 2939TIP3    H130232   0.868   1.403  14.813 -0.7807  1.1857 -0.7322
 2939TIP3    H230233   0.885   1.520  14.907  0.9177  1.3174 -1.1788
 2940TIP3   OH230234   4.159   2.186   5.305 -0.1823  0.1562 -0.2454
 2940TIP3    H130235   4.169   2.092   5.323  0.6093 -0.0881 -1.8358
 2940TIP3    H230236   4.202   2.229   5.379  1.3324 -0.7771 -0.5398
 2941TIP3   OH230237   6.138   3.554   2.625  0.4070  0.3750 -0.6310
 2941TIP3    H130238   6.119   3.521   2.713  0.3405 -0.7454 -1.0577
 2941TIP3    H230239   6.079   3.506   2.567  2.3552 -0.9659 -1.6124
 2942TIP3   OH230240   6.613   2.497   3.580  0.2046  0.4471 -0.0298
 2942TIP3    H130241   6.663   2.451   3.512 -1.8935 -0.4588 -1.0383
 2942TIP3    H230242   6.535   2.443   3.594 -0.7021  1.9758  1.2229
 2943TIP3   OH230243   5.451   0.823   2.309  0.0054  0.0929 -0.2271
 2943TIP3    H130244   5.502   0.903   2.296 -0.1393  0.0520 -1.1083
 2943TIP3    H230245   5.499   0.755   2.262 -0.9416  0.0936 -1.2411
 2944TIP3   OH230246   5.467   3.056  16.391  0.2162 -0.1272 -0.0171
 2944TIP3    H130247   5.490   3.084  16.303  1.8716 -0.7115  0.1954
 2944TIP3    H230248   5.538   3.090  16.446 -1.1472  0.8521  1.2285
 2945TIP3   OH230249   3.127   0.509  12.289 -0.0626 -1.0355  0.6244
 2945TIP3    H130250   3.056   0.569  12.311  1.7100  1.3003  0.4332
 2945TIP3    H230251   3.085   0.438  12.241 -2.1580  0.6960 -0.2886
 2946TIP3   OH230252   2.023   5.828  14.694  0.0251 -0.7780  0.0827
 2946TIP3    H130253   2.010   5.922  14.682 -0.2079 -0.8680 -0.4217
 2946TIP3    H230254   1.949   5.800  14.748  0.4358 -0.5678  0.7661
 2947TIP3   OH230255   0.094   3.648   1.829  0.1835  0.0545  0.1281
 2947TIP3    H130256   0.018   3.688   1.870 -0.1444  0.0984 -0.5178
 2947TIP3    H230257   0.095   3.558   1.862  0.5949  0.4072  1.1348
 2948TIP3   OH230258   1.303   2.556   3.741 -0.2034  0.1415  0.0227
 2948TIP3    H130259   1.258   2.471   3.739 -0.8350  0.4912 -1.1144
 2948TIP3    H230260   1.299   2.582   3.833 -1.8875 -0.0803  0.0527
 2949TIP3   OH230261   4.299   1.538   3.009 -0.4306  0.4964  0.5378
 2949TIP3    H130262   4.390   1.540   3.037 -0.0573  1.3760 -0.6617
 2949TIP3    H230263   4.259   1.613   3.054 -0.3856  0.5531  0.4829
 2950TIP3   OH230264   3.547   1.883   5.225  0.3869 -0.1226  0.4355
 2950TIP3    H130265   3.491   1.815   5.188  1.8529  0.4752 -3.2604
 2950TIP3    H230266   3.541   1.870   5.320 -3.2986 -2.1506  0.1092
 2951TIP3   OH230267   2.929   1.051  11.294  0.3277 -0.3723  0.6887
 2951TIP3    H130268   2.968   1.122  11.346  0.6017  0.8886 -1.1396
 2951TIP3    H230269   2.882   1.096  11.223  0.9485 -2.0167 -0.8495
 2952TIP3   OH230270   0.174   6.635   1.485  0.0816 -0.0043 -0.1369
 2952TIP3    H130271   0.182   6.613   1.577 -0.9531  1.2074  0.2747
 2952TIP3    H230272   0.264   6.651   1.455  0.3272  0.8030  0.9845
 2953TIP3   OH230273   4.167   0.660  15.862 -0.4432  0.0178 -0.2866
 2953TIP3    H130274   4.148   0.666  15.768 -0.0301  1.6328 -0.3087
 2953TIP3    H230275   4.121   0.734  15.901 -0.9188 -0.8463  0.8674
 2954TIP3   OH230276   5.860   6.496  15.591  0.2781 -0.1498  0.3722
 2954TIP3    H130277   5.769   6.507  15.566  1.2556  2.2097 -2.8423
 2954TIP3    H230278   5.858   6.485  15.686 -3.2255  1.1836  0.5969
 2955TIP3   OH230279   4.702   3.663   5.046 -0.4814  0.0685  0.5562
 2955TIP3    H130280   4.636   3.693   5.108  1.2327  1.5197  1.8017
 2955TIP3    H230281   4.757   3.604   5.096 -0.5697 -0.7935 -0.3368
 2956TIP3   OH230282   2.660   1.865   5.603  0.0070 -0.7567  0.0720
 2956TIP3    H130283   2.747   1.903   5.590 -0.7466  0.9877 -0.2723
 2956TIP3    H230284   2.674   1.771   5.602  1.8604 -0.5167 -0.1674
 2957TIP3   OH230285   1.763   0.636   4.451  0.1018  0.0657  0.5685
 2957TIP3    H130286   1.811   0.599   4.377 -0.9509 -0.7553  0.2693
 2957TIP3    H230287   1.830   0.650   4.518  0.9107 -0.1251 -0.1776
 2958TIP3   OH230288   6.641   5.126   4.226  0.4063  0.2530 -0.3381
 2958TIP3    H130289   6.631   5.143   4.320  0.3124 -0.0341 -0.2948
 2958TIP3    H230290   6.669   5.210   4.189 -0.7396  0.7029 -0.2374
 2959TIP3   OH230291   3.367   6.071  16.886  0.0763  0.0285  0.2806
 2959TIP3    H130292   3.348   6.015  16.810 -1.2699 -0.0436  0.6450
 2959TIP3    H230293   3.445   6.121  16.860  0.2846 -0.7756 -0.7143
 2960TIP3   OH230294   6.765   5.522   5.536  0.1777 -0.2432  0.1197
 2960TIP3    H130295   6.759   5.432   5.570 -0.6586 -0.7603 -1.3147
 2960TIP3    H230296   6.723   5.518   5.450 -0.3473  1.6452  0.2458
 2961TIP3   OH230297   0.677   4.643  15.924 -0.0295  0.9717 -0.0512
 2961TIP3    H130298   0.691   4.597  16.007  4.1716 -1.0724 -1.5577
 2961TIP3    H230299   0.592   4.613  15.894 -0.5625 -0.2034  2.3610
 2962TIP3   OH230300   2.000   3.551   5.292  0.3222 -0.0930  0.2406
 2962TIP3    H130301   2.012   3.509   5.378  1.6402  0.4690  0.3599
 2962TIP3    H230302   1.984   3.479   5.232  0.2286 -0.5678  0.8230
 2963TIP3   OH230303   3.307   5.576   3.839 -0.4198 -0.1583  0.1662
 2963TIP3    H130304   3.352   5.655   3.809 -2.0621  0.8971  0.3538
 2963TIP3    H230305   3.268   5.601   3.922 -2.4563 -0.5828 -0.6097
 2964TIP3   OH230306   0.851   3.559   3.117 -0.0131  1.0369  0.4988
 2964TIP3    H130307   0.770   3.593   3.155  0.1463  1.3304  0.5742
 2964TIP3    H230308   0.890   3.507   3.187 -2.0153 -2.3364 -0.6697
 2965TIP3   OH230309   5.846   2.097   5.206  0.2556 -0.3621  0.5273
 2965TIP3    H130310   5.862   2.099   5.300  1.1684  1.2450  0.3674
 2965TIP3    H230311   5.880   2.012   5.178 -0.0168 -0.8528  1.6347
 2966TIP3   OH230312   4.844   1.821   5.238 -0.3078 -0.4357  0.2748
 2966TIP3    H130313   4.776   1.758   5.214 -1.7996  1.3255 -0.3760
 2966TIP3    H230314   4.806   1.907   5.216  0.1291  1.0472  4.5141
 2967TIP3   OH230315   2.469   6.396  10.482 -0.6467 -0.4257  0.1574
 2967TIP3    H130316   2.481   6.471  10.424 -0.9749  2.3912  3.4214
 2967TIP3    H230317   2.385   6.358  10.455 -0.9082  0.9003 -1.0038
 2968TIP3   OH230318   5.495   0.537   4.688 -0.4380 -0.3819  0.6123
 2968TIP3    H130319   5.429   0.469   4.703 -1.8703  0.4064 -1.6119
 2968TIP3    H230320   5.459   0.615   4.731 -1.1385  0.0944 -0.7513
 2969TIP3   OH230321   4.893   2.801   3.666  0.4788  0.1885 -0.0767
 2969TIP3    H130322   4.843   2.724   3.694  0.6579 -0.0919 -0.5011
 2969TIP3    H230323   4.981   2.767   3.650  0.7641  0.6514  0.5237
 2970TIP3   OH230324   5.304   6.153   2.666  0.4974 -0.3451 -0.0574
 2970TIP3    H130325   5.237   6.091   2.692 -0.7122  1.1773  0.6303
 2970TIP3    H230326   5.352   6.174   2.747  0.2136  0.3778 -0.0654
 2971TIP3   OH230327   5.595   0.670  12.528  0.9012  0.5634 -0.5608
 2971TIP3    H130328   5.573   0.644  12.618  0.7873  0.0577 -0.7337
 2971TIP3    H230329   5.556   0.757  12.518 -1.1969 -0.3536 -0.9116
 2972TIP3   OH230330   5.753   6.334  15.831  0.0479 -0.6365  0.2758
 2972TIP3    H130331   5.749   6.248  15.788 -1.3117  0.1445 -1.2879
 2972TIP3    H230332   5.663   6.365  15.832  0.5553  0.9531  0.4251
 2973TIP3   OH230333   1.503   6.647   1.259  0.2894 -0.1857 -0.0025
 2973TIP3    H130334   1.460   6.573   1.302 -1.2062  1.2074  1.0497
 2973TIP3    H230335   1.585   6.660   1.308 -0.5617  0.2770  1.3767
 2974TIP3   OH230336   4.063   3.155   1.508 -0.3120 -0.2256  0.3735
 2974TIP3    H130337   4.020   3.240   1.517 -1.0150 -0.6293  0.9009
 2974TIP3    H230338   4.131   3.155   1.575  0.5590  0.4300 -0.4874
 2975TIP3   OH230339   6.753   2.366  12.634 -0.3063  0.8108 -0.0794
 2975TIP3    H130340   6.790   2.373  12.546  1.6310  0.2647  0.6525
 2975TIP3    H230341   6.768   2.275  12.659 -2.7324  0.3804  0.0597
 2976TIP3   OH230342   0.765   3.516   1.376 -0.0799 -0.2388  0.5963
 2976TIP3    H130343   0.671   3.531   1.365  0.3915  1.6291 -1.3279
 2976TIP3    H230344   0.794   3.477   1.294  1.0517  0.4044  0.6662
 2977TIP3   OH230345   4.675   4.447   2.749 -0.8537 -0.2541 -0.3426
 2977TIP3    H130346   4.590   4.440   2.792 -1.4594  0.5272 -1.3763
 2977TIP3    H230347   4.655   4.466   2.657  0.4322  0.1120 -0.5741
 2978TIP3   OH230348   2.095   5.837  14.015  0.3742 -0.5040  0.5715
 2978TIP3    H130349   2.051   5.825  14.100 -0.3346  2.3037  0.7053
 2978TIP3    H230350   2.137   5.922  14.022 -0.2964  0.1454 -2.1456
 2979TIP3   OH230351   1.535   3.513  11.486  0.0860  0.3124  0.3861
 2979TIP3    H130352   1.488   3.582  11.440  0.5322  0.9742  0.9053
 2979TIP3    H230353   1.627   3.536  11.475  0.3170 -0.9957 -0.6659
 2980TIP3   OH230354   5.101   5.612  13.925  0.1618 -0.3998  0.5950
 2980TIP3    H130355   5.075   5.692  13.970  1.1181  1.0953 -1.3286
 2980TIP3    H230356   5.026   5.589  13.871  0.6424  0.4841 -0.4798
 2981TIP3   OH230357   0.864   4.366   5.410 -0.0673  0.3386 -0.0577
 2981TIP3    H130358   0.878   4.441   5.468  0.9783 -0.5134  0.8418
 2981TIP3    H230359   0.772   4.372   5.385 -0.2785  1.3054  0.8604
 2982TIP3   OH230360   2.586   5.806   5.209 -0.1148 -0.0895  0.1144
 2982TIP3    H130361   2.545   5.727   5.243  0.3056 -0.1805  0.4137
 2982TIP3    H230362   2.516   5.852   5.164 -0.2414 -0.9137 -0.5571
 2983TIP3   OH230363   6.748   4.835   0.208  0.3329  0.1656  0.7789
 2983TIP3    H130364   6.679   4.899   0.186  0.3539 -0.1219 -0.1884
 2983TIP3    H230365   6.786   4.811   0.123  0.1163 -1.3704  1.0885
 2984TIP3   OH230366   2.769   2.049  15.785 -0.1280 -1.0336 -0.7466
 2984TIP3    H130367   2.781   1.975  15.726 -1.1720 -0.7766 -1.3136
 2984TIP3    H230368   2.730   2.117  15.730  0.8243 -0.0608 -0.2298
 2985TIP3   OH230369   0.954   2.511   6.019 -0.0722 -0.1673 -0.4369
 2985TIP3    H130370   0.963   2.525   6.113 -0.7566 -1.9178 -0.0794
 2985TIP3    H230371   1.032   2.553   5.981  0.7208 -0.2917  0.9837
 2986TIP3   OH230372   2.869   4.216  14.739 -0.6425  0.6339  0.1078
 2986TIP3    H130373   2.911   4.152  14.795 -0.0552 -0.3428 -1.3958
 2986TIP3    H230374   2.935   4.240  14.675 -1.7486  0.5275 -1.1269
 2987TIP3   OH230375   2.954   1.673   4.366 -0.4713 -0.3257  0.2010
 2987TIP3    H130376   2.937   1.745   4.426 -0.2255 -0.5168  0.5016
 2987TIP3    H230377   2.959   1.714   4.280  0.4631  0.1296  0.4629
 2988TIP3   OH230378   1.267   5.972  12.125 -0.1405  0.4609 -0.3189
 2988TIP3    H130379   1.353   5.929  12.127 -0.0972  0.5315  2.2059
 2988TIP3    H230380   1.281   6.052  12.074  0.7077 -0.5892 -1.8253
 2989TIP3   OH230381   4.948   5.613  14.397 -0.4736 -0.5483  0.6454
 2989TIP3    H130382   4.872   5.639  14.344 -1.0456  0.0730  1.7307
 2989TIP3    H230383   4.920   5.628  14.487  1.7372  1.9997  1.0324
 2990TIP3   OH230384   0.802   3.521  15.211 -0.5798  0.3103 -0.1635
 2990TIP3    H130385   0.778   3.593  15.152 -1.4076  1.3323  1.3528
 2990TIP3    H230386   0.867   3.559  15.270 -0.8064 -0.2827  0.4808
 2991TIP3   OH230387   5.331   5.477  11.914 -0.0329  0.0967 -0.1348
 2991TIP3    H130388   5.253   5.492  11.860  0.3636 -1.6038 -1.2655
 2991TIP3    H230389   5.379   5.560  11.911 -1.1777  0.7585 -0.4700
 2992TIP3   OH230390   2.027   5.365  15.144 -0.4494 -0.4315  0.0501
 2992TIP3    H130391   2.056   5.412  15.066  0.1773 -2.0094 -0.7120
 2992TIP3    H230392   1.975   5.429  15.193 -1.3038  0.4510 -1.8993
 2993TIP3   OH230393   1.688   3.512   0.390 -0.2503  0.3648  0.8279
 2993TIP3    H130394   1.745   3.543   0.460 -1.5423  1.9829  1.2310
 2993TIP3    H230395   1.746   3.497   0.316  0.9242  0.1525  1.7678
 2994TIP3   OH230396   4.418   0.611  15.779 -0.3777  0.1414 -0.4404
 2994TIP3    H130397   4.473   0.583  15.853 -0.3918 -0.2441 -0.5746
 2994TIP3    H230398   4.332   0.628  15.818 -0.0405  1.2372 -0.1381
 2995TIP3   OH230399   1.384   0.253  12.012  0.2117 -0.1184  0.0708
 2995TIP3    H130400   1.446   0.270  11.941  0.1742 -1.2312 -0.2355
 2995TIP3    H230401   1.309   0.309  11.993 -0.2180 -1.1349 -1.3175
 2996TIP3   OH230402   0.007   1.620  13.469  0.4726 -0.1103  0.7895
 2996TIP3    H130403   0.052   1.670  13.402  0.2230  0.8949  1.3607
 2996TIP3    H230404  -0.039   1.685  13.522 -1.2606 -1.0524  0.5281
 2997TIP3   OH230405   3.296   3.814   6.629  0.3625 -0.2079 -0.8794
 2997TIP3    H130406   3.328   3.904   6.628  0.1952 -0.1440 -0.5324
 2997TIP3    H230407   3.201   3.822   6.622  0.1238 -0.2341  1.6120
 2998TIP3   OH230408   2.237   1.761   0.731 -0.0223  0.0868 -0.2434
 2998TIP3    H130409   2.274   1.848   0.716 -0.8535  0.4483 -0.2202
 2998TIP3    H230410   2.143   1.775   0.730 -0.1515 -0.7468  0.1793
 2999TIP3   OH230411   6.153   0.994   2.728  0.5058  0.1169 -0.7452
 2999TIP3    H130412   6.069   1.027   2.697 -1.3993 -3.3945  0.1575
 2999TIP3    H230413   6.214   1.012   2.656 -1.4664  0.9067 -2.3133
 3000TIP3   OH230414   2.206   5.915   0.015  0.0353 -0.1361  0.2000
 3000TIP3    H130415   2.174   5.988  -0.038 -1.3582 -0.5278  0.4703
 3000TIP3    H230416   2.278   5.879  -0.036  0.7031  1.3498  0.0151
 3001TIP3   OH230417   0.769   1.804   5.767 -0.6002  0.0567  0.0887
 3001TIP3    H130418   0.804   1.873   5.823  0.2864  1.1941 -1.7713
 3001TIP3    H230419   0.778   1.838   5.678 -0.9221 -2.1298 -0.8519
 3002TIP3   OH230420   4.276   5.534  13.743 -0.8375  0.1570 -0.5706
 3002TIP3    H130421   4.303   5.446  13.718 -0.9383 -0.3046  0.8330
 3002TIP3    H230422   4.355   5.587  13.734 -0.8962  0.0452 -1.8907
 3003TIP3   OH230423   6.284   1.064  16.201 -0.2068  0.1066  0.4048
 3003TIP3    H130424   6.373   1.100  16.201 -0.2229  0.1690  1.3229
 3003TIP3    H230425   6.253   1.077  16.290 -0.8502 -0.6411  0.2980
 3004TIP3   OH230426   1.495   1.626   2.571 -0.1715 -0.0026  0.1425
 3004TIP3    H130427   1.587   1.610   2.591 -0.1884 -0.1192  0.1284
 3004TIP3    H230428   1.483   1.720   2.586  0.6247  0.6017 -2.4542
 3005TIP3   OH230429   2.122   1.267  15.797 -0.0416 -0.5486  0.3236
 3005TIP3    H130430   2.209   1.228  15.790  0.3284  0.2291  0.4811
 3005TIP3    H230431   2.065   1.194  15.820  0.4858 -1.1545 -0.2402
 3006TIP3   OH230432   3.100   5.314   4.973 -0.1278  0.1990  0.5182
 3006TIP3    H130433   3.159   5.389   4.968  0.2097 -0.0151  1.1572
 3006TIP3    H230434   3.026   5.345   5.025 -0.4802  0.4006 -0.0984
 3007TIP3   OH230435   3.289   5.877  11.301 -0.0625 -0.2142  0.2754
 3007TIP3    H130436   3.309   5.960  11.344 -0.9438 -0.4230  1.1298
 3007TIP3    H230437   3.319   5.889  11.211  0.6045  0.7159  0.5977
 3008TIP3   OH230438   6.277   4.005  12.732 -0.4406  0.2964  0.1178
 3008TIP3    H130439   6.355   4.057  12.751  1.1175 -1.7391 -0.3741
 3008TIP3    H230440   6.309   3.915  12.724 -2.9998 -0.7811  0.9013
 3009TIP3   OH230441   5.374   5.005   5.559  0.0769  0.1353 -0.0121
 3009TIP3    H130442   5.425   4.958   5.625  0.2496 -0.5086 -0.5965
 3009TIP3    H230443   5.382   5.097   5.585  1.7860  0.0887 -0.2540
 3010TIP3   OH230444   2.122   4.384  15.394 -0.0407 -0.0770  0.5686
 3010TIP3    H130445   2.172   4.461  15.422 -0.0483  0.3436 -0.5083
 3010TIP3    H230446   2.185   4.312  15.396  0.5268  0.3682 -0.3749
 3011TIP3   OH230447   5.069   2.195  13.754 -0.1797 -0.3456 -0.3153
 3011TIP3    H130448   5.150   2.218  13.799  1.8203 -2.3155 -2.6131
 3011TIP3    H230449   5.029   2.127  13.808  0.8104 -0.8268 -0.1723
 3012TIP3   OH230450   6.611   1.580   1.290  0.0487  0.3440 -0.0032
 3012TIP3    H130451   6.573   1.601   1.375 -1.2687 -1.4483 -0.0821
 3012TIP3    H230452   6.535   1.572   1.232  0.8919  1.0368 -1.2546
 3013TIP3   OH230453   4.317   1.799   6.149 -0.1523  0.3698  0.0362
 3013TIP3    H130454   4.408   1.803   6.122 -0.0319  0.0659  0.3877
 3013TIP3    H230455   4.293   1.707   6.142  0.2453  0.0497  2.0653
 3014TIP3   OH230456   0.469   0.978   3.633  0.2548 -0.2654 -0.3418
 3014TIP3    H130457   0.401   0.911   3.628 -1.4251  1.4312 -1.7634
 3014TIP3    H230458   0.516   0.959   3.714 -1.6264 -1.7931  0.4572
 3015TIP3   OH230459   5.599   2.206  12.178 -0.2026  0.5328 -0.0558
 3015TIP3    H130460   5.616   2.175  12.089  0.0390  3.2188 -1.0327
 3015TIP3    H230461   5.508   2.236  12.176 -1.3490 -2.3311  1.6340
 3016TIP3   OH230462   3.432   4.860  12.584  0.3500  0.5445 -0.7774
 3016TIP3    H130463   3.509   4.816  12.619  0.0899  2.5471  2.8591
 3016TIP3    H230464   3.390   4.795  12.527  3.1305 -1.5957 -0.5777
 3017TIP3   OH230465   4.968   0.527   3.862  0.6300 -0.1970  0.1501
 3017TIP3    H130466   5.042   0.515   3.922 -0.9941 -2.0943  1.8899
 3017TIP3    H230467   4.919   0.601   3.898  1.3119  0.6988 -0.6903
 3018TIP3   OH230468   2.714   5.840  11.989 -0.2284  0.0333 -0.1391
 3018TIP3    H130469   2.747   5.909  11.931 -0.4644 -0.2798 -0.6598
 3018TIP3    H230470   2.625   5.824  11.957  0.3559 -1.6150 -1.0682
 3019TIP3   OH230471   3.575   4.744   3.845 -0.2247  0.1872 -0.1290
 3019TIP3    H130472   3.485   4.777   3.843 -0.5124 -0.5071  0.5822
 3019TIP3    H230473   3.596   4.740   3.939  0.2728 -0.3727 -0.2608
 3020TIP3   OH230474   4.975   4.698   3.646  0.2561  0.5080 -0.6612
 3020TIP3    H130475   4.988   4.651   3.728 -0.0767  0.7121 -0.4903
 3020TIP3    H230476   4.880   4.706   3.638  0.1610 -1.2957 -2.0652
 3021TIP3   OH230477   4.070   1.909   5.122  0.6640 -0.1575 -0.7289
 3021TIP3    H130478   4.038   1.824   5.151  1.7510 -0.6162 -0.8573
 3021TIP3    H230479   3.993   1.967   5.129  0.1729 -0.9116  0.2725
 3022TIP3   OH230480   4.289   1.617  13.132  0.1766 -0.2981 -0.1366
 3022TIP3    H130481   4.317   1.526  13.123 -1.2522 -1.2562  3.4174
 3022TIP3    H230482   4.220   1.628  13.067  1.0868 -1.3890 -1.3288
 3023TIP3   OH230483   4.973   4.612   5.102  0.3104  0.8558  0.0453
 3023TIP3    H130484   5.043   4.650   5.049 -0.3999  0.6933 -1.0602
 3023TIP3    H230485   4.998   4.521   5.114 -1.5644 -0.4591 -3.9804
 3024TIP3   OH230486   2.497   3.854  11.263  0.1605 -0.3380 -0.4363
 3024TIP3    H130487   2.475   3.764  11.238 -1.2804  0.1858 -1.1551
 3024TIP3    H230488   2.514   3.899  11.181 -2.3103  0.8195 -0.3834
 3025TIP3   OH230489   3.691   0.105   5.304 -0.2788 -0.3757  0.3906
 3025TIP3    H130490   3.710   0.134   5.215 -2.7839  1.1034  0.2516
 3025TIP3    H230491   3.680   0.010   5.297  1.0918 -0.4944 -0.5389
 3026TIP3   OH230492   2.064   4.765  15.758  0.2548 -0.2323 -0.4815
 3026TIP3    H130493   2.023   4.729  15.836  1.6451  0.0340  0.4139
 3026TIP3    H230494   2.023   4.718  15.685 -0.6194 -0.9386  0.4384
 3027TIP3   OH230495   0.663   3.080  12.642 -0.1845  1.2106 -0.7319
 3027TIP3    H130496   0.738   3.139  12.637 -0.4438  1.6460  0.2359
 3027TIP3    H230497   0.702   2.992  12.639  0.2679  1.4276 -1.3501
 3028TIP3   OH230498   3.270   1.685   1.461 -0.6165 -0.0481  0.3992
 3028TIP3    H130499   3.339   1.620   1.474  0.3566  0.7936 -0.2771
 3028TIP3    H230500   3.317   1.769   1.464 -1.4244  0.5021 -1.1516
 3029TIP3   OH230501   5.352   2.837  15.376  0.0242  0.1482  0.0921
 3029TIP3    H130502   5.395   2.802  15.454  1.7209  0.1311 -0.8007
 3029TIP3    H230503   5.270   2.875  15.408  0.0410 -1.0523  1.6656
 3030TIP3   OH230504   1.897   1.692  15.787  0.0043 -0.7365  0.2679
 3030TIP3    H130505   1.875   1.762  15.848 -1.5795 -0.1079 -0.9449
 3030TIP3    H230506   1.961   1.731  15.728  0.0141 -0.6905  0.3087
 3031TIP3   OH230507   2.445   2.183   1.445  0.2832  0.1738 -0.2141
 3031TIP3    H130508   2.455   2.237   1.523 -2.4184 -1.7847  1.6630
 3031TIP3    H230509   2.352   2.159   1.443  0.9462 -2.8134 -1.9862
 3032TIP3   OH230510   5.226   0.322   5.338  0.0477  0.1840  0.3953
 3032TIP3    H130511   5.148   0.377   5.346  0.5829  0.9075  0.7300
 3032TIP3    H230512   5.285   0.372   5.283  0.7309  0.1639  1.0930
 3033TIP3   OH230513   3.535   5.704  10.483  0.1544 -0.5669  0.0694
 3033TIP3    H130514   3.505   5.633  10.426  0.6427  0.2226 -1.2156
 3033TIP3    H230515   3.511   5.784  10.436 -0.2487  0.1339  1.4157
 3034TIP3   OH230516   1.427   3.871   2.943  0.3404 -0.5932 -0.2930
 3034TIP3    H130517   1.383   3.830   3.017 -1.4815  0.6396 -0.6406
 3034TIP3    H230518   1.472   3.947   2.981 -1.7606  0.8696 -0.5853
 3035TIP3   OH230519   6.367   3.062  17.108  0.3147  0.3890  0.3663
 3035TIP3    H130520   6.444   3.090  17.058  0.5167  2.0878  1.5625
 3035TIP3    H230521   6.404   3.014  17.183  0.1896  0.7528  0.6627
 3036TIP3   OH230522   2.130   1.596   0.319 -0.0898  0.6331  0.0108
 3036TIP3    H130523   2.038   1.616   0.301 -0.0650  1.0169  0.2965
 3036TIP3    H230524   2.134   1.584   0.414 -0.0747 -0.6139 -0.1324
 3037TIP3   OH230525   0.447   4.068   2.763 -0.7677  0.1977 -0.0393
 3037TIP3    H130526   0.460   3.973   2.755  0.1021  0.2876  0.2556
 3037TIP3    H230527   0.365   4.084   2.716 -2.0923 -1.0021  1.7272
 3038TIP3   OH230528   3.785   3.964   5.909 -0.2502 -0.4649 -0.3134
 3038TIP3    H130529   3.768   3.876   5.875  0.1609 -0.9363  0.6541
 3038TIP3    H230530   3.874   3.959   5.944 -0.2253  0.3429 -0.2468
 3039TIP3   OH230531   2.056   0.931  12.705 -0.1669 -0.2817 -0.2246
 3039TIP3    H130532   2.108   0.889  12.638 -0.0820  1.2488 -1.1710
 3039TIP3    H230533   1.973   0.954  12.662 -0.6052 -0.3752  0.5339
 3040TIP3   OH230534   1.444   1.130  16.727 -0.0221 -0.4247  0.1203
 3040TIP3    H130535   1.526   1.167  16.696 -0.5181  0.0075 -0.7274
 3040TIP3    H230536   1.443   1.146  16.821  1.2015 -1.1152  0.2778
 3041TIP3   OH230537   5.065   2.437  12.470 -0.1405  0.4059 -0.1242
 3041TIP3    H130538   5.036   2.503  12.534 -0.4095  1.5727 -1.4017
 3041TIP3    H230539   5.123   2.484  12.412  1.2394 -0.9957  0.0662
 3042TIP3   OH230540   1.636   1.269  15.269 -0.0316  0.4918 -0.0531
 3042TIP3    H130541   1.683   1.188  15.287 -1.9969 -0.4174  1.3672
 3042TIP3    H230542   1.562   1.242  15.214  0.1671  1.6234 -0.9269
 3043TIP3   OH230543   1.274   1.464  13.196 -0.3627 -0.0797 -0.1376
 3043TIP3    H130544   1.227   1.395  13.150 -0.2839 -1.4078  1.6785
 3043TIP3    H230545   1.366   1.444  13.183 -0.3233  0.2593 -0.4081
 3044TIP3   OH230546   5.922   4.762   1.340 -0.6488 -0.0831 -0.3268
 3044TIP3    H130547   5.917   4.826   1.410  1.5806 -0.9391  0.7149
 3044TIP3    H230548   6.016   4.753   1.322 -1.0322 -1.4286 -1.9605
 3045TIP3   OH230549   5.514   6.457  12.068  0.3596  0.0514 -0.0687
 3045TIP3    H130550   5.592   6.427  12.023  0.7416 -0.3330  0.8212
 3045TIP3    H230551   5.482   6.531  12.015  0.7428 -0.4258 -0.9827
 3046TIP3   OH230552   3.123   5.474  16.424  0.2168  0.2048 -0.1576
 3046TIP3    H130553   3.085   5.441  16.506  1.6017 -1.3810 -0.1070
 3046TIP3    H230554   3.154   5.395  16.379  2.9104  1.3311 -0.4424
 3047TIP3   OH230555   0.917   6.204   2.419 -0.0660  0.3929  0.0358
 3047TIP3    H130556   0.838   6.176   2.466  0.4468  1.4439  1.5774
 3047TIP3    H230557   0.886   6.270   2.357 -0.5719 -0.0914 -0.2332
 3048TIP3   OH230558   3.295   3.538  15.713 -0.4373 -0.0045 -0.0321
 3048TIP3    H130559   3.233   3.498  15.653 -0.1428 -0.0694 -0.2923
 3048TIP3    H230560   3.253   3.530  15.799 -1.4273  1.1975 -0.3693
 3049TIP3   OH230561   4.286   4.127  16.850 -0.1491  0.2943 -0.4220
 3049TIP3    H130562   4.327   4.204  16.813 -0.2602 -0.3698 -2.0028
 3049TIP3    H230563   4.241   4.158  16.929  2.9718  1.1168  1.1603
 3050TIP3   OH230564   5.723   2.863   2.812  0.2516 -0.5346  0.0608
 3050TIP3    H130565   5.648   2.910   2.775  1.3294  0.3273 -1.1419
 3050TIP3    H230566   5.739   2.907   2.896 -2.3614 -2.6606  1.8435
 3051TIP3   OH230567   0.160   6.407  15.661  0.2304 -0.2017  0.5080
 3051TIP3    H130568   0.201   6.351  15.727  0.1162 -1.2621 -0.2971
 3051TIP3    H230569   0.082   6.359  15.633  0.6306 -0.1052 -0.8789
 3052TIP3   OH230570   0.037   6.662  11.624 -0.1422  0.3104  0.1945
 3052TIP3    H130571   0.001   6.576  11.645 -0.0366  0.2293  0.0467
 3052TIP3    H230572   0.078   6.692  11.705  0.2336  0.0161  0.1172
 3053TIP3   OH230573   1.325   1.120   5.799  0.9335 -0.6640 -0.0245
 3053TIP3    H130574   1.318   1.205   5.754  2.5512  0.1038  1.0802
 3053TIP3    H230575   1.256   1.066   5.759  0.6195  0.7913 -1.5692
 3054TIP3   OH230576   5.565   6.474  15.555 -0.2509 -0.0674  0.2336
 3054TIP3    H130577   5.476   6.506  15.544 -0.6165 -1.2306 -0.3092
 3054TIP3    H230578   5.555   6.393  15.604  0.5470 -0.0325  0.4704
 3055TIP3   OH230579   2.825   3.725  15.134  0.1923  0.0633  0.0138
 3055TIP3    H130580   2.827   3.663  15.061 -1.9200  1.6078 -1.4976
 3055TIP3    H230581   2.912   3.766  15.133  0.0164  0.5395 -2.1823
 3056TIP3   OH230582   5.492   1.601  11.165  0.4709 -0.0870 -0.2051
 3056TIP3    H130583   5.490   1.572  11.073  1.4776  0.3498 -0.3759
 3056TIP3    H230584   5.547   1.679  11.164  0.6577 -0.1975  0.8189
 3057TIP3   OH230585   4.491   4.121  11.723 -0.5626  0.3320 -0.6183
 3057TIP3    H130586   4.562   4.183  11.709 -1.5241  1.6265  0.0142
 3057TIP3    H230587   4.530   4.035  11.707  1.0489  1.0270 -0.5723
 3058TIP3   OH230588   3.971   3.786   0.025  0.2650  0.2144  0.3550
 3058TIP3    H130589   3.971   3.880   0.008  0.4569  0.2816  0.7246
 3058TIP3    H230590   4.060   3.758   0.003  0.8526  0.4874  2.2410
 3059TIP3   OH230591   3.802   5.088  13.890 -0.0940 -0.0834 -0.5113
 3059TIP3    H130592   3.724   5.109  13.943 -0.2519  0.7775 -1.0675
 3059TIP3    H230593   3.786   4.999  13.858  1.7770 -2.4239  4.0929
 3060TIP3   OH230594   0.032   3.629  13.843  0.1720 -0.1620 -0.0188
 3060TIP3    H130595  -0.017   3.696  13.891  0.7527  0.1092  0.1923
 3060TIP3    H230596   0.047   3.668  13.757 -1.5435 -0.9399 -0.7370
 3061TIP3   OH230597   4.093   3.106   3.558  0.4580 -0.6330 -0.4090
 3061TIP3    H130598   4.071   3.166   3.629 -1.1957 -1.4745 -0.1659
 3061TIP3    H230599   4.154   3.044   3.598  0.6519 -0.2688 -0.1261
 3062TIP3   OH230600   3.356   3.953  17.174  0.5400  0.1955 -0.5444
 3062TIP3    H130601   3.294   4.023  17.158 -1.2737 -1.0658  0.6412
 3062TIP3    H230602   3.336   3.922  17.262  1.2721 -1.8161 -1.0296
 3063TIP3   OH230603   4.921   1.680  15.089 -0.1279  0.2040  0.1923
 3063TIP3    H130604   4.931   1.774  15.105  0.1632  0.0613  0.8865
 3063TIP3    H230605   4.883   1.675  15.001  0.5883  0.9437 -0.1765
 3064TIP3   OH230606   1.718   5.370  12.388  0.0035 -0.2169 -0.3262
 3064TIP3    H130607   1.643   5.412  12.428  0.2235 -1.2405  1.2814
 3064TIP3    H230608   1.687   5.340  12.303 -1.0219  0.4685 -0.2093
 3065TIP3   OH230609   3.298   2.247  15.322 -0.0979 -0.1134  0.5139
 3065TIP3    H130610   3.282   2.334  15.357 -1.5790  0.1194 -0.6113
 3065TIP3    H230611   3.369   2.258  15.259 -1.9133  0.8621 -1.4965
 3066TIP3   OH230612   0.578   2.327  11.540 -0.0755 -0.0565 -0.0574
 3066TIP3    H130613   0.616   2.347  11.626 -0.8104 -0.0247  0.2693
 3066TIP3    H230614   0.500   2.383  11.535  0.7249  0.9962 -1.3444
 3067TIP3   OH230615   2.622   6.325  10.712 -0.2944 -0.4844  0.1180
 3067TIP3    H130616   2.568   6.254  10.747  0.2834 -0.5322  0.9344
 3067TIP3    H230617   2.570   6.361  10.640 -0.9968 -1.1380  0.2856
 3068TIP3   OH230618   4.730   5.515   1.386  0.2197 -0.1634 -0.4228
 3068TIP3    H130619   4.669   5.570   1.435  0.6877  0.6325 -0.7155
 3068TIP3    H230620   4.793   5.486   1.452 -1.2095 -2.1208  0.1666
 3069TIP3   OH230621   5.182   5.252   4.546 -0.5993 -0.0556 -0.0952
 3069TIP3    H130622   5.263   5.294   4.517 -0.5703 -0.5900 -0.8149
 3069TIP3    H230623   5.201   5.223   4.635 -0.3702  0.7796  0.1360
 3070TIP3   OH230624   1.516   5.682   5.114  0.1950 -0.0822 -0.1714
 3070TIP3    H130625   1.449   5.703   5.048 -0.1707  1.8013  0.7228
 3070TIP3    H230626   1.480   5.715   5.196  3.0678  3.1697  0.0136
 3071TIP3   OH230627   6.585   1.332   0.596 -1.0529  0.0136  0.8430
 3071TIP3    H130628   6.504   1.283   0.583 -0.8583 -0.3414  0.9445
 3071TIP3    H230629   6.582   1.360   0.687 -0.3567 -1.3230  1.3050
 3072TIP3   OH230630   1.658   3.502  15.210 -0.4421 -0.6302  0.7486
 3072TIP3    H130631   1.717   3.519  15.136 -0.2913 -1.1547  0.7476
 3072TIP3    H230632   1.582   3.558  15.193 -0.6384 -1.1187 -0.0695
 3073TIP3   OH230633   2.348   5.367   3.741  0.4985  0.4298  0.2628
 3073TIP3    H130634   2.336   5.285   3.789  0.7605  1.2099  1.6927
 3073TIP3    H230635   2.351   5.435   3.808 -1.5543  1.8510 -0.9602
 3074TIP3   OH230636   0.297   1.758  16.637  0.0207  0.4188  0.1478
 3074TIP3    H130637   0.256   1.815  16.702 -0.5363  1.0914 -0.7728
 3074TIP3    H230638   0.258   1.784  16.554  1.6554  0.4527 -0.6404
 3075TIP3   OH230639   5.208   4.796  12.704 -0.8903  0.0096 -0.2817
 3075TIP3    H130640   5.240   4.716  12.661  1.6856  1.4223 -1.2375
 3075TIP3    H230641   5.184   4.768  12.792 -1.8968 -2.1368 -1.1652
 3076TIP3   OH230642   0.498   4.619   5.924  0.3133 -0.6141  0.2462
 3076TIP3    H130643   0.532   4.705   5.949 -1.1962  0.1339 -0.1583
 3076TIP3    H230644   0.430   4.638   5.859 -0.0092 -2.1221  0.1084
 3077TIP3   OH230645   5.800   6.543  10.931 -0.2670 -0.7393 -0.4242
 3077TIP3    H130646   5.840   6.553  10.844 -0.3421  2.8192 -0.1973
 3077TIP3    H230647   5.707   6.562  10.918 -0.4666 -1.1777  0.2888
 3078TIP3   OH230648   1.580   0.012  14.631  0.6299 -0.9403 -0.0858
 3078TIP3    H130649   1.570   0.025  14.537  1.0356 -2.1849 -0.3243
 3078TIP3    H230650   1.594   0.100  14.666  1.8561 -0.5733 -1.3650
 3079TIP3   OH230651   1.303   4.989   1.555  0.0695 -0.1565  0.3079
 3079TIP3    H130652   1.256   5.048   1.496 -1.1356  0.4976  1.8313
 3079TIP3    H230653   1.392   4.984   1.519 -0.3777  0.9181 -1.0229
 3080TIP3   OH230654   2.048   5.706   0.906  0.2485  0.5824  0.1092
 3080TIP3    H130655   2.082   5.618   0.891 -0.6397  0.1169  0.7247
 3080TIP3    H230656   2.100   5.740   0.979 -0.8300 -0.2741  1.3040
 3081TIP3   OH230657   6.311   3.292   3.090  0.5113  0.1326 -0.0953
 3081TIP3    H130658   6.361   3.272   3.011 -0.6711  1.7198 -1.3152
 3081TIP3    H230659   6.263   3.211   3.108 -1.1152  0.4414 -2.5479
 3082TIP3   OH230660   4.555   2.624   0.496 -0.4570  0.0499 -0.1426
 3082TIP3    H130661   4.464   2.611   0.525 -0.3419  4.3677  3.1191
 3082TIP3    H230662   4.547   2.666   0.411 -1.3818 -1.0635 -0.6381
 3083TIP3   OH230663   1.317   6.621  14.308 -0.5972  0.3124 -0.4713
 3083TIP3    H130664   1.409   6.642  14.297 -0.4767 -0.2668 -0.6035
 3083TIP3    H230665   1.311   6.583  14.396  0.1221 -3.8448 -1.9964
 3084TIP3   OH230666   2.413   3.966   6.145 -0.3087  1.0628 -0.4788
 3084TIP3    H130667   2.416   4.061   6.141 -1.6651  1.1403 -0.0292
 3084TIP3    H230668   2.344   3.946   6.208  0.3946 -0.2230 -0.0653
 3085TIP3   OH230669   6.749   5.361   2.827 -0.3186  0.3195 -0.6706
 3085TIP3    H130670   6.745   5.371   2.732 -2.0170 -2.3661 -1.0038
 3085TIP3    H230671   6.840   5.340   2.846  0.1988  1.6540 -1.5729
 3086TIP3   OH230672   2.195   1.780   4.552  0.1437 -0.2893  0.0711
 3086TIP3    H130673   2.230   1.869   4.558  0.1040 -0.3457  1.3475
 3086TIP3    H230674   2.210   1.742   4.639 -3.4022 -0.1609  0.9014
 3087TIP3   OH230675   4.275   5.275  17.123  0.1892  0.3526  0.2416
 3087TIP3    H130676   4.259   5.370  17.115  0.6196  0.5527  1.5166
 3087TIP3    H230677   4.228   5.250  17.202 -0.1875 -0.5764 -0.2691
 3088TIP3   OH230678   3.498   1.144   1.852  0.5251 -0.6981  0.1200
 3088TIP3    H130679   3.452   1.158   1.935 -0.5214  0.2081 -0.5901
 3088TIP3    H230680   3.509   1.049   1.846 -0.0989 -0.8280  0.9218
 3089TIP3   OH230681   1.727   1.592   4.606  0.3989 -0.0573  0.0765
 3089TIP3    H130682   1.660   1.532   4.640  2.1700 -1.8344  0.6281
 3089TIP3    H230683   1.688   1.630   4.528 -2.3069  1.1538  1.8553
 3090TIP3   OH230684   2.842   1.699  15.422  0.6203 -0.3505 -0.2587
 3090TIP3    H130685   2.936   1.686  15.407  0.5011 -1.3032 -0.2915
 3090TIP3    H230686   2.821   1.639  15.494  0.0549 -0.0692 -0.1855
 3091TIP3   OH230687   0.685   4.145   4.798  0.3906  0.2173 -0.2403
 3091TIP3    H130688   0.696   4.233   4.761  0.5345  1.4103  2.4066
 3091TIP3    H230689   0.671   4.160   4.892  1.2308 -2.6343  0.4400
 3092TIP3   OH230690   3.456   3.684  11.670  0.3732  0.3233  0.4331
 3092TIP3    H130691   3.460   3.630  11.591 -0.6404 -0.3839  0.8450
 3092TIP3    H230692   3.372   3.730  11.663  0.0308 -0.1509  1.3482
 3093TIP3   OH230693   0.895   5.889  16.205  0.7763  0.3525 -0.3482
 3093TIP3    H130694   0.986   5.907  16.229  1.0132  1.4036 -1.9350
 3093TIP3    H230695   0.900   5.819  16.141  0.6391  1.5633 -1.7332
 3094TIP3   OH230696   2.811   0.127  15.288  0.3600  0.5888 -0.0178
 3094TIP3    H130697   2.867   0.134  15.365  0.7765 -0.3003 -0.2211
 3094TIP3    H230698   2.860   0.170  15.218  0.0483  1.2632  0.1711
 3095TIP3   OH230699   1.186   2.410  14.902 -0.1619  0.5209 -0.0951
 3095TIP3    H130700   1.194   2.424  14.808 -0.9968  1.6788 -0.0116
 3095TIP3    H230701   1.220   2.321  14.916  1.3183  0.8669 -1.2672
 3096TIP3   OH230702   1.498   5.297   3.618 -0.1668 -0.3528  0.0963
 3096TIP3    H130703   1.592   5.287   3.603  0.1364 -0.8865  2.1330
 3096TIP3    H230704   1.480   5.246   3.697 -1.9886  0.5677  0.3367
 3097TIP3   OH230705   2.640   2.904   1.158 -0.5735  0.5326 -0.4583
 3097TIP3    H130706   2.720   2.899   1.209  0.1187 -1.0057 -1.6067
 3097TIP3    H230707   2.580   2.955   1.212  1.0698  1.4957  0.5462
 3098TIP3   OH230708   0.738   5.122   1.666  0.8218 -0.2073 -0.0698
 3098TIP3    H130709   0.670   5.061   1.693  0.4757  0.0475 -0.3395
 3098TIP3    H230710   0.707   5.208   1.697  1.2847 -0.1621  0.2787
 3099TIP3   OH230711   2.289   2.412   2.924  0.0814  0.0353  0.2716
 3099TIP3    H130712   2.331   2.498   2.925 -0.4896  0.3296 -0.4212
 3099TIP3    H230713   2.226   2.416   2.852  0.4725 -1.1694 -0.1672
 3100TIP3   OH230714   2.582   3.701  16.841 -0.2270  0.2498  0.3789
 3100TIP3    H130715   2.624   3.622  16.806  2.2707  0.5375  2.4319
 3100TIP3    H230716   2.536   3.671  16.919 -0.8501  0.5439  0.1323
 3101TIP3   OH230717   3.683   1.923  16.604  0.1302  1.2652 -0.1576
 3101TIP3    H130718   3.612   1.879  16.557  0.1157  1.7301 -0.5722
 3101TIP3    H230719   3.639   1.981  16.665  0.0479 -1.4414  2.6070
 3102TIP3   OH230720   6.090   1.670  13.278 -0.1607  0.3893  0.3410
 3102TIP3    H130721   6.139   1.594  13.310  1.7566  0.9879 -0.9843
 3102TIP3    H230722   6.018   1.680  13.340  0.3143 -1.6837  1.3128
 3103TIP3   OH230723   4.413   5.950  16.905  0.1469  0.2960  0.8900
 3103TIP3    H130724   4.487   5.889  16.909  0.2635  0.4134  0.4689
 3103TIP3    H230725   4.378   5.940  16.817 -0.7757 -0.2730  1.2969
 3104TIP3   OH230726   1.335   6.146  16.469 -0.5389 -0.4606  0.1641
 3104TIP3    H130727   1.375   6.150  16.556 -0.1299  0.3330 -0.0496
 3104TIP3    H230728   1.393   6.199  16.414 -2.0276  0.9705 -0.0944
 3105TIP3   OH230729   2.669   2.154   0.635 -0.2820 -0.0095  0.3194
 3105TIP3    H130730   2.615   2.207   0.694 -0.7542 -0.0028 -0.1089
 3105TIP3    H230731   2.679   2.209   0.557  2.7415  1.2171  1.4155
 3106TIP3   OH230732   1.918   5.807   3.218  0.3009  0.0954  0.3234
 3106TIP3    H130733   1.977   5.877   3.189  0.6431 -0.1265  0.4713
 3106TIP3    H230734   1.843   5.813   3.159  1.3467 -0.8823 -1.1872
 3107TIP3   OH230735   1.688   4.883  15.513  0.6782  0.2119 -0.3075
 3107TIP3    H130736   1.649   4.841  15.590 -1.3946 -1.1925 -1.9956
 3107TIP3    H230737   1.772   4.838  15.501  1.0826  0.5300  1.1558
 3108TIP3   OH230738   3.948   6.002  15.449  0.6924  0.0606 -0.2543
 3108TIP3    H130739   3.981   6.020  15.537 -0.0547 -1.0791  0.2683
 3108TIP3    H230740   4.008   6.050  15.392  0.8999  1.2319  0.8808
 3109TIP3   OH230741   4.442   0.212   6.461  0.1104  0.2368  0.1091
 3109TIP3    H130742   4.494   0.286   6.493  0.7412 -0.4650  0.7539
 3109TIP3    H230743   4.468   0.202   6.369 -0.9226  1.5954 -0.3596
 3110TIP3   OH230744   1.405   3.405   1.288  0.6075 -0.1747 -0.4334
 3110TIP3    H130745   1.355   3.327   1.264  3.3737 -2.4636  0.6605
 3110TIP3    H230746   1.458   3.424   1.210  1.7321 -0.9899  0.0966
 3111TIP3   OH230747   3.341   3.147   5.137 -0.1045 -0.3574 -0.7832
 3111TIP3    H130748   3.369   3.172   5.049  2.1481 -1.0417 -0.3285
 3111TIP3    H230749   3.421   3.114   5.179 -0.4786  2.3533  2.4384
 3112TIP3   OH230750   0.133   2.673  14.090  0.0311 -0.0123 -0.2177
 3112TIP3    H130751   0.093   2.603  14.141 -2.2618  0.5027 -1.1783
 3112TIP3    H230752   0.109   2.654  13.999  1.8921  0.4394 -0.8509
 3113TIP3   OH230753   0.638   0.157   4.612  1.0431 -0.1197  0.7051
 3113TIP3    H130754   0.685   0.229   4.655  0.4881 -0.2266  1.5049
 3113TIP3    H230755   0.603   0.105   4.683  0.8197 -0.7850  0.1216
 3114TIP3   OH230756   1.497   2.503  14.251 -0.6549 -0.0489  0.7274
 3114TIP3    H130757   1.511   2.438  14.182  1.2297  0.5036  0.5300
 3114TIP3    H230758   1.572   2.562  14.244 -1.3960  1.1181  2.0540
 3115TIP3   OH230759   2.231   5.905  11.777 -0.4588 -0.0308  0.0460
 3115TIP3    H130760   2.181   5.986  11.777 -1.7452 -0.6932 -2.5100
 3115TIP3    H230761   2.322   5.932  11.782 -0.8975  1.2806  3.5801
 3116TIP3   OH230762   3.594   0.278  10.554  0.1482  0.5587  0.8053
 3116TIP3    H130763   3.586   0.184  10.569  0.5156  0.5225  0.7853
 3116TIP3    H230764   3.575   0.290  10.461  2.9516  0.1282  0.0976
 3117TIP3   OH230765   2.349   5.268   5.215 -0.6608  0.0460 -0.5972
 3117TIP3    H130766   2.329   5.207   5.143  1.3303 -1.7576  0.2584
 3117TIP3    H230767   2.428   5.232   5.255 -0.8784  1.8074  1.6054
 3118TIP3   OH230768   2.490   0.593  12.404  0.0351  0.0277 -0.0660
 3118TIP3    H130769   2.441   0.595  12.486  0.6710  2.9137  0.3671
 3118TIP3    H230770   2.564   0.652  12.419  1.3834 -1.0661 -2.0246
 3119TIP3   OH230771   3.774   5.394   3.591 -0.0692  0.3513  0.3091
 3119TIP3    H130772   3.727   5.388   3.674 -0.7206  0.6920 -0.0234
 3119TIP3    H230773   3.705   5.406   3.526  0.4861  0.8470 -0.1958
 3120TIP3   OH230774   0.710   4.777  14.219  0.0386 -0.2416  0.2938
 3120TIP3    H130775   0.714   4.872  14.220 -1.2512 -0.1607 -0.2182
 3120TIP3    H230776   0.691   4.755  14.128  1.2741 -1.0607  0.1990
 3121TIP3   OH230777   4.449   2.138   2.941 -0.1325  0.0415  0.1201
 3121TIP3    H130778   4.451   2.227   2.975  0.9470  0.2771 -0.5241
 3121TIP3    H230779   4.530   2.129   2.891 -0.1938 -1.3241  0.2251
 3122TIP3   OH230780   1.135   6.163   0.516 -0.5256  0.6050  0.0707
 3122TIP3    H130781   1.118   6.142   0.608 -1.9429 -0.0757 -0.3102
 3122TIP3    H230782   1.168   6.082   0.478  2.0697  1.4262  0.3788
 3123TIP3   OH230783   0.137   0.021   3.624  0.3274 -0.0615  0.6412
 3123TIP3    H130784   0.223   0.053   3.652 -0.6153  1.4474  1.9841
 3123TIP3    H230785   0.080   0.037   3.699 -1.5031  0.5883 -0.8059
 3124TIP3   OH230786   3.702   0.384   0.455 -0.2656 -0.4749 -0.0325
 3124TIP3    H130787   3.708   0.303   0.506 -0.9032 -0.8786 -0.5812
 3124TIP3    H230788   3.690   0.453   0.521 -0.0468 -0.8691  0.4191
 3125TIP3   OH230789   5.905   4.619  13.255  0.0753 -0.7943 -0.0461
 3125TIP3    H130790   5.866   4.691  13.304 -2.0839 -1.2144 -1.0402
 3125TIP3    H230791   5.871   4.540  13.296 -0.1701 -1.1756 -0.9543
 3126TIP3   OH230792   5.937   6.414   3.532  0.1263 -0.7197 -0.1045
 3126TIP3    H130793   5.929   6.340   3.591 -0.6039 -0.3852  0.2282
 3126TIP3    H230794   5.951   6.489   3.589  1.6524 -0.6939 -0.4764
 3127TIP3   OH230795   0.599   5.268   1.402 -0.1100 -0.0978  0.2366
 3127TIP3    H130796   0.655   5.194   1.378 -0.7382 -0.3338 -0.5442
 3127TIP3    H230797   0.646   5.311   1.474 -0.0415 -1.6197  1.1471
 3128TIP3   OH230798   0.647   2.345   3.583  0.3008  0.8593 -0.9379
 3128TIP3    H130799   0.647   2.316   3.492  1.0726 -0.0060 -0.6735
 3128TIP3    H230800   0.691   2.430   3.582  1.6708  0.1757 -1.1901
 3129TIP3   OH230801   2.890   1.548   5.306 -0.3011  0.2498  0.2832
 3129TIP3    H130802   2.941   1.522   5.383 -0.4803  0.6565  0.5460
 3129TIP3    H230803   2.939   1.621   5.269 -0.5459  0.4660  0.3804
 3130TIP3   OH230804   3.400   5.384   2.732 -0.0071 -0.2789  0.2091
 3130TIP3    H130805   3.429   5.471   2.758  1.5385 -0.4042 -0.9981
 3130TIP3    H230806   3.480   5.331   2.730 -0.9090 -1.7474  0.9254
 3131TIP3   OH230807   2.965   2.908   0.595 -0.7464 -0.3653  0.2347
 3131TIP3    H130808   2.901   2.916   0.665 -1.3412  1.3459 -0.4571
 3131TIP3    H230809   2.916   2.925   0.515  0.6611  1.7273 -0.2606
 3132TIP3   OH230810   6.176   1.748   0.877  0.3322 -0.5425  0.8814
 3132TIP3    H130811   6.152   1.669   0.829  0.7041 -0.1493  0.0410
 3132TIP3    H230812   6.210   1.808   0.811  1.8125 -0.3670  1.7635
 3133TIP3   OH230813   1.022   2.252   3.803 -0.3985  0.4780 -0.1230
 3133TIP3    H130814   1.070   2.234   3.884  0.4673  0.7097 -0.5832
 3133TIP3    H230815   1.060   2.193   3.738 -1.9125 -0.5918 -0.1032
 3134TIP3   OH230816   6.270   1.860   2.100  0.2873 -0.2049  0.1139
 3134TIP3    H130817   6.247   1.819   2.183  1.4550 -1.0346  0.0584
 3134TIP3    H230818   6.187   1.867   2.053 -0.0863 -1.8391  0.4446
 3135TIP3   OH230819   2.198   0.106  13.061  0.3707 -0.0290  0.4485
 3135TIP3    H130820   2.118   0.157  13.070  0.7562  0.5911  0.4400
 3135TIP3    H230821   2.181   0.048  12.986 -0.5190 -0.7867  1.2115
 3136TIP3   OH230822   4.982   4.396  16.028 -1.0253 -0.7378 -0.2031
 3136TIP3    H130823   4.902   4.362  16.067 -2.1188  0.8765 -0.9576
 3136TIP3    H230824   5.043   4.321  16.030 -1.8531 -1.4544  2.1748
 3137TIP3   OH230825   0.792   1.861  13.057 -0.3792 -0.3499  0.0433
 3137TIP3    H130826   0.769   1.864  12.964 -3.1061 -4.0532  0.3729
 3137TIP3    H230827   0.879   1.821  13.059 -1.3366 -2.6520 -0.9689
 3138TIP3   OH230828   3.238   4.371  15.503 -0.2439 -0.3561 -0.9136
 3138TIP3    H130829   3.285   4.447  15.539  0.6898 -0.8796 -0.9818
 3138TIP3    H230830   3.189   4.406  15.429 -0.4988  0.3392 -0.4245
 3139TIP3   OH230831   3.806   0.224  17.232 -0.2638 -0.0355  0.3500
 3139TIP3    H130832   3.873   0.258  17.172 -0.0106  1.6171  1.5114
 3139TIP3    H230833   3.851   0.217  17.316 -1.5662  1.2875  1.1940
 3140TIP3   OH230834   3.930   1.578   0.578 -0.0629 -0.9269  0.3403
 3140TIP3    H130835   3.872   1.617   0.643 -0.5374  0.3670 -0.8081
 3140TIP3    H230836   3.897   1.489   0.565 -1.7556 -0.2498 -0.2159
 3141TIP3   OH230837   4.244   6.376  17.168 -0.0679 -0.0736  0.2689
 3141TIP3    H130838   4.245   6.413  17.256  0.8188  2.1303 -0.5973
 3141TIP3    H230839   4.163   6.325  17.164 -1.1273  1.3960  1.7393
 3142TIP3   OH230840   1.658   1.735   5.315  0.8063 -0.1822 -0.1118
 3142TIP3    H130841   1.724   1.686   5.266 -0.0390 -1.6652  0.1508
 3142TIP3    H230842   1.613   1.668   5.367  0.1585  1.0216  0.9197
 3143TIP3   OH230843   0.655   0.732   2.837  0.0806  0.5874 -0.3101
 3143TIP3    H130844   0.622   0.668   2.900  1.4907 -0.2440 -0.3885
 3143TIP3    H230845   0.577   0.759   2.788 -0.2888 -2.7744 -1.8339
 3144TIP3   OH230846   4.051   5.367   3.232 -1.0169  0.0582 -0.4439
 3144TIP3    H130847   4.131   5.326   3.201 -1.5544 -0.2948 -1.3826
 3144TIP3    H230848   4.033   5.325   3.316  0.4776  1.0658  0.4308
 3145TIP3   OH230849   6.484   3.344   6.212  0.0217  0.5125 -0.3586
 3145TIP3    H130850   6.413   3.366   6.271  0.0377  1.0194 -0.5297
 3145TIP3    H230851   6.480   3.248   6.204 -0.3170  0.4950  0.0327
 3146TIP3   OH230852   3.505   4.657   6.241  0.4345  0.2680  0.2379
 3146TIP3    H130853   3.494   4.567   6.211  0.3941  0.4994 -0.4602
 3146TIP3    H230854   3.469   4.658   6.329 -1.4686  0.0777 -0.4946
 3147TIP3   OH230855   3.417   1.602  15.666 -0.1688 -0.0643 -0.6965
 3147TIP3    H130856   3.393   1.577  15.755  1.5901 -0.7397 -0.3678
 3147TIP3    H230857   3.475   1.532  15.636 -0.3766  0.3722 -2.2187
 3148TIP3   OH230858   2.158   6.625   0.206  0.2862  0.6801 -0.8414
 3148TIP3    H130859   2.086   6.628   0.269 -1.2311 -1.4803 -2.3670
 3148TIP3    H230860   2.225   6.571   0.249 -0.7374 -0.7839 -1.0268
 3149TIP3   OH230861   4.791   6.251   2.162 -0.1560  0.0027  0.4746
 3149TIP3    H130862   4.705   6.225   2.130 -0.3242  0.4564  0.5412
 3149TIP3    H230863   4.799   6.210   2.248  0.0404 -0.7155  0.1147
 3150TIP3   OH230864   2.751   3.971   3.543 -0.3574 -0.4165  0.0384
 3150TIP3    H130865   2.706   3.898   3.585 -0.4525 -1.1217 -1.2306
 3150TIP3    H230866   2.681   4.032   3.518 -0.6365 -1.3696 -1.6615
 3151TIP3   OH230867   5.684   6.595   3.872  0.1382  0.8827 -0.6540
 3151TIP3    H130868   5.605   6.637   3.906 -0.0544  0.0351  0.0049
 3151TIP3    H230869   5.654   6.542   3.798 -0.2887 -0.8794  0.6909
 3152TIP3   OH230870   0.422   1.135  16.090 -0.2197 -0.1525  0.1669
 3152TIP3    H130871   0.391   1.186  16.015  1.8687 -1.0782 -1.4288
 3152TIP3    H230872   0.424   1.045  16.058  0.3771 -0.6107  1.4481
 3153TIP3   OH230873   4.588   2.652   2.817 -0.1352  0.0503  0.0827
 3153TIP3    H130874   4.648   2.666   2.890 -1.8625  1.7747  1.2861
 3153TIP3    H230875   4.619   2.712   2.749  0.2192  0.0158  0.2108
 3154TIP3   OH230876   6.300   1.114  14.505 -0.0021  0.0775 -0.1821
 3154TIP3    H130877   6.273   1.197  14.544 -0.1998 -0.1343  0.1336
 3154TIP3    H230878   6.228   1.090  14.446  1.1073  1.3366 -2.1487
 3155TIP3   OH230879   2.554   2.413  14.081 -0.1861 -0.3706 -0.2185
 3155TIP3    H130880   2.621   2.464  14.127  0.3667 -0.6072 -0.7494
 3155TIP3    H230881   2.603   2.356  14.022 -0.8677 -0.3121 -0.8581
 3156TIP3   OH230882   2.215   0.555  14.524 -0.0149 -0.1130 -0.2998
 3156TIP3    H130883   2.207   0.462  14.547  1.0579 -0.1123  0.1232
 3156TIP3    H230884   2.277   0.556  14.451  0.3951  0.3210  0.0514
 3157TIP3   OH230885   0.056   0.420  17.038 -0.2991 -0.0398  0.0212
 3157TIP3    H130886   0.004   0.498  17.053 -0.9762 -0.2643 -1.0166
 3157TIP3    H230887  -0.008   0.352  17.016  0.3260 -0.7097  0.2192
 3158TIP3   OH230888   5.938   1.773   5.905 -0.3894  0.1552  0.3829
 3158TIP3    H130889   5.888   1.731   5.975 -1.0458  1.2255  0.5747
 3158TIP3    H230890   5.993   1.836   5.950  0.1289 -0.0490  0.0399
 3159TIP3   OH230891   1.189   3.932  12.223  0.4764 -0.6337 -0.4209
 3159TIP3    H130892   1.267   3.956  12.272 -0.2730 -0.8065  0.9151
 3159TIP3    H230893   1.154   3.856  12.268 -2.8316  1.9338  1.8536
 3160TIP3   OH230894   1.076   4.668   0.472  0.4618  0.2310 -0.5925
 3160TIP3    H130895   1.087   4.753   0.429  1.2911  0.5154  0.1647
 3160TIP3    H230896   1.151   4.616   0.442 -0.7024 -0.6938 -2.0546
 3161TIP3   OH230897   2.591   2.850  17.027 -0.8162 -0.1724  1.5226
 3161TIP3    H130898   2.618   2.810  17.110  0.3782  0.0719  1.2694
 3161TIP3    H230899   2.597   2.778  16.963  4.7911  0.8535  0.3081
 3162TIP3   OH230900   6.025   5.427   1.975  0.0005 -0.3700  1.2652
 3162TIP3    H130901   6.102   5.375   1.951  0.4098  0.0434  1.6637
 3162TIP3    H230902   5.972   5.369   2.030 -0.9394 -1.3257 -0.5704
 3163TIP3   OH230903   6.023   0.359  11.643  0.7399  0.5136  0.1187
 3163TIP3    H130904   6.071   0.276  11.646 -1.1524 -0.6380  0.6116
 3163TIP3    H230905   5.962   0.349  11.569 -0.3231  0.9603  0.9033
 3164TIP3   OH230906   5.985   1.558  11.778  0.2394 -0.0777  0.0975
 3164TIP3    H130907   5.939   1.474  11.785 -1.5044  0.7488 -0.6473
 3164TIP3    H230908   6.078   1.536  11.783 -0.1364 -2.1549 -1.1148
 3165TIP3   OH230909   5.016   5.082  13.009  0.1911 -0.1304  0.0071
 3165TIP3    H130910   4.992   5.029  13.085 -1.5990 -0.6748 -0.8865
 3165TIP3    H230911   4.994   5.171  13.034  1.0143 -0.0952  0.6515
 3166TIP3   OH230912   5.604   1.278   3.786  0.3222  0.3068  0.0907
 3166TIP3    H130913   5.644   1.365   3.778 -0.7338  1.1359  2.6624
 3166TIP3    H230914   5.576   1.273   3.878 -2.6637 -1.4022 -0.7665
 3167TIP3   OH230915   5.230   6.328   2.421  0.0370  0.3728 -0.0197
 3167TIP3    H130916   5.234   6.348   2.514 -1.5514  2.1523 -0.2758
 3167TIP3    H230917   5.218   6.233   2.417  0.1400  0.2697  1.5781
 3168TIP3   OH230918   1.714   0.811   3.660 -0.5039  0.0116  0.3728
 3168TIP3    H130919   1.806   0.783   3.665 -0.3822  0.2115 -0.5001
 3168TIP3    H230920   1.713   0.874   3.588 -0.9273  1.6310  1.7466
 3169TIP3   OH230921   5.160   4.315   0.646 -0.0410 -0.7088  0.4299
 3169TIP3    H130922   5.254   4.326   0.660  0.3453 -3.6378  0.7539
 3169TIP3    H230923   5.122   4.319   0.734 -0.0275 -0.8353  0.4425
 3170TIP3   OH230924   5.853   0.240  16.846 -0.3999  0.1639  0.6049
 3170TIP3    H130925   5.886   0.275  16.929 -0.6322  0.1076  0.7214
 3170TIP3    H230926   5.822   0.152  16.867  0.9504 -0.4541  0.1580
 3171TIP3   OH230927   0.714   5.381  13.609  0.2889  0.2232 -0.7806
 3171TIP3    H130928   0.689   5.333  13.530 -0.8584  0.9843 -0.9115
 3171TIP3    H230929   0.681   5.328  13.682 -0.2302  0.3836 -0.8930
 3172TIP3   OH230930   4.030   2.275   1.521  0.0173 -0.1889 -0.0515
 3172TIP3    H130931   3.953   2.262   1.577 -0.0485  1.3074  0.2458
 3172TIP3    H230932   4.104   2.246   1.575 -0.2957 -1.6290 -0.3350
 3173TIP3   OH230933   5.903   1.518   3.122  0.0538 -0.7367 -0.1271
 3173TIP3    H130934   5.944   1.464   3.054  2.2770 -0.0962  0.6126
 3173TIP3    H230935   5.946   1.603   3.114  0.5340 -0.7018  2.1764
 3174TIP3   OH230936   5.439   1.382  13.363  0.1485 -0.0661 -0.0006
 3174TIP3    H130937   5.417   1.456  13.307  1.2662  0.2727 -0.0051
 3174TIP3    H230938   5.505   1.333  13.314  1.1032  0.2008  0.9810
 3175TIP3   OH230939   2.663   0.666   5.102  0.9797  0.1615  0.3152
 3175TIP3    H130940   2.569   0.651   5.089  1.1128 -0.1392 -0.3265
 3175TIP3    H230941   2.667   0.732   5.172  0.2707  0.7567 -0.1898
 3176TIP3   OH230942   4.618   0.392  17.162 -0.4155  0.4708  0.0478
 3176TIP3    H130943   4.640   0.385  17.254  2.0917 -0.6534 -0.5607
 3176TIP3    H230944   4.530   0.355  17.155 -0.8908  1.1414  2.0393
 3177TIP3   OH230945   1.366   6.571  13.755  0.3134  0.5140 -0.3526
 3177TIP3    H130946   1.310   6.561  13.832 -1.1427  2.0431 -1.1278
 3177TIP3    H230947   1.441   6.621  13.786 -0.4738  1.5020  0.0090
 3178TIP3   OH230948   0.121   4.219   1.511  0.0772  0.1186  0.1210
 3178TIP3    H130949   0.045   4.267   1.542 -0.1343  1.3793 -2.1354
 3178TIP3    H230950   0.085   4.152   1.452  0.5734 -0.9418  0.9904
 3179TIP3   OH230951   3.591   3.529  16.430  0.5588  0.5216  0.3746
 3179TIP3    H130952   3.632   3.455  16.474 -1.2468 -0.3817  0.6382
 3179TIP3    H230953   3.497   3.509  16.432  0.1883  1.8362 -1.3602
 3180TIP3   OH230954   2.022   4.263  13.180  0.4927  1.0482 -0.3661
 3180TIP3    H130955   2.089   4.285  13.116  0.2096 -0.4709 -1.2209
 3180TIP3    H230956   2.020   4.168  13.181 -1.7570  1.0467 -0.4748
 3181TIP3   OH230957   4.186   4.863   3.347  0.0556 -0.5805  0.3760
 3181TIP3    H130958   4.253   4.840   3.412 -0.0226 -0.9678  0.3185
 3181TIP3    H230959   4.184   4.959   3.349  1.2741 -0.5233 -0.2929
 3182TIP3   OH230960   2.225   0.537   4.639 -0.2390 -0.7732  0.2050
 3182TIP3    H130961   2.275   0.596   4.696 -1.4694 -3.5009  4.5133
 3182TIP3    H230962   2.289   0.472   4.610  0.0088 -0.3936 -0.1329
 3183TIP3   OH230963   5.885   5.765   3.261  0.6229  1.1846 -0.0249
 3183TIP3    H130964   5.796   5.800   3.256  0.3478  0.3852 -1.1061
 3183TIP3    H230965   5.923   5.808   3.338 -1.2971  0.1924  1.5940
 3184TIP3   OH230966   2.233   5.810  14.884 -0.3225 -0.5156  0.2932
 3184TIP3    H130967   2.285   5.730  14.874 -1.4454 -1.4652  1.8402
 3184TIP3    H230968   2.168   5.805  14.813 -0.9901 -1.4691  0.9532
 3185TIP3   OH230969   2.287   4.463  12.599 -0.2255 -0.3378  0.6385
 3185TIP3    H130970   2.215   4.403  12.617 -0.5791 -0.0794  0.0921
 3185TIP3    H230971   2.338   4.464  12.680  1.7429 -3.9910 -0.3199
 3186TIP3   OH230972   3.156   0.110   2.546 -0.0689 -0.1443 -0.0232
 3186TIP3    H130973   3.217   0.040   2.519  0.7010  0.6494 -0.3818
 3186TIP3    H230974   3.212   0.186   2.559 -1.0666  0.7467 -0.8624
 3187TIP3   OH230975   0.829   0.695  16.480  0.3976 -0.3799 -0.0025
 3187TIP3    H130976   0.792   0.771  16.524 -1.0139 -1.4074  0.6639
 3187TIP3    H230977   0.902   0.668  16.537 -0.0602 -0.4091  0.5865
 3188TIP3   OH230978   6.141   1.421   3.286  0.5033 -0.0225 -0.0268
 3188TIP3    H130979   6.060   1.449   3.331  0.7118 -0.5732  0.7250
 3188TIP3    H230980   6.206   1.414   3.356  0.2712 -3.1389  0.0533
 3189TIP3   OH230981   6.280   6.059   6.156  0.3600  0.2322 -0.2757
 3189TIP3    H130982   6.369   6.036   6.182 -0.2538 -0.7534  1.0404
 3189TIP3    H230983   6.292   6.124   6.086  2.0914  1.1451  0.7859
 3190TIP3   OH230984   2.718   4.668  15.900  0.6244  0.0874 -0.0492
 3190TIP3    H130985   2.812   4.668  15.912  0.4714  1.5408  1.4971
 3190TIP3    H230986   2.687   4.744  15.949 -1.2992 -0.0243 -0.9840
 3191TIP3   OH230987   3.070   1.210   2.569 -0.0081 -0.0459  0.1761
 3191TIP3    H130988   2.997   1.221   2.508  2.4537  0.7704 -2.9148
 3191TIP3    H230989   3.115   1.294   2.569 -0.2364  0.2422  3.8665
 3192TIP3   OH230990   6.777   2.265   4.230 -0.4897 -0.3875 -0.2945
 3192TIP3    H130991   6.802   2.353   4.200 -1.2055 -0.9900 -2.9362
 3192TIP3    H230992   6.847   2.239   4.290  0.0092  1.7648  0.1343
 3193TIP3   OH230993   1.695   1.532  15.250 -0.9755  0.4166 -0.2942
 3193TIP3    H130994   1.687   1.436  15.249  1.6054  0.1142 -0.3048
 3193TIP3    H230995   1.680   1.555  15.342  1.7957 -0.5088  0.5161
 3194TIP3   OH230996   0.080   1.572  14.714 -0.5864 -1.0841  0.1037
 3194TIP3    H130997   0.103   1.571  14.621  0.1823 -2.5825  0.2764
 3194TIP3    H230998   0.066   1.665  14.735  0.0433 -0.6517 -1.2996
 3195TIP3   OH230999   3.419   5.944  14.968 -0.1094 -0.4517  0.0853
 3195TIP3    H131000   3.354   5.978  15.030  0.4872  0.4941  0.2061
 3195TIP3    H231001   3.367   5.896  14.903 -1.0356  1.0921 -0.3563
 3196TIP3   OH231002   2.269   2.923  15.831 -1.0983  0.1914  0.3907
 3196TIP3    H131003   2.280   2.951  15.922 -1.1183 -1.9061  1.0919
 3196TIP3    H231004   2.196   2.862  15.834 -0.0114 -1.2396 -0.6957
 3197TIP3   OH231005   0.288   3.676  13.048  0.3962  0.1631  0.0001
 3197TIP3    H131006   0.378   3.665  13.079  0.6449 -0.3702 -0.8710
 3197TIP3    H231007   0.290   3.760  13.002  0.2886  0.4515  0.5169
 3198TIP3   OH231008   3.776   2.756  13.568  0.1446  0.6805  0.2126
 3198TIP3    H131009   3.712   2.826  13.554 -0.4534 -0.0908 -1.1369
 3198TIP3    H231010   3.760   2.694  13.497  1.2754 -0.3805  0.8339
 3199TIP3   OH231011   3.217   1.928  11.862 -0.5806  0.0150  0.3562
 3199TIP3    H131012   3.269   1.852  11.836  0.1403  0.0865  1.4796
 3199TIP3    H231013   3.247   1.998  11.804 -1.9988 -0.7562 -1.4003
 3200TIP3   OH231014   6.650   4.108   2.749 -0.4127 -0.5577  0.4331
 3200TIP3    H131015   6.621   4.092   2.659  0.9911 -1.4113  0.1048
 3200TIP3    H231016   6.569   4.125   2.798 -1.2612 -0.8531 -0.8336
 3201TIP3   OH231017   3.974   4.750   1.997 -0.1326  0.5087 -0.1405
 3201TIP3    H131018   4.000   4.742   1.905 -1.3411  1.6004 -0.5986
 3201TIP3    H231019   3.906   4.817   1.997  0.1386  0.8214  1.6152
 3202TIP3   OH231020   2.300   6.522   2.941 -0.3554 -0.0858  0.0343
 3202TIP3    H131021   2.333   6.610   2.924  0.5080 -0.5253 -0.6658
 3202TIP3    H231022   2.205   6.530   2.937 -0.2988  0.8935  0.4220
 3203TIP3   OH231023   0.249   5.739   0.492 -0.1332  0.5884  0.0035
 3203TIP3    H131024   0.328   5.777   0.455  0.0304 -0.0867 -0.3668
 3203TIP3    H231025   0.236   5.786   0.574 -1.0396  2.7985 -1.3165
 3204TIP3   OH231026   1.605   1.185  10.369  0.2413 -0.0253  0.2143
 3204TIP3    H131027   1.666   1.154  10.302 -0.2115  0.0877 -0.2544
 3204TIP3    H231028   1.594   1.278  10.349  0.9860  0.2799  1.1364
 3205TIP3   OH231029   1.400   6.060  14.665 -0.0001 -0.2704  0.0798
 3205TIP3    H131030   1.410   6.155  14.669 -1.9786 -0.0489  2.5116
 3205TIP3    H231031   1.486   6.025  14.689 -0.2229  1.0633  3.3215
 3206TIP3   OH231032   4.776   6.705  14.801  0.8011 -0.9155 -0.2149
 3206TIP3    H131033   4.775   6.769  14.730 -1.7864  0.0599  0.5940
 3206TIP3    H231034   4.731   6.749  14.873 -0.9890 -3.5600  0.4132
 3207TIP3   OH231035   3.800   4.710   0.983 -0.0024 -0.4825  0.3509
 3207TIP3    H131036   3.849   4.746   1.058 -1.1955  0.3186  0.7709
 3207TIP3    H231037   3.779   4.786   0.929 -0.3431 -0.8819 -0.0870
 3208TIP3   OH231038   3.290   5.445   0.354  0.2687  0.2326  0.1757
 3208TIP3    H131039   3.350   5.436   0.428  1.7325 -0.3591 -1.0252
 3208TIP3    H231040   3.289   5.539   0.336 -1.6611  0.6496  2.1287
 3209TIP3   OH231041   6.079   0.995   6.069 -0.1609 -0.1890  0.1956
 3209TIP3    H131042   6.140   1.027   6.136  0.7958 -0.3902 -0.5530
 3209TIP3    H231043   5.998   0.979   6.116  0.1132  0.8613  1.0781
 3210TIP3   OH231044   2.957   4.437   1.280 -0.6857 -0.0799  0.1525
 3210TIP3    H131045   3.022   4.472   1.341  0.5037 -1.3314 -0.3466
 3210TIP3    H231046   2.971   4.486   1.199 -1.0111  0.2948  0.3182
 3211TIP3   OH231047   6.571   3.129  12.718 -0.4463  0.4347 -0.2201
 3211TIP3    H131048   6.639   3.076  12.677 -1.7635 -1.8106  0.3549
 3211TIP3    H231049   6.584   3.217  12.682  0.4766 -0.7102 -2.9157
 3212TIP3   OH231050   5.976   3.737  13.035 -0.3131 -0.2722  0.1854
 3212TIP3    H131051   6.003   3.645  13.028 -1.2825 -0.4749 -1.3592
 3212TIP3    H231052   6.011   3.779  12.956 -1.1995  0.3168  0.0937
 3213TIP3   OH231053   3.048   0.907  11.039  0.1971 -0.0939 -0.3543
 3213TIP3    H131054   3.050   0.919  10.944  1.1204  1.2565 -0.1981
 3213TIP3    H231055   2.977   0.964  11.068  1.1950  1.0745 -0.0879
 3214TIP3   OH231056   2.406   1.978   0.714 -0.6231  0.3549  0.3806
 3214TIP3    H131057   2.461   1.969   0.792 -1.1009  0.7843  0.7740
 3214TIP3    H231058   2.427   2.064   0.678 -0.2593  0.0768 -0.0842
 3215TIP3   OH231059   6.449   6.762  13.412  0.0052 -0.3196  0.8320
 3215TIP3    H131060   6.385   6.827  13.386  0.3685 -0.9509 -1.9898
 3215TIP3    H231061   6.421   6.681  13.368  1.1227 -1.3280  1.8888
 3216TIP3   OH231062   1.580   0.440  13.205 -0.2435  0.5985  0.8449
 3216TIP3    H131063   1.578   0.379  13.279  0.3829  1.5695  1.6817
 3216TIP3    H231064   1.596   0.384  13.129 -2.1851 -0.5777  1.2404
 3217TIP3   OH231065   1.861   2.109  16.505  0.2646  0.1388 -0.3963
 3217TIP3    H131066   1.885   2.038  16.445  0.3140 -0.0653 -0.1352
 3217TIP3    H231067   1.766   2.100  16.514  0.2695  0.1132 -0.3706
 3218TIP3   OH231068   1.629   1.873   6.644 -0.0022 -0.4519  0.2881
 3218TIP3    H131069   1.715   1.871   6.686  0.4560  0.9143 -0.5309
 3218TIP3    H231070   1.596   1.961   6.658 -0.1781 -0.1843 -1.4725
 3219TIP3   OH231071   1.402   2.683  12.609 -0.0993 -0.0064 -0.5167
 3219TIP3    H131072   1.343   2.731  12.665 -0.2003 -0.1464 -0.5033
 3219TIP3    H231073   1.347   2.652  12.537 -0.4220 -1.6138  0.3698
 3220TIP3   OH231074   4.406   6.547  11.504 -0.2250 -0.3967  0.3786
 3220TIP3    H131075   4.448   6.465  11.480  0.0448 -0.0935 -0.1863
 3220TIP3    H231076   4.312   6.530  11.494 -0.1755 -0.6619  0.3620
 3221TIP3   OH231077   4.762   1.896  13.202 -0.2619  0.3519 -0.0168
 3221TIP3    H131078   4.677   1.881  13.160 -0.6932  1.2479  0.4878
 3221TIP3    H231079   4.823   1.908  13.130 -0.6203 -0.0391 -0.3875
 3222TIP3   OH231080   3.443   0.571   1.117  0.4385 -0.3897  0.3525
 3222TIP3    H131081   3.496   0.492   1.129 -0.3806 -1.0950 -0.5355
 3222TIP3    H231082   3.405   0.562   1.030 -2.0110 -0.4742  1.3505
 3223TIP3   OH231083   5.449   2.474  12.495 -0.1092  0.6731 -0.1508
 3223TIP3    H131084   5.534   2.494  12.457  0.3529  0.9590  0.9996
 3223TIP3    H231085   5.393   2.547  12.469  0.5846  1.6096  0.9022
 3224TIP3   OH231086   2.661   5.131   2.798 -0.7612 -0.2126 -0.1024
 3224TIP3    H131087   2.737   5.172   2.756 -0.9511 -0.1247 -0.3607
 3224TIP3    H231088   2.671   5.152   2.891 -0.2254 -0.5833 -0.0687
 3225TIP3   OH231089   6.475   3.591   6.099  0.2708  0.1354 -0.0851
 3225TIP3    H131090   6.449   3.501   6.120 -0.0856  0.5525  1.4064
 3225TIP3    H231091   6.420   3.646   6.156 -0.5399  1.3869 -1.9616
 3226TIP3   OH231092   3.266   4.022  16.079  0.4564  0.7234 -0.6597
 3226TIP3    H131093   3.172   4.006  16.082  0.1913  2.1143 -0.9630
 3226TIP3    H231094   3.303   3.941  16.045 -0.5806  0.0062 -0.1393
 3227TIP3   OH231095   1.614   3.207  17.131 -0.2389  0.0466 -0.5134
 3227TIP3    H131096   1.533   3.215  17.081 -3.2050 -1.1826  3.5302
 3227TIP3    H231097   1.610   3.118  17.168  2.5913  0.2436  0.4963
 3228TIP3   OH231098   1.117   0.911  10.785  0.1476 -0.4044  0.0121
 3228TIP3    H131099   1.058   0.971  10.829 -0.0404  1.0173 -2.0091
 3228TIP3    H231100   1.069   0.882  10.708  2.2454  1.4787 -2.1845
 3229TIP3   OH231101   2.992   2.444  14.161 -0.2895  0.0912 -0.4513
 3229TIP3    H131102   3.013   2.525  14.209 -1.1962 -1.1798  2.2672
 3229TIP3    H231103   3.046   2.377  14.202 -1.6502 -1.2150 -0.7216
 3230TIP3   OH231104   1.783   1.091  12.343 -0.0698 -0.5033  0.1203
 3230TIP3    H131105   1.850   1.025  12.357  2.4296  1.4597 -1.5799
 3230TIP3    H231106   1.805   1.129  12.258  1.1368  5.0062  2.4586
 3231TIP3   OH231107   5.511   6.267  15.319 -0.3663  0.2608  0.3030
 3231TIP3    H131108   5.581   6.315  15.363 -2.2644  4.2504 -0.5451
 3231TIP3    H231109   5.473   6.212  15.388  0.5996  1.6817  2.0542
 3232TIP3   OH231110   0.634   2.766   5.189 -0.3935  0.3413  0.8445
 3232TIP3    H131111   0.633   2.738   5.280 -1.7696 -0.4419  0.6072
 3232TIP3    H231112   0.665   2.857   5.192  2.0127 -0.4342  1.8211
 3233TIP3   OH231113   3.660   4.523  14.122  0.1130 -0.4554  0.3700
 3233TIP3    H131114   3.716   4.463  14.170  0.7805  0.2503  0.5019
 3233TIP3    H231115   3.686   4.610  14.153  0.0037 -0.0307 -0.6754
 3234TIP3   OH231116   5.260   5.167  14.405  0.3667 -0.5299 -0.5248
 3234TIP3    H131117   5.209   5.176  14.325 -0.8099 -2.1895 -0.0117
 3234TIP3    H231118   5.202   5.197  14.475  1.3736  0.8911 -0.2527
 3235TIP3   OH231119   4.004   2.631   2.336 -0.0217 -0.1355  0.0969
 3235TIP3    H131120   4.087   2.609   2.379 -1.0778 -0.6761  1.9724
 3235TIP3    H231121   4.001   2.574   2.259  1.3306 -0.1224  0.0076
 3236TIP3   OH231122   1.440   4.928  13.540  0.3339 -0.3213  0.7550
 3236TIP3    H131123   1.525   4.956  13.505  0.1643 -0.3552  0.3177
 3236TIP3    H231124   1.411   5.002  13.594  0.6634 -0.3302  0.9474
 3237TIP3   OH231125   0.002   0.541  13.051 -0.3344 -0.2175 -0.2376
 3237TIP3    H131126   0.049   0.504  13.126  0.2745 -1.1704 -1.0683
 3237TIP3    H231127  -0.089   0.544  13.079 -0.3430 -1.9583  0.0389
 3238TIP3   OH231128   5.843   4.119   1.860  0.5659  0.7268  0.6116
 3238TIP3    H131129   5.869   4.067   1.936  0.6323  1.6557  1.2394
 3238TIP3    H231130   5.751   4.138   1.875  0.6675  1.2025  0.6294
 3239TIP3   OH231131   4.011   6.055  10.824  0.3993  0.5085  0.0810
 3239TIP3    H131132   3.947   5.985  10.831  0.1046  0.5349 -1.8447
 3239TIP3    H231133   4.092   6.018  10.859 -0.1760 -0.2082  0.6606
 3240TIP3   OH231134   4.886   1.818  16.193  0.0397  0.0864 -0.2231
 3240TIP3    H131135   4.893   1.913  16.192 -1.0795  0.1780 -1.5416
 3240TIP3    H231136   4.819   1.797  16.128  0.8346 -1.6572 -0.5610
 3241TIP3   OH231137   3.997   1.450  15.366 -0.6092  0.0650  0.2010
 3241TIP3    H131138   3.939   1.525  15.381 -1.1433 -0.2888 -0.0594
 3241TIP3    H231139   4.009   1.411  15.452  0.2435  0.8515  0.4550
 3242TIP3   OH231140   6.285   0.059   1.124  0.2592  1.0018 -0.3140
 3242TIP3    H131141   6.290  -0.022   1.174  0.1948  1.1687 -0.0349
 3242TIP3    H231142   6.375   0.076   1.095  0.4330  1.2966  0.3730
 3243TIP3   OH231143   4.714   6.068  15.656 -0.2094  0.1811  0.4750
 3243TIP3    H131144   4.784   6.097  15.598 -0.2201  1.2742  0.9933
 3243TIP3    H231145   4.758   6.051  15.740 -0.6314  1.4903  0.9906
 3244TIP3   OH231146   2.308   1.931  15.316 -0.2255 -0.4839  0.2373
 3244TIP3    H131147   2.234   1.983  15.348  1.4688  1.5956  1.0006
 3244TIP3    H231148   2.324   1.964  15.228  2.0151  1.8229  1.3699
 3245TIP3   OH231149   4.485   4.873  16.353  0.0568  0.0006  0.0752
 3245TIP3    H131150   4.518   4.787  16.326 -0.2580 -0.7702  2.0094
 3245TIP3    H231151   4.558   4.932  16.335  0.8875 -0.9479  0.2165
 3246TIP3   OH231152   5.607   5.997  14.224 -0.2563 -0.4268 -0.1467
 3246TIP3    H131153   5.641   5.938  14.291  0.4970  0.0495 -0.0845
 3246TIP3    H231154   5.520   5.964  14.204 -0.4845 -0.5993  1.0480
 3247TIP3   OH231155   4.636   5.992   1.906  0.2469  0.3317 -0.3122
 3247TIP3    H131156   4.668   6.059   1.846 -1.4060  1.8720  0.4544
 3247TIP3    H231157   4.654   6.027   1.994 -0.3621 -0.3533  0.0985
 3248TIP3   OH231158   2.544   3.209  16.554 -0.2604 -0.5516  0.1671
 3248TIP3    H131159   2.623   3.156  16.566  1.8968  2.6152  1.3033
 3248TIP3    H231160   2.532   3.211  16.459  2.0275  0.1318 -0.1763
 3249TIP3   OH231161   6.371   4.666  14.898  0.8978  0.0417  0.2051
 3249TIP3    H131162   6.404   4.681  14.809 -0.3109 -1.4022 -0.5268
 3249TIP3    H231163   6.285   4.626  14.886  0.0849  1.0948  2.0563
 3250TIP3   OH231164   0.823   0.102  10.682  0.5322  0.3098 -0.6542
 3250TIP3    H131165   0.859   0.095  10.594  2.1134  1.3455 -0.1506
 3250TIP3    H231166   0.874   0.038  10.733  0.7369  0.8346 -0.1933
 3251TIP3   OH231167   3.335   3.269   1.862  0.2946  0.3862  0.3523
 3251TIP3    H131168   3.364   3.199   1.920 -0.4369 -1.2317 -1.1556
 3251TIP3    H231169   3.389   3.260   1.784 -0.8278  0.4899 -0.4732
 3252TIP3   OH231170   6.078   1.059   5.042 -0.2022 -0.4040  0.7747
 3252TIP3    H131171   6.146   1.016   5.094  0.3575 -0.0431  0.3497
 3252TIP3    H231172   6.045   1.128   5.100 -0.7004 -1.0232  1.2413
 3253TIP3   OH231173   1.307   3.889   4.246 -0.0689  0.1396  0.1941
 3253TIP3    H131174   1.291   3.846   4.330  0.0821  1.1642  0.7602
 3253TIP3    H231175   1.365   3.962   4.267  1.0609 -0.3753 -1.0153
 3254TIP3   OH231176   2.420   4.792   0.284 -0.0925 -0.0534  0.0004
 3254TIP3    H131177   2.497   4.783   0.340 -1.2405  2.2110  2.1666
 3254TIP3    H231178   2.346   4.786   0.344 -1.4808  0.5740 -1.5733
 3255TIP3   OH231179   1.603   2.754  14.236  0.3136 -0.0861 -0.0048
 3255TIP3    H131180   1.516   2.793  14.238 -0.5271 -1.8845  0.2197
 3255TIP3    H231181   1.653   2.810  14.176 -1.7535 -0.5464 -2.3020
 3256TIP3   OH231182   1.995   6.396   1.101 -0.1606  0.0087 -0.3423
 3256TIP3    H131183   1.999   6.358   1.014  1.4907  0.1794 -0.3786
 3256TIP3    H231184   2.068   6.355   1.149 -0.9869 -0.0355  0.9363
 3257TIP3   OH231185   4.740   3.903   2.498 -0.1263 -0.0676 -0.5385
 3257TIP3    H131186   4.717   3.835   2.435 -0.0613 -1.1969  0.6156
 3257TIP3    H231187   4.707   3.870   2.582  2.7712 -0.2517  0.6356
 3258TIP3   OH231188   5.194   2.312  12.709 -0.2585 -0.2772 -1.0027
 3258TIP3    H131189   5.153   2.345  12.628 -3.1632  0.8747  0.7644
 3258TIP3    H231190   5.127   2.326  12.776  2.1129 -0.9870  1.6689
 3259TIP3   OH231191   5.541   6.584  12.503  0.3751  0.3264  0.2394
 3259TIP3    H131192   5.500   6.651  12.449  0.2273 -0.2096 -0.3342
 3259TIP3    H231193   5.517   6.501  12.460 -0.7229 -0.2011  1.7652
 3260TIP3   OH231194   0.593   0.238   6.286  0.4774 -0.0122 -0.1681
 3260TIP3    H131195   0.576   0.147   6.311 -0.0640  0.0505 -0.2893
 3260TIP3    H231196   0.660   0.268   6.348  2.1685 -1.0970 -1.3971
 3261TIP3   OH231197   1.333   4.188  15.575 -0.3478  0.0937 -0.3860
 3261TIP3    H131198   1.313   4.237  15.495 -0.8900  1.8311  0.7421
 3261TIP3    H231199   1.305   4.246  15.646  1.1991 -0.8704  1.1041
 3262TIP3   OH231200   4.591   2.564  14.078  0.4934  0.8025  0.3591
 3262TIP3    H131201   4.669   2.516  14.050  0.0207  0.6090 -0.6786
 3262TIP3    H231202   4.581   2.633  14.012 -0.8140  0.1604 -0.1442
 3263TIP3   OH231203   5.094   1.704   2.517 -0.1394  0.5316 -0.2644
 3263TIP3    H131204   5.062   1.614   2.516 -2.0328  1.1526 -1.3535
 3263TIP3    H231205   5.074   1.735   2.606 -1.2077  0.4027 -0.4401
 3264TIP3   OH231206   3.020   2.790   3.863  0.2761 -0.3610 -0.4364
 3264TIP3    H131207   3.040   2.736   3.786  1.3722 -0.4509 -0.1068
 3264TIP3    H231208   3.091   2.771   3.924  0.6022  1.3675 -0.2496
 3265TIP3   OH231209   6.731   6.409  12.111 -0.3875 -0.1971  0.2389
 3265TIP3    H131210   6.781   6.349  12.167 -0.8291  0.7818  1.7381
 3265TIP3    H231211   6.647   6.365  12.098 -0.2249 -0.5006  0.1883
 3266TIP3   OH231212   4.724   0.143   1.653  0.2691  0.6302  0.4757
 3266TIP3    H131213   4.807   0.099   1.638  0.8800  1.6774  0.7079
 3266TIP3    H231214   4.681   0.091   1.722  1.3609  0.8972  1.3786
 3267TIP3   OH231215   0.191   5.684   4.387 -0.1880  0.0535  0.2938
 3267TIP3    H131216   0.190   5.626   4.464 -2.1090 -0.3883 -0.0299
 3267TIP3    H231217   0.155   5.631   4.316  0.9882  0.6585 -0.7921
 3268TIP3   OH231218   2.974   5.535  12.217  0.6412 -0.5053  0.4385
 3268TIP3    H131219   2.969   5.527  12.312 -0.0508  2.4838  0.7358
 3268TIP3    H231220   2.885   5.519  12.186  0.5221  0.1390  0.4512
 3269TIP3   OH231221   1.179   1.801   0.277  0.2237  0.1989  0.2844
 3269TIP3    H131222   1.180   1.706   0.279 -2.0739  0.1289  0.6119
 3269TIP3    H231223   1.197   1.828   0.367  0.2743  0.0622  0.3144
 3270TIP3   OH231224   6.484   5.141  13.581 -0.8246 -0.3412 -0.1290
 3270TIP3    H131225   6.425   5.214  13.560 -0.0567  0.0283 -1.0334
 3270TIP3    H231226   6.471   5.079  13.510 -0.2453 -0.3380 -0.2348
 3271TIP3   OH231227   6.278   6.065  15.484  0.1356 -0.5300 -0.2913
 3271TIP3    H131228   6.332   6.144  15.494 -1.7402  1.2046 -2.6917
 3271TIP3    H231229   6.189   6.095  15.498 -0.7685 -1.8799 -2.5969
 3272TIP3   OH231230   5.082   3.687   1.233  0.1612  0.7192  0.3380
 3272TIP3    H131231   5.003   3.656   1.191  0.8239  1.7562 -1.8339
 3272TIP3    H231232   5.108   3.616   1.292 -2.8205  0.7380  1.8232
 3273TIP3   OH231233   4.442   3.537  15.219  0.1631  0.2635 -0.2654
 3273TIP3    H131234   4.438   3.592  15.297  1.2648  2.7754 -1.8632
 3273TIP3    H231235   4.376   3.468  15.235 -0.3684  1.2711  2.3806
 3274TIP3   OH231236   2.128   5.483  10.513 -0.1233 -0.1057  0.2589
 3274TIP3    H131237   2.037   5.486  10.484 -0.3043  2.5822  0.8969
 3274TIP3    H231238   2.176   5.536  10.450  0.7807 -0.4335  0.6482
 3275TIP3   OH231239   0.528   0.381   5.866  0.2507 -0.6384 -0.1592
 3275TIP3    H131240   0.606   0.362   5.814  0.1638  0.1193 -0.5702
 3275TIP3    H231241   0.556   0.367   5.956  0.3775 -2.0406 -0.3899
 3276TIP3   OH231242   0.307   6.697  12.075 -0.0341 -0.0279 -0.3737
 3276TIP3    H131243   0.325   6.790  12.061  0.1041  0.2269  1.3172
 3276TIP3    H231244   0.271   6.667  11.992  3.9772  0.4652 -2.5890
 3277TIP3   OH231245   0.062   2.637  16.876  0.3638  0.2726 -0.2088
 3277TIP3    H131246   0.039   2.716  16.826 -0.0278  1.2648  1.4511
 3277TIP3    H231247   0.151   2.654  16.906  1.1588 -0.9716 -1.7335
 3278TIP3   OH231248   2.171   1.671   1.290 -0.2277 -0.4522  0.1330
 3278TIP3    H131249   2.077   1.659   1.284 -0.0441 -1.6382 -0.8325
 3278TIP3    H231250   2.208   1.593   1.247  1.1518  1.4531 -2.4225
 3279TIP3   OH231251   3.279   0.594   1.511  0.2315 -0.9529 -0.2161
 3279TIP3    H131252   3.373   0.581   1.522  0.5950  0.1221 -1.7365
 3279TIP3    H231253   3.253   0.646   1.587  1.0960 -0.3178 -0.3352
 3280TIP3   OH231254   1.321   6.659  15.780  0.2899 -0.0190 -0.5935
 3280TIP3    H131255   1.262   6.629  15.710  0.4978 -1.9609  0.0232
 3280TIP3    H231256   1.277   6.736  15.816 -0.7905 -0.1469 -1.5615
 3281TIP3   OH231257   4.904   1.753   3.520  0.0702  0.5418  0.2180
 3281TIP3    H131258   4.988   1.710   3.528 -0.4826 -0.7906 -0.7625
 3281TIP3    H231259   4.904   1.819   3.589  1.7120  0.2552  0.5337
 3282TIP3   OH231260   3.548   6.074  17.148 -0.6042  0.3121  0.2433
 3282TIP3    H131261   3.550   5.981  17.125 -0.8222 -0.4524  3.0295
 3282TIP3    H231262   3.456   6.092  17.168 -0.2492  0.5783  1.6929
 3283TIP3   OH231263   6.167   3.489   3.518 -0.1013 -0.1086  0.3973
 3283TIP3    H131264   6.202   3.491   3.608 -0.4682 -0.0350  0.5401
 3283TIP3    H231265   6.217   3.420   3.475  0.2160 -0.0098  0.6041
 3284TIP3   OH231266   5.927   6.433   2.610  0.6264  0.0130  0.4344
 3284TIP3    H131267   5.946   6.481   2.530  0.8190 -0.8952 -0.0707
 3284TIP3    H231268   5.886   6.352   2.581  0.3791 -0.1751  1.2755
 3285TIP3   OH231269   6.213   1.499  14.907  0.3089  0.3867 -0.8479
 3285TIP3    H131270   6.175   1.417  14.878  1.1225  0.0757 -1.0618
 3285TIP3    H231271   6.303   1.477  14.931  0.9306  1.4325 -2.0964
 3286TIP3   OH231272   6.660   2.155  13.196  0.4931  0.3503  0.2062
 3286TIP3    H131273   6.569   2.152  13.168  0.5537  1.4207 -0.1630
 3286TIP3    H231274   6.706   2.097  13.135 -0.0286 -0.7036  0.7981
 3287TIP3   OH231275   5.191   1.497   1.717 -0.6356 -0.0248 -0.2833
 3287TIP3    H131276   5.190   1.441   1.795 -0.7246 -0.3225 -0.4957
 3287TIP3    H231277   5.114   1.553   1.727  1.5925  3.0094  2.0216
 3288TIP3   OH231278   4.478   2.729  12.148  0.1804 -0.0571  0.3281
 3288TIP3    H131279   4.431   2.690  12.223 -0.9912  0.7680  0.0587
 3288TIP3    H231280   4.555   2.770  12.187  0.0034 -0.3212  0.9806
 3289TIP3   OH231281   4.688   2.905   4.058  0.8054  0.1501 -0.1978
 3289TIP3    H131282   4.597   2.921   4.083  1.4559  0.7364  2.0251
 3289TIP3    H231283   4.684   2.886   3.965 -1.8681 -2.1046  0.2331
 3290TIP3   OH231284   2.542   4.377  15.558 -0.5630 -0.2174 -0.6373
 3290TIP3    H131285   2.509   4.463  15.583 -1.2195 -0.4854 -0.5829
 3290TIP3    H231286   2.610   4.358  15.622 -1.7837 -0.6145  0.5800
 3291TIP3   OH231287   1.131   0.996   5.263 -0.2222 -0.1440 -0.5854
 3291TIP3    H131288   1.172   1.076   5.230  4.2157 -0.7464  2.5396
 3291TIP3    H231289   1.061   1.028   5.320  0.6098  1.4875 -0.3907
 3292TIP3   OH231290   2.968   3.672  13.413  0.4494 -0.0125  0.0995
 3292TIP3    H131291   3.059   3.642  13.418  1.1238  1.9268  0.3935
 3292TIP3    H231292   2.922   3.619  13.478  1.1402 -1.6488 -0.6739
 3293TIP3   OH231293   1.962   1.788   0.785  0.0670 -0.0339  0.3368
 3293TIP3    H131294   1.909   1.723   0.738  0.2197 -0.1353  0.3058
 3293TIP3    H231295   1.930   1.872   0.753  0.8896 -0.1170 -0.7453
 3294TIP3   OH231296   2.403   5.374   0.665 -0.1499 -0.2778  0.2639
 3294TIP3    H131297   2.497   5.356   0.667  0.1437  1.1512  0.1762
 3294TIP3    H231298   2.393   5.444   0.600 -1.4077 -1.0679 -0.4336
 3295TIP3   OH231299   4.311   3.237   2.827  0.3948  0.0079 -0.2183
 3295TIP3    H131300   4.354   3.236   2.913 -2.7480  1.0800  1.5119
 3295TIP3    H231301   4.357   3.304   2.778  1.1683  0.6220  1.2782
 3296TIP3   OH231302   4.966   5.418  11.759 -0.2735 -0.3708 -0.0793
 3296TIP3    H131303   5.004   5.504  11.743  0.9632 -0.9723 -0.5829
 3296TIP3    H231304   4.987   5.399  11.851 -1.3957  0.2388  0.3292
 3297TIP3   OH231305   6.130   0.871   0.563  0.4141 -0.0822 -0.1094
 3297TIP3    H131306   6.199   0.818   0.603  0.4014 -0.6668 -0.8248
 3297TIP3    H231307   6.050   0.848   0.611  0.8714  1.4532  1.4944
 3298TIP3   OH231308   1.794   5.647  12.368 -0.6112  0.7241 -0.2147
 3298TIP3    H131309   1.859   5.631  12.437 -0.3828  1.6905 -0.1917
 3298TIP3    H231310   1.763   5.559  12.344  0.4902  0.2636 -0.0307
 3299TIP3   OH231311   1.969   5.543   3.169  0.0633 -0.0484 -0.4245
 3299TIP3    H131312   1.889   5.506   3.133  1.5102 -1.1351 -2.7229
 3299TIP3    H231313   1.945   5.633   3.191 -2.0952 -0.7048  0.1885
 3300TIP3   OH231314   0.708   0.998  13.148 -0.3932  0.2959 -0.0606
 3300TIP3    H131315   0.660   1.008  13.066  0.3102  0.2464 -0.4907
 3300TIP3    H231316   0.679   1.072  13.202 -1.2211  0.0544 -0.1630
 3301TIP3   OH231317   5.639   3.410   6.031  0.0361  0.2711 -0.0732
 3301TIP3    H131318   5.608   3.488   5.986  1.7169  1.1165  0.1484
 3301TIP3    H231319   5.669   3.442   6.116 -0.5012 -0.8528  0.5628
 3302TIP3   OH231320   4.830   5.418  15.544 -0.2084  0.1402 -0.4494
 3302TIP3    H131321   4.742   5.383  15.553 -0.3255  0.7416  1.0798
 3302TIP3    H231322   4.869   5.406  15.631  1.0817  0.2576 -0.9879
 3303TIP3   OH231323   5.372   0.457   4.305  0.4459 -0.4126 -0.0632
 3303TIP3    H131324   5.278   0.441   4.303  0.5894 -1.3520  0.3830
 3303TIP3    H231325   5.411   0.370   4.311  1.3341 -0.0139  0.0118
 3304TIP3   OH231326   5.519   3.128  16.972  0.1309 -0.4553  0.1086
 3304TIP3    H131327   5.527   3.048  17.024 -1.5455 -0.3534  0.5937
 3304TIP3    H231328   5.539   3.102  16.883 -2.1277 -1.8699 -0.0576
 3305TIP3   OH231329   4.613   3.138   4.872 -0.0281  0.0025 -0.7308
 3305TIP3    H131330   4.535   3.094   4.837  0.2950 -3.6390  2.4632
 3305TIP3    H231331   4.583   3.178   4.954  1.2009 -0.4279 -0.0544
 3306TIP3   OH231332   0.107   1.653   5.681  0.3547 -0.2559  0.3371
 3306TIP3    H131333   0.036   1.660   5.618  0.9903 -0.1154 -0.3843
 3306TIP3    H231334   0.164   1.585   5.645  1.1827  0.4485  0.2916
 3307TIP3   OH231335   3.928   1.705  16.147 -0.1935  0.2535 -0.4234
 3307TIP3    H131336   3.962   1.658  16.223 -0.2312  0.0448 -0.5325
 3307TIP3    H231337   3.836   1.723  16.169 -0.5206 -0.7855 -0.8697
 3308TIP3   OH231338   1.232   3.561   2.817  0.0428 -0.6353  0.3253
 3308TIP3    H131339   1.272   3.563   2.903  0.0489  0.1568  0.3056
 3308TIP3    H231340   1.304   3.541   2.757 -0.0885 -1.9267  0.5646
 3309TIP3   OH231341   1.564   6.635   4.051  0.0087  0.1659  0.3462
 3309TIP3    H131342   1.580   6.713   3.998  1.1982 -0.5455 -0.3790
 3309TIP3    H231343   1.468   6.631   4.058 -0.1743  0.4445 -1.5022
 3310TIP3   OH231344   2.819   2.052   0.914 -0.4790 -0.2663 -0.1311
 3310TIP3    H131345   2.748   2.054   0.979 -0.8249 -0.5663 -0.4928
 3310TIP3    H231346   2.776   2.024   0.833  0.0762 -0.5485 -0.3319
 3311TIP3   OH231347   1.901   1.210  14.502 -0.0511  0.3676 -0.1117
 3311TIP3    H131348   1.939   1.251  14.580  1.3037 -0.6807 -0.1701
 3311TIP3    H231349   1.812   1.186  14.527 -0.8962  3.2355 -0.0673
 3312TIP3   OH231350   5.491   2.908  13.618  0.6952 -0.1009  0.2597
 3312TIP3    H131351   5.523   2.840  13.559 -0.4463 -1.1041  0.7289
 3312TIP3    H231352   5.545   2.899  13.697  3.4848  2.4608 -1.1740
 3313TIP3   OH231353   1.525   6.391  16.533  0.7460  0.8526 -0.7292
 3313TIP3    H131354   1.542   6.357  16.445 -1.7890 -0.0403 -0.9541
 3313TIP3    H231355   1.460   6.460  16.521  0.8798  1.1978  0.3694
 3314TIP3   OH231356   1.993   1.752   4.384 -0.1706  0.4456 -0.2192
 3314TIP3    H131357   2.050   1.767   4.459  0.6728  0.7689 -0.9056
 3314TIP3    H231358   1.904   1.764   4.418  0.1628  0.0118  0.8491
 3315TIP3   OH231359   3.269   2.076   0.528  0.3708  0.8962 -0.0931
 3315TIP3    H131360   3.181   2.062   0.495  0.3308  1.9172 -0.4351
 3315TIP3    H231361   3.258   2.087   0.623  0.1591  0.8204 -0.1085
 3316TIP3   OH231362   4.138   0.388   1.374  0.0966 -0.1180 -0.5268
 3316TIP3    H131363   4.148   0.395   1.469 -2.7375 -0.8748 -0.0719
 3316TIP3    H231364   4.184   0.307   1.351 -0.2001 -0.5626  0.4051
 3317TIP3   OH231365   5.012   1.659  12.820 -0.7128  0.5251 -0.1613
 3317TIP3    H131366   5.063   1.633  12.897 -2.3713 -2.6064  0.0641
 3317TIP3    H231367   4.978   1.746  12.842  0.1359  0.3733  1.9924
 3318TIP3   OH231368   5.435   3.975   1.952 -0.3472 -0.3285  0.0334
 3318TIP3    H131369   5.386   4.025   1.886 -0.2475 -0.1418  0.1026
 3318TIP3    H231370   5.488   3.914   1.900  0.3149  0.3405 -0.0910
 3319TIP3   OH231371   1.594   4.317   2.482  0.0330 -0.6310  0.7638
 3319TIP3    H131372   1.593   4.408   2.513  0.3129 -0.3404 -0.0644
 3319TIP3    H231373   1.592   4.324   2.387 -0.7235 -1.5149  0.7038
 3320TIP3   OH231374   6.613   5.189  17.231 -0.0311 -0.4447 -0.7627
 3320TIP3    H131375   6.683   5.232  17.182  1.5779 -1.5781  0.4238
 3320TIP3    H231376   6.596   5.108  17.182  0.3634 -0.7571 -0.3850
 3321TIP3   OH231377   5.177   5.472   5.918 -0.1655  0.0545  0.7105
 3321TIP3    H131378   5.194   5.406   5.985  0.5009  1.2390  1.7510
 3321TIP3    H231379   5.263   5.501   5.890 -0.4292 -0.4670 -0.7523
 3322TIP3   OH231380   2.403   1.171  15.327 -0.6915 -0.5440 -0.2461
 3322TIP3    H131381   2.460   1.242  15.357  0.5035 -1.2370 -0.7718
 3322TIP3    H231382   2.316   1.209  15.325 -0.3087  0.4733  0.8944
 3323TIP3   OH231383   4.716   0.513   3.695  0.5736  0.4993 -0.4682
 3323TIP3    H131384   4.794   0.545   3.741  0.1892  1.6049 -0.5497
 3323TIP3    H231385   4.679   0.591   3.655 -1.1848  0.1807  0.4675
 3324TIP3   OH231386   2.801   4.114  13.428  0.5217  0.5284  0.4744
 3324TIP3    H131387   2.895   4.096  13.430  0.6241  0.7171 -1.1576
 3324TIP3    H231388   2.796   4.209  13.416  0.1701  0.3855 -0.6499
 3325TIP3   OH231389   3.919   3.230   2.223  0.3141 -0.5064  0.1451
 3325TIP3    H131390   4.001   3.193   2.257  0.4649 -0.6899 -0.4078
 3325TIP3    H231391   3.947   3.300   2.163  0.0394  0.3496  0.9771
 3326TIP3   OH231392   1.569   2.485   0.733  0.1129  0.6222  0.1625
 3326TIP3    H131393   1.562   2.493   0.828  0.4784  0.7663  0.1815
 3326TIP3    H231394   1.658   2.515   0.713  0.9840 -1.8399  0.0403
 3327TIP3   OH231395   3.121   3.170  12.530  0.1572 -0.3436  0.5975
 3327TIP3    H131396   3.115   3.259  12.496 -0.0227 -0.3497  0.6121
 3327TIP3    H231397   3.159   3.179  12.617  1.2478 -0.3851  0.1323
 3328TIP3   OH231398   0.128   3.996  11.645  0.2117  0.0600  0.0022
 3328TIP3    H131399   0.171   4.074  11.608 -0.2963  0.3220 -0.0437
 3328TIP3    H231400   0.198   3.951  11.692  0.9999 -0.5833 -1.7271
 3329TIP3   OH231401   3.476   4.045  11.540  0.0762  0.3798 -0.6471
 3329TIP3    H131402   3.479   4.141  11.544 -2.1735  0.5485 -1.1860
 3329TIP3    H231403   3.448   4.019  11.627  0.9957  0.1714 -0.4076
 3330TIP3   OH231404   4.330   5.202  14.918 -0.0765 -0.3080  0.0743
 3330TIP3    H131405   4.295   5.217  15.005 -0.8245 -0.3063 -0.2179
 3330TIP3    H231406   4.271   5.136  14.879 -0.8810  1.0356 -1.0834
 3331TIP3   OH231407   1.481   4.015   1.561  0.1742 -0.5065 -0.1435
 3331TIP3    H131408   1.469   3.988   1.470  1.2188 -1.2531 -0.0806
 3331TIP3    H231409   1.562   3.972   1.588 -0.5580 -1.0001  1.4069
 3332TIP3   OH231410   4.999   0.466  17.014  0.7281 -0.0630 -0.6062
 3332TIP3    H131411   5.035   0.522  16.945  1.5580 -0.4792 -0.5150
 3332TIP3    H231412   4.907   0.453  16.988  0.2407  2.0994 -0.1186
 3333TIP3   OH231413   0.621   0.034   3.202 -0.3634  0.0881  0.4014
 3333TIP3    H131414   0.532   0.058   3.177 -0.5496  0.8815  1.7238
 3333TIP3    H231415   0.616   0.019   3.297  1.0189  0.6862  0.5983
 3334TIP3   OH231416   3.919   4.992   3.517  0.2629  0.4464 -0.1171
 3334TIP3    H131417   3.827   4.974   3.497  0.6895 -1.2766 -0.6765
 3334TIP3    H231418   3.966   4.968   3.438  1.1670  2.0093 -0.0944
 3335TIP3   OH231419   5.767   3.634   5.157  0.9668  0.2401  0.5062
 3335TIP3    H131420   5.715   3.705   5.194 -0.5893 -0.6069  0.0133
 3335TIP3    H231421   5.761   3.563   5.222  0.2624 -0.3771 -0.2121
 3336TIP3   OH231422   3.947   5.770  12.358  0.0260 -0.1650  0.3598
 3336TIP3    H131423   3.919   5.704  12.422 -0.7364 -0.3937 -0.1967
 3336TIP3    H231424   3.951   5.722  12.275 -0.0444  0.3777  0.0417
 3337TIP3   OH231425   2.389   2.048  11.309  0.0587  0.3521 -0.0165
 3337TIP3    H131426   2.436   2.094  11.239  0.0132  1.0782  0.4191
 3337TIP3    H231427   2.453   1.985  11.342  0.7785  1.3770  0.6192
 3338TIP3   OH231428   2.862   1.812   0.256  0.8465 -0.2278  0.2675
 3338TIP3    H131429   2.843   1.735   0.310  0.3525 -0.2937 -0.0010
 3338TIP3    H231430   2.791   1.815   0.192  2.1314 -0.9435 -1.2709
 3339TIP3   OH231431   3.012   2.941  16.822 -0.0553 -0.1785 -0.1011
 3339TIP3    H131432   3.084   2.999  16.845 -1.0135  0.9267  0.2273
 3339TIP3    H231433   2.983   2.904  16.905 -1.0939  0.8945  0.0403
 3340TIP3   OH231434   2.308   1.040  10.664  0.1084 -0.4969 -0.1122
 3340TIP3    H131435   2.364   1.048  10.587  0.1794  2.1901  0.1217
 3340TIP3    H231436   2.366   1.008  10.734  0.3476 -1.6529 -0.8125
 3341TIP3   OH231437   2.372   0.074  15.599 -0.2255 -0.0657 -0.0378
 3341TIP3    H131438   2.465   0.052  15.602 -0.3275 -0.7261 -1.1832
 3341TIP3    H231439   2.336   0.038  15.680  0.6339  0.8495  0.7775
 3342TIP3   OH231440   4.123   2.896   6.200  0.6490  0.1740  0.2222
 3342TIP3    H131441   4.154   2.810   6.228 -0.0187 -0.8288 -1.9284
 3342TIP3    H231442   4.033   2.901   6.234  0.4341 -0.2939 -0.2785
 3343TIP3   OH231443   0.624   6.782  12.225  0.0434 -0.0199 -0.1523
 3343TIP3    H131444   0.641   6.755  12.135 -1.1637 -1.4073  0.0108
 3343TIP3    H231445   0.529   6.787  12.232  0.0035 -1.9408  1.5704
 3344TIP3   OH231446   2.181   2.198   1.450  0.6763  0.2781  0.0629
 3344TIP3    H131447   2.129   2.147   1.512  0.3686  1.4914  0.8339
 3344TIP3    H231448   2.184   2.286   1.487  1.8445  0.6556 -0.8408
 3345TIP3   OH231449   5.086   4.807  11.676  0.0234  0.4049  0.1027
 3345TIP3    H131450   5.065   4.714  11.679  0.0919  0.4172  1.4133
 3345TIP3    H231451   5.182   4.810  11.668 -0.0230  0.3745 -0.5430
 3346TIP3   OH231452   1.229   3.181  13.423  0.4409 -0.3262  0.6023
 3346TIP3    H131453   1.245   3.259  13.370 -0.2358 -1.1364 -0.8470
 3346TIP3    H231454   1.294   3.118  13.393 -0.5443 -1.1040  0.0580
 3347TIP3   OH231455   4.179   1.292   3.054 -0.6616 -0.3417 -0.1179
 3347TIP3    H131456   4.253   1.346   3.028  0.0969 -1.4737 -0.3808
 3347TIP3    H231457   4.104   1.327   3.005  0.1345 -0.5376 -1.4963
 3348TIP3   OH231458   3.314   3.444   6.216  0.5611 -0.0164 -0.1295
 3348TIP3    H131459   3.287   3.360   6.255  2.2922 -0.0582  1.0964
 3348TIP3    H231460   3.359   3.489   6.287 -0.9255  2.2926 -0.5550
 3349TIP3   OH231461   5.612   4.687   2.680  0.0596  0.0260  0.2325
 3349TIP3    H131462   5.640   4.598   2.659  0.3050  0.5081 -1.6051
 3349TIP3    H231463   5.632   4.696   2.773  1.2206 -1.4060  0.1620
 3350TIP3   OH231464   3.887   2.900   1.545  0.3420  0.0123  0.1061
 3350TIP3    H131465   3.923   2.978   1.504  2.2598 -0.3897  0.9111
 3350TIP3    H231466   3.845   2.852   1.473 -0.1569  1.3755 -0.5334
 3351TIP3   OH231467   1.199   1.295  15.547 -0.0462 -0.4928 -0.0690
 3351TIP3    H131468   1.287   1.285  15.512 -0.8752 -1.6242 -2.0222
 3351TIP3    H231469   1.141   1.276  15.473 -1.9400 -0.2511  1.2584
 3352TIP3   OH231470   2.620   0.605   5.901 -0.0826  0.4101 -0.3733
 3352TIP3    H131471   2.708   0.581   5.929 -0.6780 -0.4289  0.9507
 3352TIP3    H231472   2.571   0.612   5.983 -1.2610  0.7824 -1.0867
 3353TIP3   OH231473   1.365   1.346   4.889 -0.5021  0.3898 -0.5068
 3353TIP3    H131474   1.280   1.308   4.910 -0.1653  0.3551  0.9558
 3353TIP3    H231475   1.426   1.301   4.947  0.4549  0.7044 -1.2412
 3354TIP3   OH231476   3.456   5.933   4.616 -0.0077  0.3124  0.0984
 3354TIP3    H131477   3.442   5.873   4.542 -1.2374  0.4891  0.1599
 3354TIP3    H231478   3.497   5.879   4.683 -2.9076 -1.0887  0.9145
 3355TIP3   OH231479   4.355   6.132  10.908  0.4017 -0.2626  0.7269
 3355TIP3    H131480   4.449   6.129  10.927  0.2876 -1.1943  1.2278
 3355TIP3    H231481   4.335   6.225  10.897  1.8421 -0.1715 -1.7853
 3356TIP3   OH231482   3.105   6.678  13.901  0.3919 -0.2550  0.4661
 3356TIP3    H131483   3.039   6.743  13.879 -1.2315 -1.9661 -0.0367
 3356TIP3    H231484   3.171   6.687  13.833  1.8799  2.8992  2.1319
 3357TIP3   OH231485   0.737   5.543   0.366  0.0549  0.1854  0.1873
 3357TIP3    H131486   0.831   5.528   0.374  0.5351  1.8062 -1.7052
 3357TIP3    H231487   0.699   5.455   0.366  1.4791 -0.4756  1.6509
 3358TIP3   OH231488   3.424   6.738   1.447 -0.0005  0.0468 -0.0817
 3358TIP3    H131489   3.338   6.713   1.414  0.4927  0.8122 -2.0853
 3358TIP3    H231490   3.410   6.823   1.488 -0.2234  0.1176 -0.3042
 3359TIP3   OH231491   2.033   1.043  11.949  0.0821  0.4093  0.2850
 3359TIP3    H131492   2.125   1.062  11.966  0.2024 -0.0993  0.2456
 3359TIP3    H231493   2.033   1.003  11.862 -0.3414  1.6150 -0.2864
 3360TIP3   OH231494   6.142   6.641   1.363  0.6532  0.0655 -0.1496
 3360TIP3    H131495   6.049   6.664   1.360  0.6747  0.0970 -0.9203
 3360TIP3    H231496   6.143   6.547   1.378  0.5305  0.2520  1.1450
 3361TIP3   OH231497   5.326   4.543   1.279 -0.2393  0.8507  0.3287
 3361TIP3    H131498   5.244   4.554   1.230 -0.4884 -0.8940  0.2974
 3361TIP3    H231499   5.307   4.472   1.341  0.7526  1.5464  1.4601
 3362TIP3   OH231500   6.416   2.202  13.655  0.4140  0.1361  0.0561
 3362TIP3    H131501   6.487   2.142  13.676 -0.0996 -0.8128 -0.8539
 3362TIP3    H231502   6.419   2.212  13.560  0.3832  1.4380  0.1716
 3363TIP3   OH231503   5.799   0.016   2.787  0.2419 -0.2147  0.2388
 3363TIP3    H131504   5.820  -0.066   2.743  0.8594 -0.0916  0.2979
 3363TIP3    H231505   5.834   0.005   2.876 -0.1995 -0.1158  0.4296
 3364TIP3   OH231506   1.715   4.322  12.307 -0.3750 -0.6163 -0.3953
 3364TIP3    H131507   1.673   4.404  12.333 -0.8339  0.1571 -3.2414
 3364TIP3    H231508   1.803   4.327  12.343 -0.3533  1.2063 -0.6005
 3365TIP3   OH231509   5.300   1.908   2.778  0.2410  0.4746 -0.4287
 3365TIP3    H131510   5.332   1.841   2.718  1.9021  2.1437 -1.5452
 3365TIP3    H231511   5.364   1.910   2.849 -0.8746 -0.4150  0.6461
 3366TIP3   OH231512   3.743   4.424  12.339 -0.3190  0.7586 -0.0771
 3366TIP3    H131513   3.702   4.453  12.420 -0.0721  1.1592 -0.0908
 3366TIP3    H231514   3.772   4.335  12.357  0.5350  1.1538  0.5761
 3367TIP3   OH231515   1.453   1.503  15.436 -0.1119  0.1267  0.3474
 3367TIP3    H131516   1.406   1.421  15.451  0.6119 -0.6208 -1.2956
 3367TIP3    H231517   1.523   1.502  15.501  0.9087 -1.3858 -0.7228
 3368TIP3   OH231518   0.374   5.084  15.252 -0.1232 -0.0516  0.3389
 3368TIP3    H131519   0.435   5.132  15.196 -0.8829  1.8692  1.0905
 3368TIP3    H231520   0.293   5.134  15.249 -0.6128 -0.6683  2.0247
 3369TIP3   OH231521   6.209   1.329   0.949  0.0580 -0.2433 -0.0931
 3369TIP3    H131522   6.268   1.388   0.902  0.2727 -0.4223 -0.0527
 3369TIP3    H231523   6.262   1.295   1.021 -0.3437  0.2182  0.4276
 3370TIP3   OH231524   1.552   5.235  16.890  0.2484  0.1694  0.0264
 3370TIP3    H131525   1.475   5.230  16.947 -0.5077  0.4363 -0.9554
 3370TIP3    H231526   1.547   5.156  16.836  1.2541 -0.3572  0.6729
 3371TIP3   OH231527   0.421   0.957   1.152 -0.0864  0.5501  0.1857
 3371TIP3    H131528   0.419   1.050   1.130  1.2724  0.3239 -1.0772
 3371TIP3    H231529   0.439   0.913   1.069 -0.7592 -0.8565  0.7492
 3372TIP3   OH231530   5.792   5.859   4.457  0.3872  0.0906  0.0766
 3372TIP3    H131531   5.858   5.915   4.417  0.4214  0.7336  0.9949
 3372TIP3    H231532   5.817   5.855   4.550 -0.5087 -0.1538  0.3186
 3373TIP3   OH231533   3.815   0.423   0.212 -0.2200  0.7983 -0.2054
 3373TIP3    H131534   3.758   0.403   0.286  0.9681 -0.1729  0.5058
 3373TIP3    H231535   3.866   0.343   0.200 -0.7478  0.7349 -2.4469
 3374TIP3   OH231536   4.692   1.787  14.644  0.0201  0.2449  0.2103
 3374TIP3    H131537   4.621   1.724  14.634 -0.5935  0.6377  1.8003
 3374TIP3    H231538   4.656   1.869  14.610 -0.2000  0.3754  0.7451
 3375TIP3   OH231539   0.738   3.491  12.841 -0.0618 -0.3936  0.3459
 3375TIP3    H131540   0.759   3.512  12.932 -1.5355 -1.9599  1.1081
 3375TIP3    H231541   0.816   3.444  12.809  0.3598 -0.0632  0.8658
 3376TIP3   OH231542   0.374   0.520  15.988 -0.1080 -0.7998  0.1524
 3376TIP3    H131543   0.406   0.453  15.928 -0.1504  0.2544 -1.1010
 3376TIP3    H231544   0.307   0.568  15.938 -0.7000 -0.3734  1.3084
 3377TIP3   OH231545   3.914   3.910  14.242  0.4043 -0.0232 -0.3462
 3377TIP3    H131546   3.913   3.825  14.198  0.1477 -1.2813  1.9298
 3377TIP3    H231547   3.980   3.960  14.195 -0.7641 -0.7315 -2.9761
 3378TIP3   OH231548   2.723   3.706   2.446 -0.0020  0.2213  0.0746
 3378TIP3    H131549   2.728   3.643   2.374 -0.4251 -1.0897  1.1392
 3378TIP3    H231550   2.662   3.773   2.415 -0.1721 -0.3182 -0.7904
 3379TIP3   OH231551   4.198   2.850   1.847  0.0273 -0.0478 -0.1311
 3379TIP3    H131552   4.138   2.924   1.852  0.2886  0.1566 -0.0400
 3379TIP3    H231553   4.213   2.825   1.938  1.2787  0.8669 -0.0612
 3380TIP3   OH231554   1.922   4.749   4.027  0.1060  0.1669  0.3256
 3380TIP3    H131555   1.952   4.695   3.954  2.4711  0.0986  1.2448
 3380TIP3    H231556   1.908   4.836   3.989 -0.8392 -0.3687 -0.5955
 3381TIP3   OH231557   1.470   3.619  16.472  0.5208  0.0370  0.0722
 3381TIP3    H131558   1.462   3.644  16.564 -0.5028  0.0568 -0.0081
 3381TIP3    H231559   1.398   3.665  16.429  2.1139  1.5425 -1.0808
 3382TIP3   OH231560   4.954   1.212  15.925  0.0991 -0.1694 -0.0313
 3382TIP3    H131561   4.983   1.161  16.001 -1.8685 -0.5234  0.5387
 3382TIP3    H231562   4.945   1.301  15.958  0.1784 -0.1381 -0.0960
 3383TIP3   OH231563   4.939   0.902   5.656  0.2041 -0.3320 -0.3491
 3383TIP3    H131564   4.983   0.975   5.613 -0.2931 -0.5897 -1.3322
 3383TIP3    H231565   4.862   0.885   5.601 -0.8503 -0.2157  1.0387
 3384TIP3   OH231566   0.493   0.585   3.443  0.4602 -0.0502 -0.4073
 3384TIP3    H131567   0.437   0.635   3.384  2.4812  2.7269 -0.2135
 3384TIP3    H231568   0.559   0.649   3.472  1.4733 -2.1316  2.2924
 3385TIP3   OH231569   4.100   4.230  11.588 -0.5631 -0.4039 -0.6736
 3385TIP3    H131570   4.020   4.279  11.568 -1.7827 -0.2525  3.5707
 3385TIP3    H231571   4.071   4.139  11.595 -0.2393 -0.4535  0.1366
 3386TIP3   OH231572   1.340   3.976   0.077  0.1287 -0.3639  0.5727
 3386TIP3    H131573   1.253   3.969   0.116 -0.0990 -0.7773  0.0079
 3386TIP3    H231574   1.324   4.009  -0.012  0.6307  0.5080  0.7873
 3387TIP3   OH231575   5.349   3.751   5.743  0.2313 -1.2712 -0.6245
 3387TIP3    H131576   5.258   3.780   5.755  0.4372 -0.9957  0.3247
 3387TIP3    H231577   5.348   3.659   5.769  0.5305 -0.8595  0.9415
 3388TIP3   OH231578   5.536   0.445  12.377 -0.1955 -0.1264 -0.1495
 3388TIP3    H131579   5.596   0.423  12.307  1.0684  0.6282  0.6541
 3388TIP3    H231580   5.556   0.537  12.398 -2.0250  0.3340 -0.2374
 3389TIP3   OH231581   4.716   2.448   0.179 -0.1972  0.0550 -0.1695
 3389TIP3    H131582   4.636   2.417   0.138 -0.2591  0.2180 -0.1734
 3389TIP3    H231583   4.712   2.413   0.269  0.3775 -1.0735 -0.5576
 3390TIP3   OH231584   0.843   5.368  14.582  0.3159 -0.0842  0.0425
 3390TIP3    H131585   0.917   5.335  14.531  1.5100 -0.3007  1.8138
 3390TIP3    H231586   0.804   5.290  14.621  0.3669  0.1911  0.6575
 3391TIP3   OH231587   1.820   6.753   5.350  0.0419 -0.2640 -0.2532
 3391TIP3    H131588   1.769   6.821   5.395  0.3753  0.5981 -1.1210
 3391TIP3    H231589   1.840   6.792   5.265  0.2651 -1.4628 -0.7588
 3392TIP3   OH231590   1.673   3.745   0.017 -0.0407  0.4097 -0.9061
 3392TIP3    H131591   1.743   3.753  -0.048 -0.1371 -0.1118 -1.0787
 3392TIP3    H231592   1.592   3.759  -0.032 -0.0283  2.5854 -0.4402
 3393TIP3   OH231593   2.976   5.066   0.186 -0.4948 -0.4609  0.6685
 3393TIP3    H131594   2.988   5.031   0.274 -2.1172  1.1414  1.6040
 3393TIP3    H231595   3.065   5.074   0.150  0.1270 -1.9063  1.8279
 3394TIP3   OH231596   6.119   2.131  11.418  0.4777  0.3892  0.1888
 3394TIP3    H131597   6.203   2.097  11.450  0.3785 -0.5332 -0.4992
 3394TIP3    H231598   6.138   2.220  11.390  1.4293 -0.0925 -0.7566
 3395TIP3   OH231599   4.711   0.830   5.488 -0.0774  0.1426 -0.2844
 3395TIP3    H131600   4.715   0.902   5.425  0.3902  0.4197  0.0464
 3395TIP3    H231601   4.619   0.806   5.491 -1.0248  3.2687  2.3653
 3396TIP3   OH231602   1.173   1.397  12.289 -0.1986 -0.2867  0.4301
 3396TIP3    H131603   1.199   1.458  12.358 -1.8940 -0.0940  0.9596
 3396TIP3    H231604   1.105   1.343  12.330  0.8168 -2.1266 -0.2163
 3397TIP3   OH231605   6.157   1.970  15.612 -0.0418  0.0836  0.7748
 3397TIP3    H131606   6.239   1.948  15.656  1.0451  0.4824 -0.9467
 3397TIP3    H231607   6.132   1.890  15.566  1.6372  1.0224 -2.0153
 3398TIP3   OH231608   0.671   6.405  12.673  0.1285  0.1786  0.4041
 3398TIP3    H131609   0.689   6.411  12.767  0.6918  1.2738  0.2422
 3398TIP3    H231610   0.622   6.323  12.663  0.4672 -0.1885  1.5843
 3399TIP3   OH231611   1.837   6.201   5.581 -0.2309  0.6655 -0.3137
 3399TIP3    H131612   1.849   6.152   5.663  2.4188  1.2830 -0.2504
 3399TIP3    H231613   1.819   6.291   5.609  2.6879  1.3349 -0.2682
 3400TIP3   OH231614   6.550   2.089  16.774  0.0212 -0.4617  0.8924
 3400TIP3    H131615   6.456   2.093  16.789 -0.1353 -1.6856  0.3075
 3400TIP3    H231616   6.577   2.181  16.764 -1.5139 -0.2001 -1.3791
 3401TIP3   OH231617   1.343   4.371  11.613  0.1168 -0.4087  0.1755
 3401TIP3    H131618   1.313   4.411  11.532  0.0711 -0.8384 -0.0233
 3401TIP3    H231619   1.390   4.441  11.659 -1.0143  0.2338  0.4059
 3402TIP3   OH231620   1.416   6.545  16.024  0.4512 -0.0669  0.1605
 3402TIP3    H131621   1.418   6.620  16.082  3.3796  0.0884  0.0285
 3402TIP3    H231622   1.411   6.583  15.936  0.8709 -0.0741  0.1336
 3403TIP3   OH231623   0.735   6.353  12.382  0.7237 -0.5850  0.2503
 3403TIP3    H131624   0.779   6.275  12.348 -1.1453 -1.0056 -1.3539
 3403TIP3    H231625   0.642   6.330  12.382 -0.1447  2.3180 -2.3483
 3404TIP3   OH231626   4.524   1.426   2.757 -0.0138 -0.4813  0.4074
 3404TIP3    H131627   4.597   1.458   2.703  0.3337 -1.3625  0.3254
 3404TIP3    H231628   4.554   1.438   2.847 -0.8141  1.4943  0.4573
 3405TIP3   OH231629   6.481   6.652   4.304 -0.0434 -0.0104  0.0007
 3405TIP3    H131630   6.557   6.696   4.342 -2.0765  2.2089  1.8934
 3405TIP3    H231631   6.468   6.694   4.219 -0.1071  0.8035  0.4056
 3406TIP3   OH231632   2.946   5.763   4.918  0.4092  0.8605 -0.0045
 3406TIP3    H131633   2.877   5.769   4.852  1.0371  0.8335 -0.6835
 3406TIP3    H231634   2.928   5.681   4.964  1.2267 -0.3029 -1.6434
 3407TIP3   OH231635   5.828   6.209   2.440  0.1041 -0.0687 -0.1973
 3407TIP3    H131636   5.790   6.200   2.352  2.7684 -0.5865 -1.4075
 3407TIP3    H231637   5.765   6.168   2.498 -1.1290 -0.9455 -2.0685
 3408TIP3   OH231638   2.385   5.494  16.528  0.4193 -0.2650  0.6075
 3408TIP3    H131639   2.431   5.435  16.469  1.6169  0.3810  0.8603
 3408TIP3    H231640   2.307   5.445  16.555  0.7083 -1.2035 -0.2078
 3409TIP3   OH231641   4.666   6.276   2.663 -0.6545 -0.2094 -0.3143
 3409TIP3    H131642   4.583   6.242   2.698 -0.7195  0.7543  0.5148
 3409TIP3    H231643   4.639   6.336   2.594 -0.5974 -0.6389 -0.7174
 3410TIP3   OH231644   2.319   0.006   3.205  0.0315  0.3848 -0.1544
 3410TIP3    H131645   2.321   0.033   3.297 -2.1348 -0.2698  0.1352
 3410TIP3    H231646   2.311  -0.089   3.207 -1.6692  0.4726 -0.9445
 3411TIP3   OH231647   4.707   3.850  13.387 -0.3496  0.2290 -0.4194
 3411TIP3    H131648   4.630   3.800  13.414  0.1769 -0.7363 -0.6545
 3411TIP3    H231649   4.745   3.880  13.470 -0.5561  0.0501 -0.2566
 3412TIP3   OH231650   4.696   5.605   3.186  0.3643 -0.3895  0.7032
 3412TIP3    H131651   4.609   5.571   3.208 -0.2972  0.5464 -0.3669
 3412TIP3    H231652   4.719   5.661   3.259 -0.7473  0.7834  0.1890
 3413TIP3   OH231653   5.561   4.993   1.676  1.2535 -0.0113  0.3416
 3413TIP3    H131654   5.562   5.023   1.767  1.0561 -1.2176  0.7678
 3413TIP3    H231655   5.624   4.920   1.674  2.2529  0.8492 -0.8105
 3414TIP3   OH231656   1.278   1.031   4.444  0.0703  0.2372 -0.0321
 3414TIP3    H131657   1.274   0.947   4.489 -1.0019  0.8483  1.0534
 3414TIP3    H231658   1.204   1.029   4.382  0.9538 -0.2054 -1.1115
 3415TIP3   OH231659   2.299   4.041  14.791 -0.0761 -0.6062 -0.3724
 3415TIP3    H131660   2.379   4.021  14.742 -0.8991 -1.0630 -1.5867
 3415TIP3    H231661   2.259   3.956  14.807 -0.7364 -0.3298 -0.5226
 3416TIP3   OH231662   0.969   6.637  14.949  0.3168 -0.3861 -0.7506
 3416TIP3    H131663   0.880   6.658  14.918  0.0348 -1.8129 -0.9789
 3416TIP3    H231664   0.970   6.541  14.955  2.3529 -0.5066 -2.2877
 3417TIP3   OH231665   1.762   0.414   5.190 -0.3543 -0.1246 -0.0998
 3417TIP3    H131666   1.696   0.460   5.242 -1.4451 -0.9052 -0.7625
 3417TIP3    H231667   1.806   0.483   5.140 -1.9497  0.2165 -1.0769
 3418TIP3   OH231668   2.587   1.690   4.816 -0.3016 -0.2316  0.1794
 3418TIP3    H131669   2.630   1.725   4.739 -0.0687  0.6929  0.7150
 3418TIP3    H231670   2.517   1.634   4.782  0.6856 -0.9786 -0.6982
 3419TIP3   OH231671   3.972   4.042  11.958 -0.5276 -0.0152 -0.2985
 3419TIP3    H131672   3.942   4.046  12.049  2.2257  0.8188  0.6872
 3419TIP3    H231673   3.910   4.097  11.910 -1.5244  0.2763  1.2476
 3420TIP3   OH231674   2.011   3.470   3.795 -0.2509 -0.2559 -0.5052
 3420TIP3    H131675   2.074   3.453   3.724  1.6281 -1.1052  1.2749
 3420TIP3    H231676   2.060   3.520   3.859 -2.5327  2.3757 -0.6344
 3421TIP3   OH231677   4.641   1.125   2.729  0.1831  0.1616 -0.1573
 3421TIP3    H131678   4.546   1.127   2.720  0.2969 -0.3554 -1.7315
 3421TIP3    H231679   4.674   1.169   2.650  1.2624 -0.6979 -0.2098
 3422TIP3   OH231680   4.203   5.654  13.129  0.0711 -0.7695  0.3438
 3422TIP3    H131681   4.212   5.574  13.076  0.2115  0.2191 -1.1756
 3422TIP3    H231682   4.266   5.715  13.091 -3.0973  1.6203 -1.5303
 3423TIP3   OH231683   3.194   2.968   2.582 -0.4962 -0.3007 -0.0100
 3423TIP3    H131684   3.269   2.987   2.638 -1.0911  0.1204  0.6662
 3423TIP3    H231685   3.156   2.889   2.619 -1.7132  0.7418  1.0989
 3424TIP3   OH231686   6.274   0.958   1.567  0.4426  0.0265  0.4644
 3424TIP3    H131687   6.309   0.964   1.655  0.2702 -2.0066  0.7202
 3424TIP3    H231688   6.202   0.895   1.573  0.4486 -0.1956 -1.1186
 3425TIP3   OH231689   0.896   4.523  13.629 -0.7089  0.1777 -0.5690
 3425TIP3    H131690   0.813   4.510  13.583 -0.7151 -2.3197  0.0200
 3425TIP3    H231691   0.961   4.534  13.559 -0.9385 -2.1205 -1.2062
 3426TIP3   OH231692   3.476   2.120   2.639  0.0097 -0.5377  0.5693
 3426TIP3    H131693   3.500   2.042   2.689 -3.3886 -1.3504  1.2397
 3426TIP3    H231694   3.390   2.145   2.675  0.3665  2.7393 -0.5546
 3427TIP3   OH231695   1.424   0.659  10.256 -0.4592  0.0623 -0.6241
 3427TIP3    H131696   1.363   0.697  10.319 -0.1348 -1.8681  0.9754
 3427TIP3    H231697   1.369   0.634  10.182 -1.7607 -1.7861  0.8507
 3428TIP3   OH231698   4.625   2.601   3.245  1.0553 -0.0694 -0.1667
 3428TIP3    H131699   4.606   2.695   3.237  1.7984 -0.0927 -3.9193
 3428TIP3    H231700   4.679   2.581   3.169 -0.4384 -3.8828 -0.4406
 3429TIP3   OH231701   3.113   3.254  17.046  0.7338  0.2978  0.4025
 3429TIP3    H131702   3.151   3.172  17.014  0.2988 -0.5810  2.0638
 3429TIP3    H231703   3.182   3.294  17.099 -0.0342 -0.4431  1.9894
 3430TIP3   OH231704   2.832   1.994  16.705 -0.1534  0.2042  0.1360
 3430TIP3    H131705   2.784   1.986  16.787 -0.5764  0.9312 -0.0330
 3430TIP3    H231706   2.888   1.916  16.702 -0.9791 -0.4114  0.5502
 3431TIP3   OH231707   5.899   3.993   1.289  0.0472  0.3911  0.1695
 3431TIP3    H131708   5.809   4.014   1.313  0.1184  0.3019  0.5146
 3431TIP3    H231709   5.931   3.938   1.360  0.1693 -0.1071 -0.2679
 3432TIP3   OH231710   6.320   0.869   2.320 -0.5689  0.5405 -0.0952
 3432TIP3    H131711   6.299   0.776   2.331 -0.0024  0.6440  2.5141
 3432TIP3    H231712   6.271   0.895   2.242 -2.3849 -1.4819  0.2551
 3433TIP3   OH231713   0.324   1.786  15.283 -0.0334 -0.3507 -0.2291
 3433TIP3    H131714   0.244   1.747  15.247 -0.4671 -0.1379  0.4837
 3433TIP3    H231715   0.340   1.737  15.363  1.7810 -1.8447 -1.4131
 3434TIP3   OH231716   4.784   5.526  16.432 -0.6181  0.3505  0.0592
 3434TIP3    H131717   4.696   5.503  16.402 -0.4265  1.7446 -1.7280
 3434TIP3    H231718   4.828   5.558  16.354  2.0449 -1.7658  0.5524
 3435TIP3   OH231719   4.594   5.855  12.307  0.3724 -0.5307 -0.6034
 3435TIP3    H131720   4.623   5.770  12.274  1.2823  0.2768 -1.9958
 3435TIP3    H231721   4.618   5.917  12.238 -0.1370  0.8819  0.4399
 3436TIP3   OH231722   2.735   0.031   1.649  0.4030  0.0877 -0.5447
 3436TIP3    H131723   2.817   0.054   1.693  0.5815  0.6508 -1.1540
 3436TIP3    H231724   2.692   0.115   1.634  0.0430 -0.1529 -0.8592
 3437TIP3   OH231725   4.241   1.067  15.736 -0.3954  0.3706 -0.1984
 3437TIP3    H131726   4.288   1.067  15.652  0.0506 -0.3053  0.0405
 3437TIP3    H231727   4.166   1.010  15.722  0.5361 -1.0458  0.2987
 3438TIP3   OH231728   1.746   3.607   4.571  0.9109  0.1953 -0.3050
 3438TIP3    H131729   1.710   3.653   4.647 -0.2603 -0.2116 -0.5864
 3438TIP3    H231730   1.841   3.613   4.581  0.8211 -1.2531  2.0676
 3439TIP3   OH231731   4.623   3.516   5.763 -0.4058 -0.7135 -0.4238
 3439TIP3    H131732   4.572   3.436   5.759  0.0028 -1.3820  3.5089
 3439TIP3    H231733   4.681   3.504   5.839 -0.5882  3.3843  0.6277
 3440TIP3   OH231734   6.384   1.767   3.807 -0.0782  0.3831  0.3207
 3440TIP3    H131735   6.325   1.694   3.827 -0.9105  1.5620  2.5402
 3440TIP3    H231736   6.333   1.824   3.749  1.2380 -1.5773 -2.9873
 3441TIP3   OH231737   4.060   1.606  16.571 -0.6601  0.0411 -0.3730
 3441TIP3    H131738   3.993   1.588  16.636 -2.5696  2.2342 -1.6025
 3441TIP3    H231739   4.129   1.652  16.620 -2.2915  2.1343  0.1173
 3442TIP3   OH231740   1.124   6.644   4.581 -0.2106 -0.5208  0.3408
 3442TIP3    H131741   1.148   6.570   4.637 -0.1707 -0.3175  0.5988
 3442TIP3    H231742   1.073   6.701   4.639  1.4904  0.6514  0.7614
 3443TIP3   OH231743   1.341   3.700   1.148  0.3055 -0.0613 -0.0896
 3443TIP3    H131744   1.271   3.635   1.155 -0.3888  0.4322 -1.8379
 3443TIP3    H231745   1.311   3.760   1.079  2.3987  0.2186 -0.8268
 3444TIP3   OH231746   2.406   4.443   4.851 -0.0166  0.0079  0.3976
 3444TIP3    H131747   2.446   4.530   4.852  1.4649 -0.6204 -0.4386
 3444TIP3    H231748   2.401   4.420   4.759 -2.0602 -0.1070  0.4846
 3445TIP3   OH231749   0.146   3.495   4.614 -0.0165  0.4369 -0.0460
 3445TIP3    H131750   0.098   3.414   4.631  0.5139  0.4724  1.8027
 3445TIP3    H231751   0.152   3.499   4.518 -0.2987 -1.5514 -0.1918
 3446TIP3   OH231752   3.785   5.206  14.419 -0.2704 -0.4729  0.2141
 3446TIP3    H131753   3.831   5.269  14.364  0.2749 -0.3777  0.7595
 3446TIP3    H231754   3.834   5.124  14.408 -1.8201 -1.2237 -1.6170
 3447TIP3   OH231755   6.280   2.628  14.846  0.2204  0.5265  0.2235
 3447TIP3    H131756   6.309   2.587  14.927 -0.3276 -1.4992 -0.5593
 3447TIP3    H231757   6.276   2.721  14.867  1.4622  0.2161  2.0909
 3448TIP3   OH231758   0.064   6.615   0.550 -0.4012 -0.4092 -0.2919
 3448TIP3    H131759   0.041   6.523   0.556 -1.9173 -0.1006 -0.8874
 3448TIP3    H231760   0.073   6.632   0.456 -0.5772  0.1391 -0.2161
 3449TIP3   OH231761   0.534   5.436   3.970  0.0467 -0.3911  0.7421
 3449TIP3    H131762   0.504   5.346   3.962  0.3041 -0.4598  0.5369
 3449TIP3    H231763   0.457   5.485   3.998 -0.7311 -0.2464 -1.4883
 3450TIP3   OH231764   3.601   2.783   6.125  0.4035  0.2635 -0.8430
 3450TIP3    H131765   3.562   2.713   6.176  0.2122 -0.1442 -1.5385
 3450TIP3    H231766   3.587   2.862   6.177 -1.2023  0.1093 -0.9893
 3451TIP3   OH231767   5.175   3.297   1.485  0.7054 -0.0903  0.3068
 3451TIP3    H131768   5.114   3.260   1.421 -1.5004  1.3042  1.4648
 3451TIP3    H231769   5.230   3.223   1.511  0.1005 -1.2200 -1.4466
 3452TIP3   OH231770   1.326   1.705  14.690 -0.1969 -0.2044 -0.0205
 3452TIP3    H131771   1.369   1.692  14.774  1.2867  1.5285 -0.4367
 3452TIP3    H231772   1.370   1.782  14.652 -0.7866 -0.9401 -2.3809
 3453TIP3   OH231773   0.586   6.708   4.252  0.2321  0.0375  0.0865
 3453TIP3    H131774   0.616   6.722   4.162 -1.4848 -1.4595 -0.7713
 3453TIP3    H231775   0.578   6.797   4.289  0.2465  0.7085 -1.4638
 3454TIP3   OH231776   4.463   5.640   4.175  0.0366  0.0384 -0.4151
 3454TIP3    H131777   4.550   5.647   4.214  0.6676  3.7028 -2.0451
 3454TIP3    H231778   4.456   5.717   4.119 -3.8681 -0.7106 -1.2329
 3455TIP3   OH231779   1.083   1.982  17.070 -0.0158  0.2615 -0.5362
 3455TIP3    H131780   1.099   1.910  17.131 -1.0365 -0.1066 -0.6744
 3455TIP3    H231781   1.027   2.042  17.119  1.5368  1.4134 -0.1187
 3456TIP3   OH231782   4.142   1.980  11.674  0.1426  0.8391 -0.2208
 3456TIP3    H131783   4.132   1.997  11.767  1.8248 -0.6587  0.2888
 3456TIP3    H231784   4.094   1.898  11.659  1.2142  0.2136 -0.3081
 3457TIP3   OH231785   4.888   6.069  14.410  0.3929  0.2822 -0.0214
 3457TIP3    H131786   4.816   6.012  14.435  1.3564 -0.0271  2.2316
 3457TIP3    H231787   4.878   6.146  14.466  2.1441 -0.0485  0.8032
 3458TIP3   OH231788   3.755   4.013  10.486  0.6880  1.0493 -0.6285
 3458TIP3    H131789   3.832   3.971  10.446  1.3003  0.5489  0.9908
 3458TIP3    H231790   3.696   3.940  10.504  0.7766  1.1572  0.1124
 3459TIP3   OH231791   5.363   6.200   0.061  0.4622  0.2695 -0.1715
 3459TIP3    H131792   5.453   6.231   0.052  0.3393  0.4717 -0.7419
 3459TIP3    H231793   5.368   6.106   0.043  0.6426  0.1742  0.3528
 3460TIP3   OH231794   5.997   6.369  12.972 -0.5328 -0.6023 -0.0893
 3460TIP3    H131795   5.995   6.323  12.888  0.2655  1.1873 -1.1334
 3460TIP3    H231796   5.932   6.438  12.964  0.2681  0.2178  0.3707
 3461TIP3   OH231797   4.536   0.814  11.436 -0.3949  0.2983 -0.2469
 3461TIP3    H131798   4.535   0.830  11.342 -2.1479 -1.3776 -0.6036
 3461TIP3    H231799   4.447   0.783  11.455 -0.0183  0.4189  1.9256
 3462TIP3   OH231800   5.336   1.402   2.715  0.1004 -0.6050  0.0491
 3462TIP3    H131801   5.363   1.491   2.739  0.7624 -0.5649 -0.8147
 3462TIP3    H231802   5.396   1.377   2.645 -0.7232 -1.3518 -0.4025
 3463TIP3   OH231803   0.417   0.256   0.571 -0.3652  0.0096  0.1063
 3463TIP3    H131804   0.375   0.337   0.543  0.3987  0.9693  1.6454
 3463TIP3    H231805   0.344   0.199   0.597 -0.8723  0.3618 -0.4995
 3464TIP3   OH231806   4.105   4.339   5.002 -0.0937  0.0045 -0.2346
 3464TIP3    H131807   4.028   4.324   4.948  0.4206  0.8656 -1.2420
 3464TIP3    H231808   4.075   4.399   5.070 -0.6372 -0.7371  0.1915
 3465TIP3   OH231809   5.337   2.583   0.368 -0.1199  0.4147 -0.3005
 3465TIP3    H131810   5.334   2.636   0.448  0.8106 -2.9925  2.2186
 3465TIP3    H231811   5.286   2.505   0.389  1.9894 -1.6057 -2.1771
 3466TIP3   OH231812   0.886   1.902  11.417  0.5727 -0.3189  0.2715
 3466TIP3    H131813   0.798   1.868  11.431 -0.0706  1.2699  0.3362
 3466TIP3    H231814   0.926   1.843  11.353 -1.1207 -0.1211 -1.0158
 3467TIP3   OH231815   5.333   5.033   1.860 -0.1387 -0.2229  0.0574
 3467TIP3    H131816   5.399   4.971   1.892 -0.0533 -0.0695  0.1829
 3467TIP3    H231817   5.308   4.999   1.774 -0.1014 -0.4378  0.1298
 3468TIP3   OH231818   3.451   1.885   0.375 -0.0792 -0.0231 -0.5880
 3468TIP3    H131819   3.387   1.946   0.413  0.9301  0.8428 -0.2266
 3468TIP3    H231820   3.521   1.880   0.440  0.0421 -1.2818 -0.7897
 3469TIP3   OH231821   0.614   3.207   4.161 -0.0378  0.2802 -0.1936
 3469TIP3    H131822   0.606   3.201   4.065 -0.2134  1.4007 -0.2624
 3469TIP3    H231823   0.635   3.299   4.177 -1.2447  0.3846  0.9312
 3470TIP3   OH231824   6.501   1.209   2.845  0.5344 -0.1953  0.1722
 3470TIP3    H131825   6.484   1.303   2.835 -1.0878 -0.5529 -0.7411
 3470TIP3    H231826   6.429   1.177   2.900  0.8002 -0.9890  0.0712
 3471TIP3   OH231827   5.088   2.177  14.376  0.0440  0.6622  0.0483
 3471TIP3    H131828   5.007   2.159  14.327 -0.0251  2.1591 -0.4618
 3471TIP3    H231829   5.086   2.115  14.449 -1.3148  0.3206 -0.2383
 3472TIP3   OH231830   2.748   3.226   6.615 -0.1132 -0.4274  0.0538
 3472TIP3    H131831   2.839   3.255   6.622  0.3177 -1.4271 -1.0720
 3472TIP3    H231832   2.702   3.298   6.572  0.4638 -0.5062 -0.7036
 3473TIP3   OH231833   1.090   5.065   3.008 -0.0132  0.0535  0.2957
 3473TIP3    H131834   1.133   5.017   2.937  1.3900 -0.0723  1.1964
 3473TIP3    H231835   1.161   5.093   3.065 -0.8464  2.4262  0.3176
 3474TIP3   OH231836   6.367   5.845  13.417 -0.1995 -0.1443 -0.5582
 3474TIP3    H131837   6.276   5.842  13.388  0.2016 -0.3547 -1.8556
 3474TIP3    H231838   6.408   5.769  13.376  0.4155 -0.4434  0.5664
 3475TIP3   OH231839   3.410   0.125  16.560  0.2325 -0.2140 -0.2454
 3475TIP3    H131840   3.377   0.090  16.477  0.3690  2.3246 -1.4629
 3475TIP3    H231841   3.333   0.130  16.616  0.2842 -2.7680  0.1700
 3476TIP3   OH231842   2.625   5.501  12.410  0.4325 -0.4717  0.1096
 3476TIP3    H131843   2.604   5.483  12.319 -2.1514  1.8525  0.1152
 3476TIP3    H231844   2.600   5.421  12.457  3.3091 -2.3342 -1.2448
 3477TIP3   OH231845   4.605   0.569   0.844  0.0630  0.0391  0.5772
 3477TIP3    H131846   4.542   0.629   0.885 -0.4098  0.0474 -0.1559
 3477TIP3    H231847   4.583   0.483   0.881 -1.1889 -0.1647 -0.5893
 3478TIP3   OH231848   5.581   1.996  15.438  0.2917  0.3817 -0.0668
 3478TIP3    H131849   5.675   2.012  15.445  0.3163 -0.1257  1.0970
 3478TIP3    H231850   5.561   1.939  15.513 -1.0977  1.2057  0.2302
 3479TIP3   OH231851   1.673   1.327   4.259  0.0272  0.2709  0.4184
 3479TIP3    H131852   1.608   1.263   4.287 -0.4822  0.9067  0.7304
 3479TIP3    H231853   1.710   1.361   4.341 -0.6282  1.2957  0.3011
 3480TIP3   OH231854   0.507   1.985  14.426  0.3230 -0.7144  0.0553
 3480TIP3    H131855   0.479   2.016  14.340 -1.1091  1.4816  1.2191
 3480TIP3    H231856   0.556   1.906  14.408  2.6024  1.1829 -3.0575
 3481TIP3   OH231857   0.048   5.304  13.707  0.0797 -0.3133  0.4706
 3481TIP3    H131858   0.128   5.336  13.665 -1.5537  2.9426 -0.4974
 3481TIP3    H231859   0.076   5.227  13.756  2.9991 -1.8168 -3.0420
 3482TIP3   OH231860   2.017   3.663   3.431  0.6472 -0.0954 -0.2596
 3482TIP3    H131861   1.975   3.578   3.418 -1.1337  0.6577  0.2454
 3482TIP3    H231862   1.970   3.723   3.373 -0.0066  1.0655  1.3909
 3483TIP3   OH231863   2.985   1.043   0.268  0.2259  0.2838 -0.2808
 3483TIP3    H131864   3.021   0.971   0.320  0.5636 -0.4619 -1.5082
 3483TIP3    H231865   2.899   1.011   0.239 -0.4993  1.1828  0.8090
 3484TIP3   OH231866   2.551   2.613   2.272 -0.5645 -0.2384  0.1129
 3484TIP3    H131867   2.601   2.541   2.233 -0.0680  0.6419 -0.9378
 3484TIP3    H231868   2.605   2.643   2.346  0.3099  0.4451 -0.7730
 3485TIP3   OH231869   0.503   4.129  15.806 -0.2985  0.0408  0.6773
 3485TIP3    H131870   0.561   4.100  15.876 -2.1305 -1.0128  1.8430
 3485TIP3    H231871   0.529   4.220  15.789  1.0607 -0.1134  1.7811
 3486TIP3   OH231872   2.454   0.249   2.958 -0.3941 -0.0018  0.6585
 3486TIP3    H131873   2.403   0.278   3.035  1.6695  0.3999  1.9469
 3486TIP3    H231874   2.496   0.168   2.987 -2.3387 -1.8510 -1.3212
 3487TIP3   OH231875   1.870   2.870   3.029 -0.0168  0.6794 -0.3111
 3487TIP3    H131876   1.792   2.864   2.973 -1.5563 -0.0315  1.7705
 3487TIP3    H231877   1.902   2.959   3.017 -2.1735  1.5515 -0.0065
 3488TIP3   OH231878   2.358   2.469   0.966  0.5124  0.5578 -0.4549
 3488TIP3    H131879   2.371   2.510   1.052 -0.8798  0.0723  0.0138
 3488TIP3    H231880   2.330   2.541   0.910 -0.6283  0.5298  0.0416
 3489TIP3   OH231881   1.559   0.235   6.059  0.1690  0.0761  0.0454
 3489TIP3    H131882   1.499   0.305   6.084 -0.3428  0.0140 -0.9558
 3489TIP3    H231883   1.514   0.155   6.086 -1.0202 -0.0808 -2.1851
 3490TIP3   OH231884   5.438   5.853   6.096  0.3599 -0.0767  0.2521
 3490TIP3    H131885   5.498   5.789   6.133  1.5521  0.6532 -0.3520
 3490TIP3    H231886   5.474   5.873   6.010 -0.8215  0.3006 -0.1675
 3491TIP3   OH231887   4.658   0.805  12.972  0.6238  0.3498  0.1928
 3491TIP3    H131888   4.675   0.755  13.052 -1.0452 -1.6216 -0.5871
 3491TIP3    H231889   4.661   0.740  12.902 -0.9676  1.4530 -0.9661
 3492TIP3   OH231890   3.940   2.888  11.679  0.1190  0.2540  0.3476
 3492TIP3    H131891   3.929   2.970  11.726 -1.5898  0.4626 -0.3489
 3492TIP3    H231892   3.982   2.829  11.743 -1.2175  0.8233  1.8235
 3493TIP3   OH231893   4.683   4.371  13.662  0.0969  0.5795 -0.1362
 3493TIP3    H131894   4.746   4.301  13.643 -1.8986 -1.2745 -0.3054
 3493TIP3    H231895   4.696   4.389  13.755  0.0275 -0.7052  0.1438
 3494TIP3   OH231896   4.371   4.442   2.154  1.0574 -0.8631 -0.2981
 3494TIP3    H131897   4.452   4.428   2.203 -0.0702 -1.8506  1.3575
 3494TIP3    H231898   4.356   4.536   2.159  0.4001 -1.0376  2.2830
 3495TIP3   OH231899   6.493   0.406   2.985  0.3563 -0.4018  0.3362
 3495TIP3    H131900   6.452   0.450   2.910  0.4747 -0.3565  0.2977
 3495TIP3    H231901   6.572   0.367   2.948  0.7018  0.0838  0.5567
 3496TIP3   OH231902   1.043   2.619   5.365  0.7080 -0.0989 -0.4921
 3496TIP3    H131903   0.976   2.553   5.383  2.7485 -2.0867  0.2970
 3496TIP3    H231904   1.000   2.702   5.381 -1.1877 -1.3387  1.3472
 3497TIP3   OH231905   4.632   4.852  14.370 -0.1268 -0.4940  0.1263
 3497TIP3    H131906   4.584   4.858  14.288 -0.3719  0.9068  0.3455
 3497TIP3    H231907   4.664   4.941  14.386 -0.4634 -0.6326  1.7614
 3498TIP3   OH231908   2.940   2.402   5.033  0.1934  0.0510 -0.9270
 3498TIP3    H131909   2.923   2.312   5.004 -0.0930  0.2481 -1.3863
 3498TIP3    H231910   3.016   2.395   5.090  0.6299 -0.3867 -1.5446
 3499TIP3   OH231911   4.861   2.087  15.568 -0.5122 -0.1517  0.8980
 3499TIP3    H131912   4.859   2.005  15.519 -0.3111  0.7790 -0.7509
 3499TIP3    H231913   4.947   2.089  15.608  0.4415  0.3052 -1.0408
 3500TIP3   OH231914   5.725   6.214   2.942  0.1044  0.4394 -0.5743
 3500TIP3    H131915   5.811   6.235   2.979 -0.5076 -0.1986  1.3502
 3500TIP3    H231916   5.721   6.119   2.941 -0.3270  0.4553 -1.3111
 3501TIP3   OH231917   5.579   3.828   4.655  0.1337  0.3356 -0.0422
 3501TIP3    H131918   5.656   3.778   4.625  0.2072  0.8211 -0.6885
 3501TIP3    H231919   5.551   3.783   4.735  1.3963  0.4424  0.4897
 3502TIP3   OH231920   4.257   2.095   2.564 -0.2388 -0.0536  0.5288
 3502TIP3    H131921   4.310   2.167   2.598 -0.8929 -0.1361  1.7995
 3502TIP3    H231922   4.286   2.018   2.613  0.3697 -0.6472 -0.7343
 3503TIP3   OH231923   1.692   2.807   3.475  0.8679  0.6598  0.4970
 3503TIP3    H131924   1.639   2.866   3.421  1.2239  1.6549  1.2232
 3503TIP3    H231925   1.628   2.750   3.517  0.4976  0.7254  0.0340
 3504TIP3   OH231926   0.182   2.734   3.635 -0.2436 -0.3774  0.0201
 3504TIP3    H131927   0.270   2.698   3.620 -0.0554 -0.1706  0.6059
 3504TIP3    H231928   0.197   2.822   3.668 -0.6715 -0.3510  0.1534
 3505TIP3   OH231929   1.444   5.422   5.884 -0.2691 -0.3042 -0.3654
 3505TIP3    H131930   1.494   5.432   5.965 -0.5977 -1.1220 -0.0578
 3505TIP3    H231931   1.365   5.375   5.910 -0.3010 -0.7242 -1.1925
 3506TIP3   OH231932   3.549   4.936  14.321 -0.2263 -0.6543 -0.2175
 3506TIP3    H131933   3.549   4.902  14.410 -0.4741  0.6484  0.3115
 3506TIP3    H231934   3.537   5.031  14.332  0.6473 -0.3568 -1.5869
 3507TIP3   OH231935   0.009   0.960  11.095 -0.1158 -0.0441  0.7582
 3507TIP3    H131936  -0.005   1.049  11.129  4.0849  0.6649  1.2326
 3507TIP3    H231937  -0.079   0.927  11.077 -2.0876  2.9553  3.6546
 3508TIP3   OH231938   4.899   4.202  13.562  0.6457 -0.5421 -0.8811
 3508TIP3    H131939   4.906   4.226  13.470  2.1980  1.3003 -0.3554
 3508TIP3    H231940   4.989   4.211  13.596 -0.0591 -0.1732  1.0130
 3509TIP3   OH231941   0.589   5.102  16.836 -0.9009  0.2769 -0.1742
 3509TIP3    H131942   0.516   5.129  16.781 -2.4725 -1.3968  0.9843
 3509TIP3    H231943   0.575   5.009  16.850  1.5649 -0.1374 -0.0042
 3510TIP3   OH231944   4.776   1.482   2.664  0.3353 -0.1623  0.2487
 3510TIP3    H131945   4.774   1.408   2.603  1.8686  0.9102 -1.1801
 3510TIP3    H231946   4.800   1.443   2.748  1.4107 -1.2592 -0.5423
 3511TIP3   OH231947   2.470   1.105   0.445  0.0056 -0.0347 -0.1351
 3511TIP3    H131948   2.477   1.075   0.355 -0.8607 -0.3549 -0.1046
 3511TIP3    H231949   2.553   1.151   0.462  1.3246 -2.2044 -0.2578
 3512TIP3   OH231950   0.510   5.105  11.204  0.9115  0.2078 -0.4391
 3512TIP3    H131951   0.454   5.056  11.264  0.8464  1.1735  0.3113
 3512TIP3    H231952   0.576   5.145  11.261  1.9061 -0.2678 -1.2172
 3513TIP3   OH231953   5.506   4.474   4.109 -0.3426 -0.3318 -0.2889
 3513TIP3    H131954   5.553   4.392   4.119  0.8002  0.2383 -0.8215
 3513TIP3    H231955   5.489   4.480   4.015 -0.3303  0.0920 -0.2642
 3514TIP3   OH231956   6.594   2.361  16.705  0.5111  0.8734 -0.7361
 3514TIP3    H131957   6.554   2.441  16.672  1.1016  0.7610 -1.7703
 3514TIP3    H231958   6.654   2.390  16.774  0.5059  1.2811 -0.9058
 3515TIP3   OH231959   2.735   6.082   2.093 -0.3976 -0.6151  0.3992
 3515TIP3    H131960   2.782   6.014   2.046  0.7217  0.6282 -0.3394
 3515TIP3    H231961   2.643   6.069   2.069 -0.0251 -0.9456 -0.9271
 3516TIP3   OH231962   0.657   4.613   2.703  0.1265 -0.2770 -0.3725
 3516TIP3    H131963   0.646   4.557   2.626 -0.2926 -0.5854 -0.0954
 3516TIP3    H231964   0.575   4.663   2.708  0.1421 -0.2773 -0.1109
 3517TIP3   OH231965   2.203   3.470   3.197 -0.3109 -0.0819 -0.5014
 3517TIP3    H131966   2.253   3.391   3.176 -0.1648  0.0264 -0.5680
 3517TIP3    H231967   2.113   3.440   3.205 -0.2251 -0.2935 -0.3025
 3518TIP3   OH231968   0.186   1.480  10.980 -0.0986  0.1213 -0.3863
 3518TIP3    H131969   0.115   1.540  11.003 -1.2847 -0.9142 -1.2075
 3518TIP3    H231970   0.186   1.477  10.885 -0.8801 -2.0450 -0.3784
 3519TIP3   OH231971   4.147   6.287   2.430 -0.4194  0.0547  0.1642
 3519TIP3    H131972   4.106   6.328   2.354 -1.7429 -0.1335  0.7666
 3519TIP3    H231973   4.175   6.360   2.485 -1.4153  0.1830  0.5165
 3520TIP3   OH231974   1.522   1.019   5.160 -0.6204 -0.4178  0.3264
 3520TIP3    H131975   1.615   1.006   5.142 -0.3226  0.6544  0.9947
 3520TIP3    H231976   1.496   0.943   5.212  0.1713 -0.1502  1.1296
 3521TIP3   OH231977   3.353   3.091  11.675 -0.2169 -0.5266 -0.1855
 3521TIP3    H131978   3.410   3.015  11.660  0.1019 -0.5665  1.0606
 3521TIP3    H231979   3.412   3.166  11.669 -0.1824 -0.5106  0.3043
 3522TIP3   OH231980   3.174   5.261   5.267 -0.2739 -0.1294 -0.4264
 3522TIP3    H131981   3.173   5.237   5.174  1.9397  0.1601 -0.5760
 3522TIP3    H231982   3.242   5.328   5.274 -1.5733  1.0901  1.1490
 3523TIP3   OH231983   1.861   2.795   5.748 -0.1933  0.5654  0.1733
 3523TIP3    H131984   1.879   2.876   5.795  0.9159  0.9812 -0.9204
 3523TIP3    H231985   1.916   2.799   5.670 -1.3315 -0.4924 -0.7390
 3524TIP3   OH231986   2.702   3.328   5.227  0.3527  0.4584 -0.2093
 3524TIP3    H131987   2.694   3.239   5.263 -0.8038  0.9564  0.8639
 3524TIP3    H231988   2.733   3.315   5.138  1.4195 -0.9530  0.3291
 3525TIP3   OH231989   0.432   6.224  16.359 -0.1123  0.7845 -0.8833
 3525TIP3    H131990   0.504   6.172  16.394 -1.1666 -0.0858  0.0872
 3525TIP3    H231991   0.473   6.284  16.297  1.8258  2.0742  1.4603
 3526TIP3   OH231992   1.375   2.923  16.116  0.7091  1.2234 -0.2501
 3526TIP3    H131993   1.338   2.909  16.029  2.3176 -1.0274 -0.6465
 3526TIP3    H231994   1.401   2.836  16.146  2.4679  2.2415  1.4508
 3527TIP3   OH231995   6.167   0.488   3.751 -0.1041 -0.3542  0.1752
 3527TIP3    H131996   6.098   0.516   3.691  0.3840 -0.8199 -0.6203
 3527TIP3    H231997   6.124   0.480   3.836 -0.5819  1.3275  0.1282
 3528TIP3   OH231998   1.448   1.640  14.949  0.1493  0.4584  0.4919
 3528TIP3    H131999   1.413   1.552  14.964 -2.1960  0.8921 -1.7813
 3528TIP3    H232000   1.385   1.698  14.990 -0.6695  1.1718 -1.6262
 3529TIP3   OH232001   4.475   1.523   4.642  0.0480  0.1342 -0.2217
 3529TIP3    H132002   4.419   1.574   4.584 -1.0505 -0.5500  0.2038
 3529TIP3    H232003   4.415   1.482   4.704  1.0519 -0.3832  0.4447
 3530TIP3   OH232004   6.124   0.487  14.143 -0.5052  0.6625  0.9336
 3530TIP3    H132005   6.146   0.468  14.052 -2.3986  0.8673  0.3850
 3530TIP3    H232006   6.131   0.402  14.187 -0.1576  0.4408  0.4642
 3531TIP3   OH232007   4.583   6.352  12.000  0.6022  0.0712  0.2644
 3531TIP3    H132008   4.633   6.352  11.918 -0.1658  0.6843 -0.2167
 3531TIP3    H232009   4.608   6.433  12.044 -2.0459  1.8972 -1.3228
 3532TIP3   OH232010   4.154   2.531  10.732  0.4173 -0.4311  0.1385
 3532TIP3    H132011   4.216   2.553  10.802  1.7422  2.1512 -1.7148
 3532TIP3    H232012   4.209   2.496  10.662 -0.2465  1.1793 -1.2504
 3533TIP3   OH232013   6.437   1.118  14.061  0.7848 -0.5060  0.3734
 3533TIP3    H132014   6.391   1.146  13.983  1.5511 -1.1518 -0.3368
 3533TIP3    H232015   6.383   1.047  14.097  0.4583 -0.2427  0.4068
 3534TIP3   OH232016   5.148   2.949   1.754  0.7599 -0.4758  0.5252
 3534TIP3    H132017   5.124   2.983   1.840  1.4974  0.2177  0.4591
 3534TIP3    H232018   5.221   3.003   1.725 -0.4146  0.3018 -1.1941
 3535TIP3   OH232019   1.968   4.163  15.289 -0.9025 -0.1138  0.0817
 3535TIP3    H132020   2.026   4.169  15.213 -0.4896 -1.5207  0.2547
 3535TIP3    H232021   2.026   4.173  15.365 -1.2465  0.8376  0.2317
 3536TIP3   OH232022   6.135   4.411  13.711  0.5018  0.2223  0.0166
 3536TIP3    H132023   6.177   4.494  13.688  1.9314 -0.3635  0.4126
 3536TIP3    H232024   6.148   4.402  13.805 -1.2247  0.3684  0.3101
 3537TIP3   OH232025   4.670   3.117  13.378  0.0177  0.1678  0.0995
 3537TIP3    H132026   4.643   3.200  13.340 -0.3072  0.0835  0.1458
 3537TIP3    H232027   4.757   3.134  13.413  0.0010  0.4562  0.0027
 3538TIP3   OH232028   0.029   4.266  12.780 -0.2302 -0.4665  0.0210
 3538TIP3    H132029  -0.016   4.319  12.847 -0.5150 -0.0991 -0.4593
 3538TIP3    H232030  -0.001   4.176  12.797 -1.7396 -0.1447 -0.7361
 3539TIP3   OH232031   1.041   4.076  14.655 -0.2393 -0.8552  0.2293
 3539TIP3    H132032   1.052   4.072  14.750 -0.1813 -2.2162  0.1814
 3539TIP3    H232033   1.048   4.169  14.634  1.9022 -0.7174  1.2971
 3540TIP3   OH232034   4.575   4.187   1.167  0.3919 -0.0684 -0.2678
 3540TIP3    H132035   4.667   4.194   1.193 -0.0212 -0.5324  1.5006
 3540TIP3    H232036   4.566   4.099   1.131  0.9269  0.4942 -1.8436
 3541TIP3   OH232037   3.709   6.299  11.470  0.3557  0.2822  0.0611
 3541TIP3    H132038   3.777   6.351  11.427  1.3676 -0.8259  0.2579
 3541TIP3    H232039   3.694   6.225  11.410  0.1117 -0.0527  0.5296
 3542TIP3   OH232040   4.500   4.599   0.373 -0.3633 -0.2877 -0.3595
 3542TIP3    H132041   4.578   4.575   0.422 -1.6960 -1.8301  1.1143
 3542TIP3    H232042   4.524   4.585   0.281  1.5573  0.7926 -0.0663
 3543TIP3   OH232043   0.754   5.746  15.333 -0.0020 -0.1443 -0.0686
 3543TIP3    H132044   0.776   5.701  15.252 -0.8212  0.2710 -0.5295
 3543TIP3    H232045   0.835   5.792  15.358  0.0016  0.4311 -1.1126
 3544TIP3   OH232046   2.454   5.379  13.186  0.0746 -0.2840  0.4403
 3544TIP3    H132047   2.523   5.352  13.125  0.5247 -2.0053  1.6558
 3544TIP3    H232048   2.451   5.474  13.176  2.1701 -0.2142 -0.1490
 3545TIP3   OH232049   2.656   5.844  14.601 -0.6071  0.0884 -0.1673
 3545TIP3    H132050   2.731   5.837  14.542 -0.9045  1.0064 -0.6769
 3545TIP3    H232051   2.679   5.915  14.661 -0.3880 -0.7113  0.7283
 3546TIP3   OH232052   2.122   4.208  11.787  0.3001 -0.5743 -0.3531
 3546TIP3    H132053   2.125   4.301  11.761 -0.7157 -0.1232  1.0421
 3546TIP3    H232054   2.129   4.210  11.882  0.7175 -1.9768 -0.3424
 3547TIP3   OH232055   4.050   4.097  16.469 -0.7640  0.0461 -0.1338
 3547TIP3    H132056   4.052   4.187  16.435  0.3168  1.0079  2.2735
 3547TIP3    H232057   4.141   4.069  16.465 -0.9240 -0.5165  0.1795
 3548TIP3   OH232058   5.987   5.274  16.735 -0.4946 -0.2021  0.1938
 3548TIP3    H132059   6.040   5.217  16.680  0.9370  1.1111  0.1369
 3548TIP3    H232060   6.047   5.343  16.763 -2.1584  1.3158  0.2086
 3549TIP3   OH232061   5.835   1.382   0.404  0.2292  0.3581 -0.1207
 3549TIP3    H132062   5.808   1.391   0.496  1.0766 -0.7941  0.2678
 3549TIP3    H232063   5.861   1.470   0.378  2.0850  0.3509  1.4599
 3550TIP3   OH232064   6.062   1.070   2.366  0.2195  0.1401 -0.5588
 3550TIP3    H132065   6.100   1.036   2.285 -0.7028 -2.4871  0.0213
 3550TIP3    H232066   6.125   1.136   2.396  1.9768 -0.8012 -1.9766
 3551TIP3   OH232067   0.766   0.547   6.117  0.1255  0.3201  0.7470
 3551TIP3    H132068   0.802   0.567   6.203  0.1910 -0.0933  0.8185
 3551TIP3    H232069   0.814   0.603   6.056  3.3841 -2.5267  0.3536
 3552TIP3   OH232070   2.848   2.929   4.043  0.1582 -0.8255 -0.0288
 3552TIP3    H132071   2.866   3.007   3.990  0.3967 -0.2503  0.8736
 3552TIP3    H232072   2.906   2.862   4.006  1.4052 -0.0353  0.4015
 3553TIP3   OH232073   1.025   4.170   5.516  0.3030 -0.2757 -0.1519
 3553TIP3    H132074   1.051   4.228   5.588  1.1964 -0.4282 -0.3367
 3553TIP3    H232075   0.951   4.214   5.475 -1.4240 -1.0439  1.9598
 3554TIP3   OH232076   4.631   0.640   1.771 -0.6880 -0.0898 -0.1667
 3554TIP3    H132077   4.687   0.615   1.845  0.8202  0.9158 -0.9316
 3554TIP3    H232078   4.654   0.577   1.703 -0.7853  0.0801 -0.3547
 3555TIP3   OH232079   2.356   5.111  13.056  0.4294 -0.2549  0.0114
 3555TIP3    H132080   2.434   5.097  13.109  0.1226  0.3760  0.6388
 3555TIP3    H232081   2.358   5.204  13.033 -0.6133 -0.0171  0.8192
 3556TIP3   OH232082   0.433   3.936  16.487 -0.5099 -0.2232  0.0565
 3556TIP3    H132083   0.457   3.844  16.492 -1.6151 -0.5765 -0.8850
 3556TIP3    H232084   0.338   3.937  16.495 -0.3897  1.0461  2.3391
 3557TIP3   OH232085   5.894   2.081  12.636  0.2306 -0.2461  0.1770
 3557TIP3    H132086   5.867   2.075  12.544 -0.2612  0.0367  0.2992
 3557TIP3    H232087   5.827   2.135  12.677 -0.7961 -2.1537  1.1688
 3558TIP3   OH232088   1.515   3.206   0.398  0.2724 -0.5496 -0.5420
 3558TIP3    H132089   1.419   3.211   0.399  0.2950 -0.0970  0.3800
 3558TIP3    H232090   1.542   3.288   0.357  0.2435 -1.8225 -3.3597
 3559TIP3   OH232091   3.157   2.501  13.479 -0.5130 -0.1000  0.0084
 3559TIP3    H132092   3.063   2.507  13.465 -0.3894  0.8969 -0.5143
 3559TIP3    H232093   3.177   2.573  13.539  0.0165  0.2195 -0.5331
 3560TIP3   OH232094   0.972   5.696   0.644  0.7630 -0.5006  0.1678
 3560TIP3    H132095   1.059   5.657   0.653  0.5472 -0.8607  0.7819
 3560TIP3    H232096   0.913   5.621   0.646  0.4025 -0.2105  0.3912
 3561TIP3   OH232097   3.206   1.784   5.005  0.0754  0.2220 -0.1883
 3561TIP3    H132098   3.214   1.783   5.101 -0.3626  1.3773 -0.1356
 3561TIP3    H232099   3.252   1.863   4.977  0.2271 -0.1225 -0.9497
 3562TIP3   OH232100   1.518   0.530   4.521 -0.3619  0.5411 -0.2505
 3562TIP3    H132101   1.604   0.569   4.505 -0.6770  0.8426 -1.2827
 3562TIP3    H232102   1.519   0.507   4.614  1.6551 -1.4895 -0.6842
 3563TIP3   OH232103   0.428   3.917  13.992  0.5502  0.5780 -0.0926
 3563TIP3    H132104   0.516   3.885  14.012  0.7929  0.6239 -1.0518
 3563TIP3    H232105   0.440   4.011  13.974  0.3245  0.5683 -0.2988
 3564TIP3   OH232106   5.704   0.022   4.176 -0.0119  0.5308 -0.1400
 3564TIP3    H132107   5.696   0.068   4.259 -2.2532 -0.8376  0.5008
 3564TIP3    H232108   5.615  -0.005   4.155  0.5721  0.3419 -2.7355
 3565TIP3   OH232109   4.044   3.969  15.315  0.5973 -0.0507 -0.4947
 3565TIP3    H132110   4.093   4.016  15.382 -0.0616  1.8711 -1.2689
 3565TIP3    H232111   4.007   3.893  15.360  1.3852  0.3817  0.9379
 3566TIP3   OH232112   4.130   1.831   1.428  0.4508  0.1983  0.0617
 3566TIP3    H132113   4.102   1.764   1.490  1.1331 -0.4016 -0.2766
 3566TIP3    H232114   4.191   1.886   1.478  1.0053 -0.2886 -0.0733
 3567TIP3   OH232115   3.402   5.133   0.889 -0.2692 -0.0309  0.9517
 3567TIP3    H132116   3.480   5.180   0.915 -0.9518  1.6372  0.1213
 3567TIP3    H232117   3.329   5.185   0.923 -1.0566 -0.0416 -0.6120
 3568TIP3   OH232118   1.138   0.326   6.360  0.3074  0.0707  0.0968
 3568TIP3    H132119   1.224   0.364   6.378  0.8985 -0.6354 -1.0957
 3568TIP3    H232120   1.126   0.338   6.265 -0.1507 -1.3511 -0.0485
 3569TIP3   OH232121   4.511   4.210   6.312 -0.2653  0.8773 -0.3837
 3569TIP3    H132122   4.509   4.300   6.281 -0.2674  1.3753  1.0355
 3569TIP3    H232123   4.599   4.198   6.347 -0.7639  0.8672  0.9264
 3570TIP3   OH232124   1.340   4.247   1.594 -0.1870 -0.3670 -0.0323
 3570TIP3    H132125   1.386   4.163   1.598 -2.1994 -1.5288  0.0218
 3570TIP3    H232126   1.263   4.230   1.540 -0.4666  1.5597 -0.3297
 3571TIP3   OH232127   5.630   5.747  16.703 -0.2488  0.1601 -0.1700
 3571TIP3    H132128   5.673   5.808  16.764 -0.8944 -0.3520  0.8204
 3571TIP3    H232129   5.634   5.791  16.618  0.4494  1.0009  0.2828
 3572TIP3   OH232130   4.261   3.395   5.577 -0.4289 -0.1613  0.0820
 3572TIP3    H132131   4.219   3.312   5.598  1.8584 -1.5606 -0.5070
 3572TIP3    H232132   4.344   3.370   5.537  0.7339  2.4380  0.6968
 3573TIP3   OH232133   6.732   4.380   2.060  0.3357 -0.1902  0.1928
 3573TIP3    H132134   6.769   4.445   2.119 -0.7783  1.4839 -0.8503
 3573TIP3    H232135   6.763   4.406   1.973 -1.6613  0.1406 -0.4728
 3574TIP3   OH232136   1.228   4.743   3.648 -0.0596  0.2520  0.2578
 3574TIP3    H132137   1.243   4.826   3.691 -1.5042  0.1860  0.9420
 3574TIP3    H232138   1.138   4.748   3.615  0.1486 -0.6762 -0.5210
 3575TIP3   OH232139   0.921   2.440  16.043  0.1757  0.5439  0.2448
 3575TIP3    H132140   0.893   2.369  15.985 -0.8714  0.9812  0.2050
 3575TIP3    H232141   0.994   2.402  16.093 -0.4163 -0.5901  0.2846
 3576TIP3   OH232142   5.737   6.102  12.345 -0.2692 -0.0190 -0.4575
 3576TIP3    H132143   5.698   6.186  12.322 -0.7263 -0.0578  0.1711
 3576TIP3    H232144   5.664   6.047  12.370  0.0682 -0.4931 -0.4981
 3577TIP3   OH232145   5.772   5.566  13.999 -0.1655 -0.3283 -0.3272
 3577TIP3    H132146   5.709   5.502  13.968 -0.6301  1.2781 -2.9836
 3577TIP3    H232147   5.727   5.611  14.071 -0.8650 -1.1670 -0.2218
 3578TIP3   OH232148   1.447   3.487  16.074  0.1101 -0.0956  0.5040
 3578TIP3    H132149   1.446   3.407  16.126 -2.0790 -1.0880 -0.9017
 3578TIP3    H232150   1.488   3.461  15.991 -0.7594  0.1516 -0.0221
 3579TIP3   OH232151   1.533   0.679  14.614 -0.1927  0.1372  0.0548
 3579TIP3    H132152   1.617   0.715  14.586 -0.2879  1.9719  1.8188
 3579TIP3    H232153   1.468   0.742  14.581 -0.6775 -0.1910  0.3707
 3580TIP3   OH232154   1.470   3.091   5.846  0.4056  0.3942  0.0802
 3580TIP3    H132155   1.496   3.045   5.766 -2.2604  0.8114 -1.1426
 3580TIP3    H232156   1.395   3.041   5.878 -1.0958  2.4854  0.0182
 3581TIP3   OH232157   4.763   5.361  12.617  0.3432 -0.3991  0.0431
 3581TIP3    H132158   4.691   5.327  12.669 -0.3315  0.4211 -0.3212
 3581TIP3    H232159   4.842   5.339  12.666 -0.1874 -0.8588  0.6998
 3582TIP3   OH232160   6.086   6.726  12.036 -0.0963 -0.2188  0.0980
 3582TIP3    H132161   6.142   6.774  11.975 -1.2421  1.5052  0.3328
 3582TIP3    H232162   6.019   6.685  11.981 -0.2680  0.1118  0.0569
 3583TIP3   OH232163   4.831   6.456   0.717  0.1121  0.6404  0.2902
 3583TIP3    H132164   4.868   6.457   0.628 -0.5558  0.7589  0.0043
 3583TIP3    H232165   4.815   6.364   0.736  0.4007  0.6026  0.3478
 3584TIP3   OH232166   6.289   3.148  12.258  0.4089  0.0932  0.3327
 3584TIP3    H132167   6.321   3.098  12.333 -0.2632  2.3763  2.2638
 3584TIP3    H232168   6.346   3.225  12.253 -1.0175  1.1708  0.0160
 3585TIP3   OH232169   1.188   1.009  14.395  0.0894 -0.1204  0.3143
 3585TIP3    H132170   1.114   0.989  14.452  0.1165  2.5654  1.4943
 3585TIP3    H232171   1.149   1.054  14.320  0.4362  1.3725  0.9759
 3586TIP3   OH232172   4.476   6.054  16.368 -0.3318 -0.1629  0.1380
 3586TIP3    H132173   4.517   6.045  16.455 -1.3334  1.4643  0.8154
 3586TIP3    H232174   4.425   6.134  16.374 -0.2032  0.1249 -2.0745
 3587TIP3   OH232175   5.258   5.620   1.506 -0.0617 -0.1185  0.2859
 3587TIP3    H132176   5.283   5.704   1.544 -2.0559  0.0525  1.3586
 3587TIP3    H232177   5.193   5.585   1.566 -0.5013 -1.6654 -1.0160
 3588TIP3   OH232178   2.909   0.036   2.671  0.5801  0.1864  0.3942
 3588TIP3    H132179   2.908   0.065   2.762  1.7680  4.2952 -0.6948
 3588TIP3    H232180   3.000   0.048   2.644  0.2137 -0.7852 -1.3934
 3589TIP3   OH232181   2.668   5.223   6.628 -0.2679 -0.0286 -0.2141
 3589TIP3    H132182   2.753   5.195   6.594 -0.7603 -2.5493  0.4536
 3589TIP3    H232183   2.607   5.155   6.599 -2.1825  1.9204 -1.0064
 3590TIP3   OH232184   5.602   1.315  11.284  0.1851 -0.1045 -0.0172
 3590TIP3    H132185   5.687   1.332  11.243 -0.1002  0.6196 -0.3287
 3590TIP3    H232186   5.567   1.402  11.303  0.0774 -0.4186  1.3102
 3591TIP3   OH232187   5.341   5.694   4.451  0.0640 -0.2883 -0.1469
 3591TIP3    H132188   5.380   5.629   4.393  1.8094 -1.1718  1.9009
 3591TIP3    H232189   5.415   5.736   4.495 -1.1404  1.2095  0.5658
 3592TIP3   OH232190   1.591   3.171   6.599 -0.0339 -0.0514  0.4279
 3592TIP3    H132191   1.651   3.114   6.550  0.3299 -0.3380  1.1865
 3592TIP3    H232192   1.602   3.144   6.690 -1.4452 -0.2158  0.5706
 3593TIP3   OH232193   3.287   5.744   2.704 -0.3167  0.0053 -0.6237
 3593TIP3    H132194   3.325   5.687   2.771 -2.4455 -1.0570 -0.2491
 3593TIP3    H232195   3.362   5.768   2.649  1.4068  0.4091  1.7085
 3594TIP3   OH232196   1.813   0.833   3.265 -0.2569 -0.4155 -0.2502
 3594TIP3    H132197   1.772   0.896   3.324 -0.1390 -1.0045  0.4729
 3594TIP3    H232198   1.741   0.795   3.216 -0.6901 -1.9069  1.4584
 3595TIP3   OH232199   6.225   1.494  13.503 -0.5113  0.1303 -0.1815
 3595TIP3    H132200   6.304   1.526  13.460  0.8160 -1.5011  0.8988
 3595TIP3    H232201   6.230   1.529  13.592 -1.5422  0.8322 -0.3833
 3596TIP3   OH232202   4.338   6.558   1.647 -0.7073 -0.4013 -0.3452
 3596TIP3    H132203   4.301   6.503   1.578  0.7116  1.4777 -2.7470
 3596TIP3    H232204   4.418   6.512   1.673 -1.2865 -1.1557  0.1424
 3597TIP3   OH232205   5.188   2.164  12.031 -0.0772 -0.3876  0.2097
 3597TIP3    H132206   5.121   2.207  11.979 -0.6908  0.6130  1.7297
 3597TIP3    H232207   5.142   2.095  12.079  0.1020 -0.1359  0.7560
 3598TIP3   OH232208   5.643   4.956   5.255 -0.1105 -0.2024  0.0206
 3598TIP3    H132209   5.640   4.908   5.172 -0.6610 -0.9544  0.4630
 3598TIP3    H232210   5.724   4.925   5.297  0.7873  1.0445 -0.7240
 3599TIP3   OH232211   6.476   5.741   1.938 -0.5748 -0.6083 -0.3850
 3599TIP3    H132212   6.445   5.675   2.000 -0.9359 -1.1208 -1.0997
 3599TIP3    H232213   6.397   5.768   1.891 -0.1628 -0.8979 -1.2595
 3600TIP3   OH232214   6.133   1.023  17.205 -0.0495  0.0053  0.5383
 3600TIP3    H132215   6.156   1.111  17.233 -1.0844  1.0532 -1.6619
 3600TIP3    H232216   6.107   1.033  17.113 -3.5857 -1.9594  1.1544
 3601TIP3   OH232217   5.556   5.520   0.163  0.3756  0.4722  0.3907
 3601TIP3    H132218   5.473   5.549   0.201  0.1014  1.0128 -0.5965
 3601TIP3    H232219   5.531   5.467   0.088  0.8716 -1.9557  1.8087
 3602TIP3   OH232220   0.006   2.016   0.235 -0.5665  0.5972 -0.1318
 3602TIP3    H132221  -0.063   2.083   0.231 -1.4197 -0.2433  0.0164
 3602TIP3    H232222  -0.022   1.959   0.307  0.1378  0.0727 -0.2748
 3603TIP3   OH232223   6.314   3.568  14.616  0.1887 -0.3594  0.6097
 3603TIP3    H132224   6.304   3.491  14.673 -0.5693  0.3212  1.4264
 3603TIP3    H232225   6.269   3.543  14.535 -0.5183 -0.5913  1.0627
 3604TIP3   OH232226   5.201   2.161   2.750 -0.3356  0.2720  0.1439
 3604TIP3    H132227   5.257   2.086   2.729 -2.1511 -2.1135  3.0028
 3604TIP3    H232228   5.256   2.218   2.803  0.3722 -0.2878  0.0287
 3605TIP3   OH232229   2.142   5.817  12.683 -0.9579  0.7793 -0.5453
 3605TIP3    H132230   2.170   5.786  12.597  1.6826  2.2979 -0.3256
 3605TIP3    H232231   2.160   5.744  12.743  1.5852  1.2625 -0.6213
 3606TIP3   OH232232   4.175   2.828   0.306  0.0780 -0.4862 -0.3391
 3606TIP3    H132233   4.116   2.825   0.381  0.6269  2.7373  0.3583
 3606TIP3    H232234   4.118   2.837   0.230 -0.4266  0.4317  0.1284
 3607TIP3   OH232235   5.559   2.905  16.729  0.4788  0.3526  0.4863
 3607TIP3    H132236   5.587   2.879  16.641  0.0056  0.8456  0.1777
 3607TIP3    H232237   5.640   2.917  16.778  0.7821  0.9141 -0.1347
 3608TIP3   OH232238   5.252   6.361  17.134 -0.1031  0.2591 -0.0067
 3608TIP3    H132239   5.305   6.340  17.057  2.0962  1.2774  1.1252
 3608TIP3    H232240   5.287   6.304  17.203 -0.3425  1.0978  0.8187
 3609TIP3   OH232241   6.407   5.401   5.619  0.4910 -0.1083  0.0263
 3609TIP3    H132242   6.424   5.308   5.604 -2.3069 -0.4150 -2.2055
 3609TIP3    H232243   6.387   5.436   5.532 -3.2535  1.4330  1.3079
 3610TIP3   OH232244   2.060   1.260  13.756 -0.0502  0.6886  0.0291
 3610TIP3    H132245   2.064   1.169  13.785 -0.6666  0.3058 -1.0242
 3610TIP3    H232246   1.976   1.268  13.711  1.0109  1.0878 -2.0466
 3611TIP3   OH232247   4.548   2.488  10.419  0.0961  0.2892 -0.5467
 3611TIP3    H132248   4.631   2.518  10.382  1.2307 -0.8112  0.9981
 3611TIP3    H232249   4.506   2.440  10.347  2.3570 -2.0258 -0.4428
 3612TIP3   OH232250   2.297   3.729  14.615 -0.2191 -0.4785  0.4315
 3612TIP3    H132251   2.258   3.811  14.585 -3.9897 -2.0595  0.5368
 3612TIP3    H232252   2.281   3.727  14.709  0.7487 -0.9307  0.6075
 3613TIP3   OH232253   5.856   1.537  15.544  0.6064  0.9468 -0.7110
 3613TIP3    H132254   5.911   1.473  15.499  1.2951  0.5131  0.6782
 3613TIP3    H232255   5.816   1.487  15.615 -0.7688  1.5150 -1.0603
 3614TIP3   OH232256   6.538   4.297   4.081  0.5558 -0.3607  0.9980
 3614TIP3    H132257   6.456   4.248   4.083  0.9057 -1.0837 -0.8686
 3614TIP3    H232258   6.570   4.293   4.172 -1.1450 -0.5828  1.6146
 3615TIP3   OH232259   4.977   0.277  15.711  0.1052  0.5130  0.1058
 3615TIP3    H132260   4.985   0.317  15.798  0.6531  1.2816 -0.2853
 3615TIP3    H232261   4.920   0.337  15.662  0.6140  0.6243 -0.3662
 3616TIP3   OH232262   3.455   0.855  16.739  0.1328 -0.5789 -0.0925
 3616TIP3    H132263   3.496   0.792  16.680 -0.2949 -2.0610  1.0948
 3616TIP3    H232264   3.528   0.898  16.784  0.4495 -1.5082  0.3186
 3617TIP3   OH232265   6.389   3.177   2.365 -0.0229 -0.6058  0.1510
 3617TIP3    H132266   6.330   3.234   2.414 -0.0700  0.9139 -1.5548
 3617TIP3    H232267   6.468   3.230   2.353  1.1941 -2.1064  1.2341
 3618TIP3   OH232268   0.148   3.547   3.768 -0.2540  0.0474  0.1663
 3618TIP3    H132269   0.221   3.609   3.762 -0.7209  0.5716 -0.1727
 3618TIP3    H232270   0.105   3.568   3.850  0.1035 -0.4123  0.4768
 3619TIP3   OH232271   5.716   4.965   3.108  0.2354  0.0877 -0.6083
 3619TIP3    H132272   5.756   4.894   3.059 -0.3135  1.2952 -2.9106
 3619TIP3    H232273   5.777   5.038   3.099 -0.7680  0.8845 -1.1306
 3620TIP3   OH232274   2.184   1.500   5.033 -0.1027  0.5917 -0.6994
 3620TIP3    H132275   2.115   1.436   5.017  0.2866  0.2981 -1.2393
 3620TIP3    H232276   2.164   1.536   5.119 -0.6487  0.1514 -0.6394
 3621TIP3   OH232277   1.999   4.118   6.436  0.2458  0.1585 -0.6013
 3621TIP3    H132278   2.043   4.043   6.396  0.0376 -0.0362 -0.4650
 3621TIP3    H232279   1.906   4.096   6.431  0.2616 -0.4100  1.0462
 3622TIP3   OH232280   1.530   5.221  14.424 -0.5658 -0.2932  0.5706
 3622TIP3    H132281   1.526   5.200  14.331 -1.8277 -0.7929  0.7124
 3622TIP3    H232282   1.610   5.272  14.434 -0.1692 -0.6308 -0.7041
 3623TIP3   OH232283   4.761   0.184  13.224  0.0892 -0.2307 -0.1798
 3623TIP3    H132284   4.826   0.161  13.158 -1.1296 -0.9474 -1.1715
 3623TIP3    H232285   4.786   0.132  13.301  0.2545 -1.0880 -0.7984
 3624TIP3   OH232286   4.983   0.495   5.418  0.1468 -0.2383  0.0937
 3624TIP3    H132287   5.002   0.547   5.496 -0.4510 -0.2857  0.2794
 3624TIP3    H232288   4.977   0.559   5.348  0.2520 -0.1478  0.1668
 3625TIP3   OH232289   2.322   2.720   0.820 -0.1817 -0.1243 -0.3061
 3625TIP3    H132290   2.339   2.812   0.805 -2.2208  0.0197 -2.3696
 3625TIP3    H232291   2.355   2.675   0.742 -0.7539 -0.9000 -0.1253
 3626TIP3   OH232292   4.043   6.707  13.306 -0.3438  0.0022 -0.4240
 3626TIP3    H132293   4.130   6.676  13.283  0.5990  1.8106  0.5121
 3626TIP3    H232294   4.042   6.707  13.401 -0.2368  2.7659 -0.3388
 3627TIP3   OH232295   5.632   3.124  11.702  0.1440 -0.8874  0.3149
 3627TIP3    H132296   5.692   3.098  11.632  0.3568 -0.0267  0.1738
 3627TIP3    H232297   5.547   3.130  11.659  0.4221  0.5010 -0.0817
 3628TIP3   OH232298   2.199   1.948  12.776 -0.4543 -0.5540 -0.0860
 3628TIP3    H132299   2.291   1.952  12.747 -0.9861 -0.3123 -1.8414
 3628TIP3    H232300   2.176   2.039  12.796 -0.4442 -0.5508 -0.0888
 3629TIP3   OH232301   1.562   3.100  13.766 -0.3384 -0.0279  0.2406
 3629TIP3    H132302   1.550   3.113  13.860  1.1421 -0.8362  0.5636
 3629TIP3    H232303   1.636   3.040  13.759 -0.4057  0.0400 -1.4504
 3630TIP3   OH232304   3.879   6.597   4.294  0.3321 -0.5024 -0.7161
 3630TIP3    H132305   3.816   6.660   4.329  0.4162 -0.9001  0.2074
 3630TIP3    H232306   3.914   6.638   4.215  1.4735  1.2926  0.6398
 3631TIP3   OH232307   1.482   4.326   3.748  0.5143  0.0674 -0.0167
 3631TIP3    H132308   1.570   4.362   3.738  0.9334 -0.7159  0.7098
 3631TIP3    H232309   1.489   4.235   3.719  0.0822 -0.1588  0.5587
 3632TIP3   OH232310   0.300   2.009  13.188  0.5505  0.3995 -0.1575
 3632TIP3    H132311   0.326   1.946  13.121  2.4069  0.7070  0.2273
 3632TIP3    H232312   0.374   2.069  13.195 -0.1218  1.1166  1.3079
 3633TIP3   OH232313   0.479   5.712  12.833 -0.0174 -0.0621  0.0397
 3633TIP3    H132314   0.457   5.793  12.880 -0.4892  0.9977 -1.9045
 3633TIP3    H232315   0.395   5.669  12.820  0.0649 -0.1563 -0.1703
 3634TIP3   OH232316   2.320   0.354  12.081  0.1599 -0.0979  0.1595
 3634TIP3    H132317   2.249   0.291  12.078 -0.9443  1.1304 -1.0434
 3634TIP3    H232318   2.370   0.338  12.001 -0.4690  0.8828 -0.4563
 3635TIP3   OH232319   0.136   4.771   3.439  0.0431 -0.0018  0.5255
 3635TIP3    H132320   0.140   4.839   3.506  0.0990  0.9682 -0.4215
 3635TIP3    H232321   0.138   4.819   3.356 -1.2218 -1.0734 -0.1847
 3636TIP3   OH232322   0.650   2.433   5.160  0.0787  0.1941 -0.5213
 3636TIP3    H132323   0.602   2.445   5.078  0.7678 -1.2675 -1.1765
 3636TIP3    H232324   0.679   2.342   5.158 -1.3051 -0.4471  2.1262
 3637TIP3   OH232325   1.063   3.671   2.202  0.4442 -0.4383  0.2313
 3637TIP3    H132326   1.117   3.614   2.255  3.7659  1.5300 -0.7105
 3637TIP3    H232327   1.115   3.686   2.123 -1.8372  1.0708 -1.0980
 3638TIP3   OH232328   3.642   6.488   5.591 -0.4969  0.4591 -0.6792
 3638TIP3    H132329   3.569   6.445   5.635 -1.0548  0.4149 -1.6235
 3638TIP3    H232330   3.687   6.536   5.660 -1.0688  0.0109  0.0167
 3639TIP3   OH232331   4.224   0.061  14.063 -0.6549 -0.3303 -0.4081
 3639TIP3    H132332   4.213   0.105  13.978  0.8135  1.4418  0.2629
 3639TIP3    H232333   4.318   0.047  14.071 -0.6235  0.6773  1.4606
 3640TIP3   OH232334   3.725   5.503  16.380  0.4476  0.2837  0.6251
 3640TIP3    H132335   3.669   5.574  16.347  2.1547  1.1313 -0.6064
 3640TIP3    H232336   3.717   5.509  16.476 -1.7487  0.1688  0.4952
 3641TIP3   OH232337   2.289   5.010   6.109  0.4633 -0.4388  0.5105
 3641TIP3    H132338   2.273   4.982   6.199 -2.5645  3.1694  1.3723
 3641TIP3    H232339   2.209   5.056   6.084  1.7740  0.0293 -3.5207
 3642TIP3   OH232340   1.544   4.602  16.690 -0.1938 -0.6116 -0.0425
 3642TIP3    H132341   1.579   4.603  16.601  0.6202 -0.7701  0.2724
 3642TIP3    H232342   1.451   4.625  16.679 -0.4034 -1.8590 -1.0588
 3643TIP3   OH232343   0.956   1.148  12.297 -0.0554 -0.1067  0.1747
 3643TIP3    H132344   0.924   1.189  12.216 -1.6836  1.0990  1.3776
 3643TIP3    H232345   0.953   1.054  12.279  0.7601  0.1516 -1.5588
 3644TIP3   OH232346   5.356   4.145  16.494  0.4954  0.1318 -0.1055
 3644TIP3    H132347   5.372   4.219  16.553 -0.2315  1.3552 -1.3838
 3644TIP3    H232348   5.439   4.097  16.493  0.3977 -0.2207  2.2335
 3645TIP3   OH232349   2.731   3.580  12.791  0.0146  0.2059 -0.1162
 3645TIP3    H132350   2.664   3.516  12.769  1.3120 -1.2891  0.1207
 3645TIP3    H232351   2.810   3.529  12.804  0.9046  1.7726  1.0034
 3646TIP3   OH232352   0.791   4.308   3.995  0.2491 -0.2490  0.2718
 3646TIP3    H132353   0.843   4.258   3.932  2.8148  1.3861  0.9506
 3646TIP3    H232354   0.730   4.358   3.941 -0.2361 -1.6978 -0.5998
 3647TIP3   OH232355   1.200   6.073   2.756  0.1922  0.1773 -0.1038
 3647TIP3    H132356   1.231   6.022   2.831  1.2200  0.4727 -0.3109
 3647TIP3    H232357   1.121   6.116   2.787 -0.7023 -1.5228  0.0802
 3648TIP3   OH232358   0.765   3.972   4.288  0.4738 -0.3854 -0.2516
 3648TIP3    H132359   0.857   3.945   4.282 -0.2912 -3.0217 -1.6356
 3648TIP3    H232360   0.739   3.989   4.198 -0.3658  0.6594  0.1567
 3649TIP3   OH232361   0.444   1.700  13.939  0.0294  0.0701 -0.0011
 3649TIP3    H132362   0.385   1.642  13.987 -0.3679  0.9578  0.5992
 3649TIP3    H232363   0.459   1.655  13.855 -1.9490  0.1188 -0.4119
 3650TIP3   OH232364   4.450   4.740   5.617 -0.2147 -0.2111 -0.2913
 3650TIP3    H132365   4.480   4.700   5.699 -1.0257  1.2427  0.7616
 3650TIP3    H232366   4.473   4.676   5.549  1.0916 -1.1522  0.9758
 3651TIP3   OH232367   6.611   3.242  16.970  0.2850  0.9358 -0.3836
 3651TIP3    H132368   6.575   3.268  16.885 -0.5624  1.1663  0.0278
 3651TIP3    H232369   6.688   3.189  16.949 -0.7692 -0.2791 -1.3443
 3652TIP3   OH232370   6.608   0.033   2.296 -0.4132  0.8298 -0.5500
 3652TIP3    H132371   6.566  -0.053   2.300 -0.5044  0.8543 -0.9333
 3652TIP3    H232372   6.702   0.013   2.295 -0.3421  0.8288  1.7755
 3653TIP3   OH232373   5.996   2.084  14.153  0.3438 -0.2952 -0.2683
 3653TIP3    H132374   6.038   2.034  14.082  0.1117 -2.7268  1.1908
 3653TIP3    H232375   6.063   2.092  14.220 -0.0894  0.0248  0.1308
 3654TIP3   OH232376   4.714   3.609  15.787 -0.0483  0.3368  0.6438
 3654TIP3    H132377   4.677   3.527  15.755 -1.6554  1.6732 -1.2466
 3654TIP3    H232378   4.793   3.584  15.834 -0.6104 -2.2827  0.3329
 3655TIP3   OH232379   6.207   0.785  11.001 -0.3072 -0.0151 -1.0693
 3655TIP3    H132380   6.174   0.870  11.031 -1.7487 -0.3443 -1.6247
 3655TIP3    H232381   6.143   0.757  10.935  0.5241 -1.2164 -1.3890
 3656TIP3   OH232382   3.622   6.046  13.281 -0.4896  0.0094 -0.2821
 3656TIP3    H132383   3.635   6.087  13.366  1.0547  0.4233 -0.6808
 3656TIP3    H232384   3.549   6.094  13.242 -1.4627 -0.4331  0.9363
 3657TIP3   OH232385   0.844   3.075  12.029  0.1021 -0.6310  0.0764
 3657TIP3    H132386   0.913   3.140  12.043 -0.9215  0.2094  1.5795
 3657TIP3    H232387   0.841   3.063  11.934  0.6976  1.1268 -0.2030
 3658TIP3   OH232388   3.501   3.976   3.737 -0.1711  0.0402  0.0410
 3658TIP3    H132389   3.419   4.019   3.715  0.0263  1.0310  1.1535
 3658TIP3    H232390   3.564   4.010   3.673 -0.3518  0.2520 -0.0256
 3659TIP3   OH232391   3.780   3.461   5.455  0.1468 -0.0710  0.2161
 3659TIP3    H132392   3.826   3.453   5.371 -2.3565 -1.8735 -1.1448
 3659TIP3    H232393   3.797   3.377   5.499 -0.4145 -0.0584  0.4617
 3660TIP3   OH232394   0.860   4.858   4.175  0.0683 -0.1010 -0.2787
 3660TIP3    H132395   0.811   4.777   4.171 -0.8906  0.4122  0.5727
 3660TIP3    H232396   0.800   4.924   4.140 -0.5585  0.8188  2.3090
 3661TIP3   OH232397   3.327   4.734   1.070 -0.0659 -0.5857 -0.1624
 3661TIP3    H132398   3.421   4.735   1.050 -0.5953  1.2916 -3.1167
 3661TIP3    H232399   3.286   4.694   0.993 -1.8383  0.7510  0.0157
 3662TIP3   OH232400   3.062   5.356  13.071  0.2054  0.2123 -0.1552
 3662TIP3    H132401   3.024   5.311  12.996 -0.0232 -1.2859  0.8134
 3662TIP3    H232402   3.084   5.443  13.038 -1.5699  0.2262 -1.4629
 3663TIP3   OH232403   0.104   3.445   0.561  0.4200 -0.0144  0.0273
 3663TIP3    H132404   0.078   3.423   0.650 -1.4352  1.7629 -0.0211
 3663TIP3    H232405   0.074   3.372   0.508  0.6194 -0.6024  0.7161
 3664TIP3   OH232406   1.369   5.713  15.769  0.1186 -0.0378 -0.2856
 3664TIP3    H132407   1.332   5.798  15.744  1.0076  0.3763 -0.2113
 3664TIP3    H232408   1.331   5.651  15.707 -1.3606  0.2277  0.3053
 3665TIP3   OH232409   2.721   2.548  11.186  0.0054  0.2944 -0.4518
 3665TIP3    H132410   2.706   2.631  11.140 -0.8364 -0.1912 -1.0957
 3665TIP3    H232411   2.816   2.537  11.185  0.0387  0.5267 -1.7056
 3666TIP3   OH232412   1.288   5.222   4.511  0.0031 -0.3482 -0.4263
 3666TIP3    H132413   1.302   5.128   4.519  0.0907 -0.2084  2.2003
 3666TIP3    H232414   1.364   5.254   4.463 -0.2517 -1.6391 -1.7444
 3667TIP3   OH232415   4.173   3.170  15.504 -0.5504  0.5006  0.0929
 3667TIP3    H132416   4.117   3.200  15.575 -1.0943  1.9624 -0.9037
 3667TIP3    H232417   4.261   3.169  15.541 -0.7413  1.8246  0.6411
 3668TIP3   OH232418   0.999   6.660   4.277  0.4898 -0.5731 -0.2960
 3668TIP3    H132419   0.982   6.706   4.195  0.0517 -0.4772 -0.1539
 3668TIP3    H232420   0.972   6.722   4.345  1.2175 -0.4954 -0.0670
 3669TIP3   OH232421   1.574   6.622  15.666  0.1699 -0.1726 -0.1533
 3669TIP3    H132422   1.612   6.710  15.655  0.6905 -0.1990  1.2326
 3669TIP3    H232423   1.505   6.634  15.730  0.2897 -0.7823  0.0940
 3670TIP3   OH232424   4.930   4.163  11.240 -0.1014 -0.0124  0.2136
 3670TIP3    H132425   4.993   4.218  11.286 -1.9596  1.6968  0.8560
 3670TIP3    H232426   4.916   4.207  11.156  0.8036 -1.3374 -0.6879
 3671TIP3   OH232427   0.046   6.196   2.331  0.2083  0.3997  0.6440
 3671TIP3    H132428   0.075   6.222   2.243 -0.9351 -0.4101 -0.0098
 3671TIP3    H232429   0.004   6.274   2.367 -0.6938  0.3194 -0.1705
 3672TIP3   OH232430   3.382   4.479  13.063  0.1881 -0.1611  0.0586
 3672TIP3    H132431   3.330   4.439  12.993  0.4271 -1.6416  0.6804
 3672TIP3    H232432   3.414   4.561  13.025 -1.4635  0.1307 -0.7910
 3673TIP3   OH232433   5.851   4.978  12.882 -0.2135  0.0757  0.7329
 3673TIP3    H132434   5.932   4.990  12.932 -0.3388  0.2605  0.8948
 3673TIP3    H232435   5.862   5.035  12.806 -0.4004  0.4961  1.0109
 3674TIP3   OH232436   2.453   5.223   4.658 -0.0646  0.1628  0.2166
 3674TIP3    H132437   2.464   5.316   4.635  0.6471 -0.1333 -0.7091
 3674TIP3    H232438   2.362   5.217   4.688  0.3278  1.4456  1.7866
 3675TIP3   OH232439   0.177   4.476   3.445 -0.0925  0.4022  0.0180
 3675TIP3    H132440   0.212   4.562   3.419 -0.1907  0.7894  1.0950
 3675TIP3    H232441   0.084   4.492   3.463 -0.3344 -0.1482 -0.7235
 3676TIP3   OH232442   6.450   3.876  12.989  0.0403 -0.5365  0.5683
 3676TIP3    H132443   6.501   3.827  12.925 -0.0431  0.3036 -0.1619
 3676TIP3    H232444   6.384   3.814  13.020 -1.1217 -0.4499 -1.5519
 3677TIP3   OH232445   6.299   1.303  15.852 -0.0914 -0.5322  0.0037
 3677TIP3    H132446   6.327   1.360  15.780 -1.3416 -0.1144 -0.1834
 3677TIP3    H232447   6.369   1.310  15.917 -0.3638  1.5296  0.1370
 3678TIP3   OH232448   2.469   6.525  12.598 -0.0409  0.5931 -0.3196
 3678TIP3    H132449   2.551   6.557  12.637  0.0538 -0.8644  0.7285
 3678TIP3    H232450   2.488   6.435  12.572 -1.1258  0.4486 -0.6658
 3679TIP3   OH232451   1.833   2.435   0.480  0.3044  0.4170 -0.3968
 3679TIP3    H132452   1.888   2.496   0.529  1.2440 -0.3347 -0.4874
 3679TIP3    H232453   1.892   2.395   0.416  0.6076 -2.9808  1.7286
 3680TIP3   OH232454   2.460   2.199  12.963  0.0759 -0.1323  0.9771
 3680TIP3    H132455   2.497   2.163  12.882  0.4475 -0.9223  1.4818
 3680TIP3    H232456   2.497   2.287  12.969 -1.0566  0.4661 -0.4213
 3681TIP3   OH232457   1.007   2.724  12.847 -0.5697  0.3221 -0.8455
 3681TIP3    H132458   0.918   2.743  12.877  0.2160  0.2526  1.8136
 3681TIP3    H232459   1.005   2.630  12.826 -1.3006  0.4887 -1.5545
 3682TIP3   OH232460   1.912   3.919  13.276 -0.1806 -0.0611  0.0596
 3682TIP3    H132461   1.862   3.929  13.357 -0.4605  2.1936 -0.3108
 3682TIP3    H232462   2.004   3.921  13.305 -0.2469 -2.3199  0.5601
 3683TIP3   OH232463   5.483   0.443   5.271  0.0992  0.0248  0.8075
 3683TIP3    H132464   5.457   0.404   5.188 -2.5867  0.4420  1.3567
 3683TIP3    H232465   5.566   0.486   5.252 -1.8107  2.7941 -2.6111
 3684TIP3   OH232466   3.748   5.962  12.415  0.3826 -0.3031  0.7966
 3684TIP3    H132467   3.838   5.946  12.387  0.1156  0.2675 -0.4507
 3684TIP3    H232468   3.701   5.881  12.394  0.5635 -0.5404  1.2944
 3685TIP3   OH232469   2.320   2.799   3.216  0.4625 -0.0738 -0.0305
 3685TIP3    H132470   2.260   2.872   3.201  0.2828 -0.0134  0.9222
 3685TIP3    H232471   2.266   2.731   3.256  1.1176  0.1958  1.3829
 3686TIP3   OH232472   0.187   0.573  13.496  0.2798  0.0783  0.0873
 3686TIP3    H132473   0.144   0.526  13.424  0.5098  0.4733 -0.3134
 3686TIP3    H232474   0.275   0.536  13.500  0.5320  0.5952 -0.3660
 3687TIP3   OH232475   2.683   3.952  16.070  0.0098  0.1438 -0.5279
 3687TIP3    H132476   2.692   3.993  16.156 -0.5598  0.0354 -0.4102
 3687TIP3    H232477   2.598   3.909  16.073 -0.7606  1.4701 -1.6937
 3688TIP3   OH232478   3.475   0.855  13.682  0.2507  0.2659 -0.0505
 3688TIP3    H132479   3.444   0.938  13.719 -0.3274  0.0333 -0.0084
 3688TIP3    H232480   3.427   0.846  13.600 -1.9638 -1.4569  1.3087
 3689TIP3   OH232481   2.425   6.436   1.867 -0.6097  0.2052 -0.5627
 3689TIP3    H132482   2.351   6.481   1.908 -0.1909 -0.0749  0.5122
 3689TIP3    H232483   2.476   6.505   1.825 -0.9903  0.4986 -0.5474
 3690TIP3   OH232484   4.273   2.371  14.897  0.1030  0.0766 -0.4091
 3690TIP3    H132485   4.239   2.359  14.808 -1.0395  0.4108 -0.0301
 3690TIP3    H232486   4.256   2.463  14.918 -0.7858 -0.3072  0.6168
 3691TIP3   OH232487   4.317   1.031   5.024  0.1149  0.4293 -0.3212
 3691TIP3    H132488   4.302   0.941   5.054 -1.8327  0.3989 -1.2111
 3691TIP3    H232489   4.391   1.025   4.964 -0.9154 -0.8663 -1.5098
 3692TIP3   OH232490   4.296   5.882  14.210  0.0243  0.0355  0.5832
 3692TIP3    H132491   4.255   5.911  14.129 -0.5196  1.0560  1.1933
 3692TIP3    H232492   4.286   5.787  14.210  0.8770 -0.0749 -0.9724
 3693TIP3   OH232493   2.215   0.478  12.861  0.2157 -0.1780  0.0851
 3693TIP3    H132494   2.272   0.460  12.936  0.0356 -0.0386  0.2567
 3693TIP3    H232495   2.172   0.560  12.883  2.7269  1.7775 -1.6979
 3694TIP3   OH232496   5.675   5.677  12.834 -0.0685 -0.2498 -0.1185
 3694TIP3    H132497   5.743   5.674  12.766 -0.8124  1.6961 -1.0339
 3694TIP3    H232498   5.593   5.679  12.785 -0.8069 -1.8028  0.9552
 3695TIP3   OH232499   2.237   4.208   3.870 -0.3389 -0.5750  0.4095
 3695TIP3    H132500   2.267   4.206   3.778 -1.3683  0.5752  0.0236
 3695TIP3    H232501   2.175   4.280   3.873  0.6840  0.2910  2.3422
 3696TIP3   OH232502   2.292   4.996   0.163 -0.6229 -0.4549  0.1763
 3696TIP3    H132503   2.269   5.060   0.231 -0.4912  0.9668 -1.0678
 3696TIP3    H232504   2.363   4.945   0.202  0.0475  0.9096  0.8092
 3697TIP3   OH232505   3.942   2.860  15.264  0.9801 -0.4729  0.1838
 3697TIP3    H132506   3.980   2.808  15.335  0.4236  0.1132  0.9224
 3697TIP3    H232507   3.849   2.841  15.267  0.6826  0.9458  0.8139
 3698TIP3   OH232508   6.132   5.112   2.719 -0.1370 -0.1586 -0.4330
 3698TIP3    H132509   6.128   5.048   2.648 -0.1825 -1.7224  0.9205
 3698TIP3    H232510   6.217   5.155   2.708 -0.9754  1.1183 -2.6100
 3699TIP3   OH232511   1.874   3.925  10.998  0.4393 -0.1831  0.2255
 3699TIP3    H132512   1.908   3.883  11.077 -0.9071 -0.0677  0.8960
 3699TIP3    H232513   1.779   3.926  11.010  0.2841  0.9199 -0.8506
 3700TIP3   OH232514   6.338   3.517   4.315 -0.2330  0.0541 -0.3059
 3700TIP3    H132515   6.372   3.585   4.258  0.1468  1.2654  1.3103
 3700TIP3    H232516   6.266   3.559   4.363 -0.6619 -0.9870 -0.0021
 3701TIP3   OH232517   0.375   3.195  15.487  0.1908 -0.4241 -0.0499
 3701TIP3    H132518   0.436   3.126  15.460  0.0984 -1.0270  1.2497
 3701TIP3    H232519   0.390   3.206  15.580 -2.1506 -1.0470  0.4658
 3702TIP3   OH232520   5.978   1.079   5.618 -0.4021 -0.3006  0.1122
 3702TIP3    H132521   6.040   1.018   5.656  2.4273  0.3908 -2.9434
 3702TIP3    H232522   5.987   1.158   5.670  1.5886 -0.1240 -0.4264
 3703TIP3   OH232523   2.632   3.789   5.338  0.0432  0.5316  0.6583
 3703TIP3    H132524   2.639   3.743   5.255 -3.3693  0.8678  0.0441
 3703TIP3    H232525   2.662   3.878   5.319 -0.9347  0.6666 -0.2919
 3704TIP3   OH232526   2.997   1.561  12.351  0.3053 -0.4844 -0.2354
 3704TIP3    H132527   3.088   1.535  12.365  1.3676  1.7643 -2.1776
 3704TIP3    H232528   3.002   1.641  12.297 -2.7907  0.4799  0.6432
 3705TIP3   OH232529   3.063   4.057  17.096 -0.2270  0.0474 -0.4551
 3705TIP3    H132530   3.134   4.040  17.035 -0.6169  0.0159 -0.9083
 3705TIP3    H232531   2.985   4.022  17.053 -0.3944 -0.6716  0.3912
 3706TIP3   OH232532   3.722   4.101   5.541 -0.4738 -0.0993  0.0753
 3706TIP3    H132533   3.787   4.083   5.609 -1.5922  1.1662  1.5809
 3706TIP3    H232534   3.772   4.110   5.460  1.2675  1.0951  1.2185
 3707TIP3   OH232535   0.891   3.300  17.254  0.7441 -0.3667  0.3555
 3707TIP3    H132536   0.822   3.234  17.247  1.4123 -1.0409 -0.1675
 3707TIP3    H232537   0.845   3.382  17.270 -0.0642 -1.1321  2.2956
 3708TIP3   OH232538   0.266   4.782  14.523  0.6994  0.8871  0.0744
 3708TIP3    H132539   0.338   4.808  14.466  0.6871  0.6210 -0.0654
 3708TIP3    H232540   0.268   4.845  14.595  1.2166  0.7442  0.1897
 3709TIP3   OH232541   3.965   0.729   4.320  0.2933 -0.2025  0.2464
 3709TIP3    H132542   4.037   0.759   4.265  1.0733 -0.4004  1.1423
 3709TIP3    H232543   3.896   0.794   4.308  0.7248  0.1375 -0.3947
 3710TIP3   OH232544   5.555   5.639   5.448 -0.1591  0.2887 -0.2092
 3710TIP3    H132545   5.461   5.629   5.463 -0.4345 -1.0935 -2.3350
 3710TIP3    H232546   5.562   5.655   5.354  1.9101 -4.1787 -1.0643
 3711TIP3   OH232547   2.593   0.303  12.386 -0.5940 -0.4153  0.0094
 3711TIP3    H132548   2.547   0.220  12.369 -0.6689 -0.4120  0.1830
 3711TIP3    H232549   2.541   0.369  12.341 -1.0943 -0.3344  0.6747
 3712TIP3   OH232550   2.173   6.323  11.345 -0.4309  0.2692 -0.2870
 3712TIP3    H132551   2.161   6.237  11.383 -0.1411  0.8897  1.2806
 3712TIP3    H232552   2.089   6.367  11.355 -0.5962  0.1753 -1.1317
 3713TIP3   OH232553   4.648   4.270   5.405  0.0678  0.6800 -0.3888
 3713TIP3    H132554   4.628   4.179   5.429 -0.3979  1.1107  0.9266
 3713TIP3    H232555   4.566   4.304   5.370 -0.4633  1.2871  1.3669
 3714TIP3   OH232556   4.120   6.754  15.430  0.1056 -0.1441  0.3480
 3714TIP3    H132557   4.051   6.798  15.479  1.3836 -0.4120  2.5209
 3714TIP3    H232558   4.167   6.825  15.386 -0.9990  0.1132 -0.4432
 3715TIP3   OH232559   1.446   6.314  15.303  0.1190 -0.1985 -0.5712
 3715TIP3    H132560   1.426   6.221  15.293 -1.0795 -0.0322  0.1564
 3715TIP3    H232561   1.425   6.353  15.218 -0.0627 -0.4796 -0.6550
 3716TIP3   OH232562   4.307   4.166   3.662  0.0120 -0.6533  0.1052
 3716TIP3    H132563   4.343   4.211   3.585 -1.9672 -1.7000 -1.5197
 3716TIP3    H232564   4.234   4.221   3.689 -1.2099 -1.8184 -0.7029
 3717TIP3   OH232565   2.240   0.504   0.174 -0.0684 -0.3877  0.1842
 3717TIP3    H132566   2.314   0.475   0.227 -0.5951  0.9152  1.7310
 3717TIP3    H232567   2.246   0.453   0.094  1.6793 -1.3184  0.8548
 3718TIP3   OH232568   0.114   6.771  16.916 -0.1149 -0.2084 -0.8903
 3718TIP3    H132569   0.152   6.714  16.982  1.2457  0.8975 -0.6729
 3718TIP3    H232570   0.075   6.712  16.852 -0.7823 -1.3164  0.4884
 3719TIP3   OH232571   6.127   4.263   3.050 -0.2347 -0.2670  0.1428
 3719TIP3    H132572   6.179   4.184   3.066 -0.6156 -0.3165  1.1956
 3719TIP3    H232573   6.036   4.234   3.053 -0.4578  0.5169  2.5459
 3720TIP3   OH232574   3.629   2.204   3.959 -0.3176 -0.3638  0.7079
 3720TIP3    H132575   3.615   2.110   3.971  1.0478 -0.7820 -0.7158
 3720TIP3    H232576   3.712   2.210   3.912 -1.4143  1.4710 -1.1154
 3721TIP3   OH232577   3.232   1.099  10.662 -0.4556 -0.4647  0.5730
 3721TIP3    H132578   3.165   1.068  10.724 -0.3127 -0.8542  0.5376
 3721TIP3    H232579   3.307   1.041  10.678  0.6078  1.1963  1.9948
 3722TIP3   OH232580   2.874   2.943   0.338 -0.3308 -0.1916 -0.4424
 3722TIP3    H132581   2.895   3.013   0.276 -0.6341  0.4368  0.1602
 3722TIP3    H232582   2.954   2.890   0.342  1.7048  2.7269  2.6064
 3723TIP3   OH232583   5.343   0.450  14.472  0.2104 -0.2866  0.2721
 3723TIP3    H132584   5.316   0.367  14.512  0.6934 -0.0088  1.2147
 3723TIP3    H232585   5.289   0.516  14.517 -0.8368 -0.1456 -1.1073
 3724TIP3   OH232586   4.203   0.169   6.214  0.2617  0.5648 -0.0085
 3724TIP3    H132587   4.264   0.126   6.153  0.2917 -0.6458  0.8312
 3724TIP3    H232588   4.220   0.262   6.203  0.6801  0.3444 -1.4211
 3725TIP3   OH232589   4.099   4.625  12.165  0.3444 -0.3971 -0.3268
 3725TIP3    H132590   4.186   4.624  12.204 -0.4728  0.3000  1.6247
 3725TIP3    H232591   4.115   4.630  12.070  2.4007 -0.1436 -0.0094
 3726TIP3   OH232592   3.604   0.846  12.882 -0.1606  0.1939 -0.2933
 3726TIP3    H132593   3.561   0.781  12.827  0.1486 -0.5777  0.3538
 3726TIP3    H232594   3.600   0.927  12.832  0.5416 -0.5811 -1.6525
 3727TIP3   OH232595   4.231   1.156  12.003  0.0054 -0.0954  0.1536
 3727TIP3    H132596   4.224   1.193  12.092  1.0195 -2.4871  1.3134
 3727TIP3    H232597   4.221   1.062  12.016 -0.6046 -0.4464 -2.4265
 3728TIP3   OH232598   0.228   2.843   0.906 -0.0501  0.1410  0.0326
 3728TIP3    H132599   0.321   2.827   0.890  0.0934  0.6492  0.3350
 3728TIP3    H232600   0.226   2.915   0.969 -0.6154 -0.8708  1.2313
 3729TIP3   OH232601   3.673   4.523  15.406  0.1153  0.7032 -0.2614
 3729TIP3    H132602   3.631   4.581  15.342 -1.7129 -0.5358 -0.2397
 3729TIP3    H232603   3.720   4.459  15.353 -0.6508  0.2173 -0.3644
 3730TIP3   OH232604   6.759   2.510   4.096  0.1748  0.6884 -0.0761
 3730TIP3    H132605   6.751   2.595   4.140  0.7862  1.4285 -1.3295
 3730TIP3    H232606   6.669   2.485   4.077  0.0355  2.3966 -2.0581
 3731TIP3   OH232607   5.580   0.600  14.927 -0.1799  0.3677 -0.2439
 3731TIP3    H132608   5.581   0.566  14.838 -1.6905  0.8411 -0.4852
 3731TIP3    H232609   5.599   0.525  14.983  0.0057 -0.0955 -0.9246
 3732TIP3   OH232610   2.113   0.349   5.159 -0.4055  0.1544 -0.4008
 3732TIP3    H132611   2.117   0.417   5.092  1.3607 -0.3496 -0.8648
 3732TIP3    H232612   2.192   0.362   5.212 -2.4080  1.3955  2.5251
 3733TIP3   OH232613   3.518   4.479  17.126  0.1768 -1.0879  0.2576
 3733TIP3    H132614   3.431   4.439  17.128  0.0796 -0.9238 -0.3719
 3733TIP3    H232615   3.511   4.548  17.059  0.8906 -1.3187 -0.0693
 3734TIP3   OH232616   5.326   2.151   3.344  0.0351  0.2140 -0.5871
 3734TIP3    H132617   5.259   2.219   3.351 -0.0784  0.1864 -1.3076
 3734TIP3    H232618   5.335   2.117   3.433 -0.7132  0.4067 -0.4262
 3735TIP3   OH232619   2.065   0.953   3.253  0.4493 -0.1552  0.0783
 3735TIP3    H132620   1.970   0.942   3.262  0.0437  2.0459 -0.8308
 3735TIP3    H232621   2.088   0.904   3.174 -0.2275  0.6099 -0.6028
 3736TIP3   OH232622   0.976   6.332   3.485 -0.2202  0.1046  0.6145
 3736TIP3    H132623   1.023   6.381   3.553 -0.2101  0.7683  0.1402
 3736TIP3    H232624   0.907   6.392   3.455  1.7843  1.2276 -2.2835
 3737TIP3   OH232625   0.220   5.316  16.618 -0.1815  0.1191  0.0449
 3737TIP3    H132626   0.214   5.327  16.523  0.5024 -0.5347 -0.0771
 3737TIP3    H232627   0.289   5.377  16.645  0.0925 -0.1890  0.0354
 3738TIP3   OH232628   5.838   5.959  13.627  0.1794  0.3861 -0.0446
 3738TIP3    H132629   5.917   5.988  13.581  0.7012  0.3605  0.8071
 3738TIP3    H232630   5.767   6.008  13.587  0.6745  0.6890 -0.5695
 3739TIP3   OH232631   5.958   2.308   3.862 -0.2088 -0.2869 -0.2913
 3739TIP3    H132632   5.897   2.364   3.813 -1.0671 -0.0744  0.9674
 3739TIP3    H232633   5.901   2.257   3.920  0.8425  0.4362  1.4462
 3740TIP3   OH232634   3.900   0.696  16.696 -0.5648 -0.6914  0.2319
 3740TIP3    H132635   3.954   0.681  16.773 -0.7895 -2.5281  0.0628
 3740TIP3    H232636   3.960   0.686  16.622 -0.8054 -1.2000  0.1002
 3741TIP3   OH232637   5.017   5.909  17.050 -0.3468 -0.1934 -0.0210
 3741TIP3    H132638   5.024   5.980  16.987  1.3898  0.0011  0.3259
 3741TIP3    H232639   5.096   5.856  17.036 -0.7376 -1.0656  0.8886
 3742TIP3   OH232640   1.975   0.979  11.346 -0.3390  0.1750 -0.5956
 3742TIP3    H132641   1.990   0.997  11.253  2.2734  0.5192 -0.1729
 3742TIP3    H232642   1.880   0.989  11.357 -0.9036 -1.0283 -3.4295
 3743TIP3   OH232643   5.254   6.606   1.285  0.2600  0.0770 -0.2917
 3743TIP3    H132644   5.343   6.628   1.313  0.0590 -0.3231  0.6947
 3743TIP3    H232645   5.247   6.511   1.300 -0.8907  0.3839  1.2819
 3744TIP3   OH232646   4.925   5.012   6.039 -0.6048  0.0304  0.2775
 3744TIP3    H132647   4.844   4.963   6.053 -1.6279  1.8436  1.0118
 3744TIP3    H232648   4.958   5.030   6.127 -0.5530  1.0960  0.0587
 3745TIP3   OH232649   5.606   4.739   5.608 -0.0781 -0.0078 -0.4588
 3745TIP3    H132650   5.652   4.823   5.609  0.9813 -0.5690 -0.9100
 3745TIP3    H232651   5.595   4.717   5.701 -0.4191  0.6367 -0.3341
 3746TIP3   OH232652   3.438   6.334   0.934  0.0630  0.1753 -0.3208
 3746TIP3    H132653   3.391   6.414   0.957 -1.5125 -1.6696  3.7994
 3746TIP3    H232654   3.378   6.285   0.879  0.4111  1.0965 -1.5585
 3747TIP3   OH232655   6.291   1.149  15.054 -0.5100  0.4438 -0.4117
 3747TIP3    H132656   6.230   1.221  15.038 -0.3113  0.6117 -0.4088
 3747TIP3    H232657   6.284   1.095  14.974 -0.6766  0.4498 -0.4036
 3748TIP3   OH232658   5.822   3.980  14.950 -0.4656  0.5677 -0.4116
 3748TIP3    H132659   5.770   3.903  14.974  1.2282 -0.6962 -0.6058
 3748TIP3    H232660   5.765   4.055  14.970 -2.2020 -0.7167 -0.2949
 3749TIP3   OH232661   0.018   6.239  14.622  0.2660  0.0795 -0.5239
 3749TIP3    H132662  -0.061   6.184  14.628  0.7640 -0.8887 -2.1017
 3749TIP3    H232663  -0.015   6.325  14.593 -0.2745 -0.1337 -0.5489
 3750TIP3   OH232664   1.054   1.260  16.948 -0.1464  0.2643  0.8312
 3750TIP3    H132665   1.088   1.221  17.028 -0.1436 -0.4376  0.4962
 3750TIP3    H232666   1.094   1.346  16.944  1.4480 -0.4647  0.5428
 3751TIP3   OH232667   3.855   0.803   0.549  0.1932 -0.6932  0.2061
 3751TIP3    H132668   3.926   0.831   0.607  1.1724  0.5699 -1.4850
 3751TIP3    H232669   3.880   0.715   0.523 -0.6348 -1.5691  2.1891
 3752TIP3   OH232670   3.481   1.421   2.976 -0.9562  0.6664 -0.2483
 3752TIP3    H132671   3.572   1.407   3.002 -1.2484  0.6177  0.8295
 3752TIP3    H232672   3.481   1.415   2.881  0.0940  0.2336 -0.2314
 3753TIP3   OH232673   4.576   5.090   3.342 -0.1131 -0.2699 -0.3426
 3753TIP3    H132674   4.650   5.143   3.370 -0.3710 -0.8066  1.4647
 3753TIP3    H232675   4.509   5.154   3.317  0.2552  0.2282 -0.0787
 3754TIP3   OH232676   1.353   4.270  13.539  0.3990  0.1400  0.1030
 3754TIP3    H132677   1.304   4.326  13.599  1.0237 -0.4542  1.1924
 3754TIP3    H232678   1.294   4.256  13.465 -0.4556  0.7152  0.6651
 3755TIP3   OH232679   2.037   0.690  11.015 -0.5200  0.4013 -0.3590
 3755TIP3    H132680   2.072   0.700  10.927  0.0780 -0.6914 -0.2594
 3755TIP3    H232681   2.087   0.618  11.053 -0.9803  0.6504  0.7685
 3756TIP3   OH232682   3.381   5.952  11.046  0.9936 -0.2479 -0.6945
 3756TIP3    H132683   3.474   5.956  11.067  0.8942  0.5835 -0.3920
 3756TIP3    H232684   3.378   5.957  10.950  1.3026 -1.2921 -0.7677
 3757TIP3   OH232685   2.770   4.902   6.735  0.2771 -0.6139 -0.0844
 3757TIP3    H132686   2.714   4.871   6.806 -0.0794 -0.4369 -0.2835
 3757TIP3    H232687   2.813   4.823   6.702  0.5531 -0.6749  0.4203
 3758TIP3   OH232688   4.575   0.605   4.331  0.3091  0.3869  0.3296
 3758TIP3    H132689   4.483   0.581   4.343  0.4280 -0.9333 -1.0186
 3758TIP3    H232690   4.585   0.612   4.236  1.2010  2.3369  0.5222
 3759TIP3   OH232691   2.481   4.862   4.910 -0.0456 -0.1199  0.3665
 3759TIP3    H132692   2.521   4.870   4.997  2.1992 -1.6519 -0.4498
 3759TIP3    H232693   2.553   4.839   4.852 -1.9603 -2.1435 -1.3930
 3760TIP3   OH232694   3.572   1.309   0.802 -0.3673 -0.0191  0.1477
 3760TIP3    H132695   3.641   1.250   0.834 -0.5423 -0.0165  0.5255
 3760TIP3    H232696   3.512   1.252   0.754 -0.0785 -0.0147 -0.2244
 3761TIP3   OH232697   0.084   5.119   0.069  0.5071 -0.0071 -0.2372
 3761TIP3    H132698   0.008   5.175   0.054  0.0738  0.0987  1.9856
 3761TIP3    H232699   0.048   5.030   0.069  0.3745  0.0340  0.6632
 3762TIP3   OH232700   0.559   2.334  14.735 -0.0368  0.1833 -0.0404
 3762TIP3    H132701   0.586   2.305  14.648 -1.3457  0.6175 -0.6248
 3762TIP3    H232702   0.601   2.419  14.747  2.3285 -1.0436  0.9169
 3763TIP3   OH232703   6.444   0.968  16.435  0.1810 -0.2078 -0.3137
 3763TIP3    H132704   6.410   0.917  16.362 -0.8564 -0.6346  0.4269
 3763TIP3    H232705   6.499   0.907  16.484 -2.5991 -1.3558  1.6722
 3764TIP3   OH232706   5.125   6.173   0.745  0.1239 -0.2062 -0.2522
 3764TIP3    H132707   5.193   6.143   0.685  0.1046  2.6167 -1.8860
 3764TIP3    H232708   5.163   6.162   0.832  1.1194 -2.1578 -0.8697
 3765TIP3   OH232709   2.126   0.532   3.002 -0.0269 -0.1952  0.1663
 3765TIP3    H132710   2.125   0.519   3.097 -1.1550 -0.2389  0.1700
 3765TIP3    H232711   2.123   0.444   2.965  1.3948 -0.2142  0.0685
 3766TIP3   OH232712   6.324   0.372   2.474  0.1549 -0.0448 -0.0766
 3766TIP3    H132713   6.315   0.364   2.379  2.1241  0.9437 -0.3948
 3766TIP3    H232714   6.388   0.305   2.498  0.1825  0.1663  0.4499
 3767TIP3   OH232715   4.771   2.139   4.326  0.6385  0.1701  0.0625
 3767TIP3    H132716   4.799   2.076   4.393 -0.8768  0.5698  1.1233
 3767TIP3    H232717   4.760   2.221   4.374 -1.3245  0.2643 -0.4577
 3768TIP3   OH232718   4.851   3.071  12.476 -0.1914 -0.0457 -0.0517
 3768TIP3    H132719   4.916   3.038  12.414 -0.4299  1.5688 -1.2274
 3768TIP3    H232720   4.826   3.157  12.442 -1.9528 -0.0320  1.1074
 3769TIP3   OH232721   0.954   4.719   1.351 -0.2492 -0.2551  0.5206
 3769TIP3    H132722   1.004   4.642   1.380 -0.0969 -0.8386 -1.2122
 3769TIP3    H232723   0.916   4.693   1.267 -1.9735  0.8349  0.9191
 3770TIP3   OH232724   3.036   6.591   4.592 -0.0649 -0.4106  0.4129
 3770TIP3    H132725   2.962   6.546   4.634  0.4305 -1.0670  0.5848
 3770TIP3    H232726   3.099   6.604   4.662 -0.6770  1.6322  0.6417
 3771TIP3   OH232727   5.145   1.532  16.728  0.6017  0.3995  0.5361
 3771TIP3    H132728   5.067   1.540  16.673 -1.1407  0.7397  2.9388
 3771TIP3    H232729   5.192   1.614  16.716 -0.8951  1.3791  1.1777
 3772TIP3   OH232730   6.291   0.289  13.495 -0.8979  0.0642 -0.0568
 3772TIP3    H132731   6.225   0.358  13.486 -1.4670 -0.3200  0.9333
 3772TIP3    H232732   6.283   0.238  13.414 -1.4072  0.3791 -0.2119
 3773TIP3   OH232733   2.061   3.075   1.116  0.3439 -0.1845  0.2047
 3773TIP3    H132734   2.123   3.011   1.081  0.2419 -0.8943  1.2670
 3773TIP3    H232735   2.022   3.116   1.039 -0.5090 -2.2960 -0.5641
 3774TIP3   OH232736   2.203   5.512   5.975 -0.0033  0.2978 -0.1626
 3774TIP3    H132737   2.172   5.444   5.915 -0.3870 -0.4380  0.8374
 3774TIP3    H232738   2.297   5.518   5.958 -0.0840  0.0040 -0.7357
 3775TIP3   OH232739   2.457   0.104   1.559  0.0590 -0.0734  0.2301
 3775TIP3    H132740   2.453   0.069   1.471 -0.0915 -1.3475  0.7222
 3775TIP3    H232741   2.496   0.191   1.549  1.9124 -0.9732 -0.8607
 3776TIP3   OH232742   4.728   2.537  15.325  0.2064  0.3147 -0.2408
 3776TIP3    H132743   4.769   2.588  15.255 -0.2982  0.2544 -0.5852
 3776TIP3    H232744   4.752   2.446  15.307  1.5580  0.4696  0.6817
 3777TIP3   OH232745   3.572   3.312  13.257 -0.7315 -0.0042  0.6954
 3777TIP3    H132746   3.505   3.269  13.203  1.0467 -2.1186  0.0165
 3777TIP3    H232747   3.590   3.249  13.327  0.5293  0.4855  0.8378
 3778TIP3   OH232748   5.602   4.257   2.448 -0.5014  0.5452  0.3143
 3778TIP3    H132749   5.674   4.196   2.431 -2.0570 -1.5593  0.8703
 3778TIP3    H232750   5.573   4.285   2.362  0.4721  0.8028  0.0605
 3779TIP3   OH232751   5.521   2.654  16.516  0.7165 -0.0866  0.4999
 3779TIP3    H132752   5.495   2.609  16.596  0.4723 -0.8615 -0.0041
 3779TIP3    H232753   5.519   2.586  16.449  3.9100 -0.1840  0.3818
 3780TIP3   OH232754   6.620   0.677   0.583 -0.1290 -0.1177 -0.1027
 3780TIP3    H132755   6.574   0.657   0.665 -0.5543 -1.4472 -0.6464
 3780TIP3    H232756   6.642   0.592   0.546 -0.3499  0.4500 -1.6021
 3781TIP3   OH232757   5.213   5.419   3.210  0.1255  0.4707  0.1098
 3781TIP3    H132758   5.228   5.379   3.124 -0.3878  1.7227 -0.5858
 3781TIP3    H232759   5.186   5.509   3.190 -1.1266  0.4500  1.5411
 3782TIP3   OH232760   6.652   4.515   3.918  0.5539 -0.0158  0.2138
 3782TIP3    H132761   6.609   4.442   3.963 -1.4435  0.8345 -0.2038
 3782TIP3    H232762   6.632   4.591   3.972  1.3036  0.4583 -0.1654
 3783TIP3   OH232763   2.418   2.777  12.459  0.9634 -0.4880 -0.1834
 3783TIP3    H132764   2.392   2.845  12.397  1.4876 -0.2933 -0.1860
 3783TIP3    H232765   2.341   2.719  12.463 -0.3967  1.3110  1.5739
 3784TIP3   OH232766   4.711   3.663  16.918  0.2169 -0.0795  0.4963
 3784TIP3    H132767   4.635   3.621  16.959  0.1641  0.2642  0.7616
 3784TIP3    H232768   4.754   3.593  16.869 -0.9854 -0.0187 -0.7256
 3785TIP3   OH232769   3.478   3.581  13.061  0.5701 -0.1526  0.4329
 3785TIP3    H132770   3.476   3.648  12.993 -0.2812  0.2836  0.8654
 3785TIP3    H232771   3.564   3.590  13.101  1.0654 -0.3782 -0.5373
 3786TIP3   OH232772   4.804   6.170  14.902 -0.2065 -0.2176  0.3449
 3786TIP3    H132773   4.889   6.209  14.924 -0.7400  0.7473  0.7493
 3786TIP3    H232774   4.789   6.196  14.811 -0.9851  1.3474  0.8962
 3787TIP3   OH232775   1.286   1.620   3.419 -0.4338 -0.3123  0.1349
 3787TIP3    H132776   1.193   1.640   3.424 -0.5010 -0.6840  0.4641
 3787TIP3    H232777   1.293   1.529   3.449 -0.0727 -0.6011 -0.7796
 3788TIP3   OH232778   0.130   5.954   2.045 -0.0077  0.4596  0.5471
 3788TIP3    H132779   0.054   5.948   1.987 -0.0976 -1.8423  0.8055
 3788TIP3    H232780   0.180   6.028   2.011  0.2198 -1.0615 -2.8870
 3789TIP3   OH232781   5.374   1.068  14.449 -0.0275 -0.4108 -0.0133
 3789TIP3    H132782   5.302   1.126  14.426 -0.5363 -1.2077 -0.4815
 3789TIP3    H232783   5.362   0.991  14.393 -0.1640 -1.5695  1.5528
 3790TIP3   OH232784   1.099   6.148  12.278  0.0641 -0.4907 -0.0100
 3790TIP3    H132785   1.139   6.084  12.219  0.1330 -2.3202  1.8751
 3790TIP3    H232786   1.067   6.095  12.352 -2.5848  1.3027  0.2820
 3791TIP3   OH232787   3.466   2.194   5.111 -0.2262  0.0209 -0.0116
 3791TIP3    H132788   3.518   2.256   5.162 -0.4712 -1.3433  1.9888
 3791TIP3    H232789   3.512   2.111   5.119 -1.8176 -0.8554  0.4563
 3792TIP3   OH232790   0.005   3.913   5.249 -0.1527 -0.4861  0.0404
 3792TIP3    H132791  -0.007   3.971   5.174  0.7148 -1.5094 -0.9188
 3792TIP3    H232792  -0.071   3.855   5.246 -0.4764 -0.0856  0.3759
 3793TIP3   OH232793   4.661   3.409  13.698 -0.1543 -0.4929 -0.1833
 3793TIP3    H132794   4.646   3.339  13.762 -0.0454 -1.0210 -0.7227
 3793TIP3    H232795   4.688   3.484  13.751 -1.0831 -0.6015  0.4823
 3794TIP3   OH232796   5.606   4.223   4.150 -0.2334 -0.4160 -0.6494
 3794TIP3    H132797   5.552   4.155   4.190  0.9527 -1.5982 -1.0025
 3794TIP3    H232798   5.676   4.176   4.105  2.0343  1.0476  1.0720
 3795TIP3   OH232799   3.402   6.755  12.114  0.4815  0.2582 -0.0176
 3795TIP3    H132800   3.336   6.706  12.163  2.6967 -2.1219  0.8401
 3795TIP3    H232801   3.401   6.717  12.026  0.1069  0.8731 -0.2884
 3796TIP3   OH232802   4.048   6.275  12.401 -0.0347 -0.1483 -0.4055
 3796TIP3    H132803   4.088   6.332  12.466  0.9819  0.8174 -1.8079
 3796TIP3    H232804   4.122   6.247  12.346 -0.8159 -1.1549 -0.9798
 3797TIP3   OH232805   3.727   1.134  16.789 -0.0120 -0.5672  0.3492
 3797TIP3    H132806   3.644   1.164  16.826  1.5739  2.8272  1.6765
 3797TIP3    H232807   3.749   1.056  16.839 -0.4911  0.8754  3.0152
 3798TIP3   OH232808   0.579   6.739   2.035 -0.1073 -0.5950 -0.1249
 3798TIP3    H132809   0.660   6.693   2.059 -0.9266 -1.3694  1.3315
 3798TIP3    H232810   0.609   6.821   1.997  1.4932  1.0937  4.1087
 3799TIP3   OH232811   5.404   3.438   4.389  0.2193  1.1659  0.2443
 3799TIP3    H132812   5.351   3.491   4.448  0.4402  0.8000  0.7793
 3799TIP3    H232813   5.382   3.348   4.411  1.6184  0.9823  1.0167
 3800TIP3   OH232814   6.136   4.831  15.152  0.1878  0.4670 -0.4837
 3800TIP3    H132815   6.085   4.881  15.216 -0.8936 -0.4119 -0.6337
 3800TIP3    H232816   6.111   4.740  15.167 -1.2308  0.3197 -3.0719
 3801TIP3   OH232817   3.904   3.466   5.211 -0.1785 -0.0477 -0.4083
 3801TIP3    H132818   3.987   3.466   5.163 -0.5049 -0.3577 -0.9888
 3801TIP3    H232819   3.839   3.493   5.146 -0.7839 -1.4754 -0.4355
 3802TIP3   OH232820   3.737   0.496  10.407  0.4609  0.7323 -0.0343
 3802TIP3    H132821   3.818   0.546  10.394  0.3506  0.9240  0.0071
 3802TIP3    H232822   3.765   0.414  10.448  0.6531  0.7242 -0.1811
 3803TIP3   OH232823   3.326   6.473  12.943  0.5908  0.1357  0.2825
 3803TIP3    H132824   3.357   6.405  12.882 -1.1302 -1.5863  1.1971
 3803TIP3    H232825   3.265   6.525  12.891  1.2903  0.4765 -0.2082
 3804TIP3   OH232826   1.948   0.690  11.274 -0.4153 -0.2371 -0.1465
 3804TIP3    H132827   1.969   0.770  11.322 -0.2442 -1.9056  2.7588
 3804TIP3    H232828   2.012   0.688  11.203  0.9098  1.1840  0.9252
 3805TIP3   OH232829   1.372   4.028  12.450 -0.1443 -0.2645 -0.2528
 3805TIP3    H132830   1.455   3.982  12.439  0.4493 -0.2105  3.1208
 3805TIP3    H232831   1.397   4.120  12.456 -0.4024 -0.2511  0.7986
 3806TIP3   OH232832   4.248   3.354  15.306  0.1943  0.0450  0.3813
 3806TIP3    H132833   4.172   3.401  15.270  0.6513  0.4370 -0.0841
 3806TIP3    H232834   4.209   3.284  15.359 -0.6141 -1.9933 -2.6081
 3807TIP3   OH232835   5.914   2.380  17.085  0.1613  0.8899  0.7033
 3807TIP3    H132836   5.851   2.334  17.030 -2.5013  3.1788  1.5817
 3807TIP3    H232837   5.936   2.459  17.036  0.9132  1.0113  1.2218
 3808TIP3   OH232838   5.524   3.120  12.335  0.0860  0.0318  0.2287
 3808TIP3    H132839   5.578   3.171  12.395 -1.1668  1.9241 -0.1754
 3808TIP3    H232840   5.582   3.051  12.303  0.7429 -1.2602  3.7480
 3809TIP3   OH232841   3.561   3.202  12.213 -0.1901 -0.5870  0.5282
 3809TIP3    H132842   3.537   3.113  12.242  1.7687 -0.8093  1.5996
 3809TIP3    H232843   3.653   3.195  12.189  0.1720  1.2945  1.2462
 3810TIP3   OH232844   5.452   4.924  13.798  0.3139  0.2196  0.2497
 3810TIP3    H132845   5.464   4.847  13.853  1.9894 -0.6633 -1.2477
 3810TIP3    H232846   5.477   4.998  13.854 -0.1541 -0.4103  1.3284
 3811TIP3   OH232847   1.956   5.263  15.495  0.1497 -0.0825 -0.3522
 3811TIP3    H132848   2.045   5.296  15.500  0.2261 -0.3313  0.0888
 3811TIP3    H232849   1.953   5.194  15.562 -0.9575  1.3080  1.1263
 3812TIP3   OH232850   5.582   3.921  10.871  0.3080  0.1831 -0.6448
 3812TIP3    H132851   5.628   3.887  10.794 -1.9226 -1.0346 -1.5290
 3812TIP3    H232852   5.561   3.844  10.923  0.7647  0.8869  0.6286
 3813TIP3   OH232853   5.938   0.007   4.937 -0.1093 -0.5160 -0.5412
 3813TIP3    H132854   5.950  -0.053   4.864 -0.0432 -0.7735 -0.3204
 3813TIP3    H232855   5.846   0.034   4.931  0.4194  1.1753 -2.0164
 3814TIP3   OH232856   0.482   2.853  14.195  0.2331  0.6576 -0.1281
 3814TIP3    H132857   0.537   2.862  14.117 -1.2445  0.1282 -1.2972
 3814TIP3    H232858   0.540   2.871  14.268  1.8455  0.5007 -1.3155
 3815TIP3   OH232859   2.382   3.834  16.439  0.5283 -0.3217  0.2364
 3815TIP3    H132860   2.459   3.778  16.426  0.7313 -0.7338  2.7638
 3815TIP3    H232861   2.391   3.867  16.528 -2.3379 -0.5613  0.7050
 3816TIP3   OH232862   6.275   2.854  16.910  0.2453 -0.3418  0.7119
 3816TIP3    H132863   6.318   2.935  16.938 -0.6148  0.4959 -0.3045
 3816TIP3    H232864   6.245   2.872  16.821 -0.2408 -1.6778  0.5826
 3817TIP3   OH232865   2.084   4.535  15.995  0.1834  0.0317 -0.4406
 3817TIP3    H132866   2.101   4.611  16.051  0.4066 -1.3690  1.5023
 3817TIP3    H232867   2.134   4.464  16.036 -1.7497 -1.6771 -0.9011
 3818TIP3   OH232868   1.370   3.585   1.674  0.0134 -0.8233 -0.3402
 3818TIP3    H132869   1.377   3.530   1.751  1.0883 -1.5904 -0.9579
 3818TIP3    H232870   1.447   3.563   1.621 -0.9731 -0.7088 -1.8894
 3819TIP3   OH232871   6.544   2.071   3.456 -0.0552 -0.1754 -0.0281
 3819TIP3    H132872   6.600   2.145   3.479 -0.6662  0.1104  0.5690
 3819TIP3    H232873   6.604   1.996   3.454  0.6444  0.3854 -1.0559
 3820TIP3   OH232874   2.785   4.596   2.715 -0.1375 -0.3568  0.5316
 3820TIP3    H132875   2.729   4.566   2.786  1.0215 -1.3950  1.0299
 3820TIP3    H232876   2.758   4.687   2.700 -1.5516 -0.6541  1.1218
 3821TIP3   OH232877   3.607   2.561  11.033 -0.7704  0.3579  0.3660
 3821TIP3    H132878   3.598   2.611  10.952 -0.9953  0.1470  0.2593
 3821TIP3    H232879   3.698   2.572  11.059 -0.8516  0.9505  0.4251
 3822TIP3   OH232880   5.955   5.918  12.414  0.6994 -0.3342 -0.2105
 3822TIP3    H132881   5.865   5.902  12.386  1.2900 -1.1413 -1.7543
 3822TIP3    H232882   5.950   5.997  12.467 -0.9664 -0.5599  0.0109
 3823TIP3   OH232883   3.011   6.015  14.802  0.1602 -0.4862 -0.8230
 3823TIP3    H132884   3.003   5.982  14.712  0.9809 -0.4886 -0.8992
 3823TIP3    H232885   2.974   6.103  14.798  0.7386 -0.2570 -1.3056
 3824TIP3   OH232886   3.444   0.022   2.533 -0.1982 -0.1473  0.4157
 3824TIP3    H132887   3.416  -0.064   2.565 -1.0899  0.1029  0.3291
 3824TIP3    H232888   3.509   0.002   2.465 -2.1477 -0.8517 -1.3263
 3825TIP3   OH232889   5.365   4.323  12.937  0.0303 -0.3620  0.1553
 3825TIP3    H132890   5.412   4.402  12.910 -0.0994 -0.9402 -1.9321
 3825TIP3    H232891   5.273   4.343  12.925 -0.2718  0.2371  2.7906
 3826TIP3   OH232892   0.882   3.090  16.835 -0.4944  0.8590 -0.7132
 3826TIP3    H132893   0.934   3.036  16.893  1.0331  2.0542 -0.9079
 3826TIP3    H232894   0.853   3.031  16.765  2.6288  0.5668 -1.9208
 3827TIP3   OH232895   1.196   6.652   0.499 -0.4255 -0.5437 -0.1608
 3827TIP3    H132896   1.223   6.649   0.407 -1.9383  0.7494 -0.6991
 3827TIP3    H232897   1.105   6.680   0.496  0.0993  1.6961  1.8091
 3828TIP3   OH232898   2.704   3.019   4.251 -0.3485 -0.1055 -0.4347
 3828TIP3    H132899   2.719   2.953   4.319 -0.0801 -0.1832 -0.5693
 3828TIP3    H232900   2.751   2.986   4.175  1.2804  1.0920 -0.0008
 3829TIP3   OH232901   2.842   4.718   1.019 -0.2484 -0.3377 -0.4964
 3829TIP3    H132902   2.777   4.722   1.090 -0.9018 -0.2654 -1.0838
 3829TIP3    H232903   2.850   4.808   0.989  0.0673 -0.3607 -0.4795
 3830TIP3   OH232904   5.231   5.420   0.627  0.2990  0.1751  0.5854
 3830TIP3    H132905   5.313   5.457   0.659  0.0312  1.4314 -0.1144
 3830TIP3    H232906   5.169   5.493   0.628 -0.5635 -0.5193  0.1981
 3831TIP3   OH232907   2.516   1.075  11.560  0.0264 -0.8231  0.1435
 3831TIP3    H132908   2.445   1.132  11.590  0.2737 -1.3325  1.7630
 3831TIP3    H232909   2.596   1.117  11.592  0.5277 -0.1074 -1.8999
 3832TIP3   OH232910   6.328   4.094   1.288  0.0166 -0.6616 -0.2151
 3832TIP3    H132911   6.258   4.075   1.351  2.4477 -0.5458  2.7316
 3832TIP3    H232912   6.327   4.189   1.278  0.5173 -0.5488  0.7817
 3833TIP3   OH232913   1.554   5.180  15.281 -0.5587  0.1118  0.9488
 3833TIP3    H132914   1.648   5.175  15.270 -0.5240  1.4187  0.4039
 3833TIP3    H232915   1.522   5.092  15.262  0.5285 -0.2813  0.9203
 3834TIP3   OH232916   5.206   3.161   2.623  0.3176 -0.0635  0.3309
 3834TIP3    H132917   5.178   3.087   2.677 -0.2927 -0.3537 -0.3686
 3834TIP3    H232918   5.221   3.124   2.536  0.1327  0.6065  0.0009
 3835TIP3   OH232919   3.364   1.861  15.584 -0.1492  0.5663 -0.0587
 3835TIP3    H132920   3.438   1.912  15.550  0.2900  0.8706  1.2749
 3835TIP3    H232921   3.398   1.772  15.592  0.4589  0.9138  1.5770
 3836TIP3   OH232922   3.720   0.474   4.669  0.4801 -0.4852  0.4263
 3836TIP3    H132923   3.671   0.415   4.727 -1.6347 -0.4658 -1.2498
 3836TIP3    H232924   3.682   0.561   4.686  0.0277 -0.4386 -0.7585
 3837TIP3   OH232925   0.012   5.240  16.358  0.1955  0.1704  0.2223
 3837TIP3    H132926  -0.029   5.246  16.444 -2.8200 -1.1211 -0.9766
 3837TIP3    H232927   0.055   5.324  16.346 -0.4219  0.8681  2.4444
 3838TIP3   OH232928   0.516   5.697  15.170  0.4103  0.1423 -0.2892
 3838TIP3    H132929   0.512   5.613  15.216  1.3288  0.5529  0.5797
 3838TIP3    H232930   0.549   5.674  15.083  1.1626 -0.3461  0.1117
 3839TIP3   OH232931   4.813   1.814  11.998  0.0640 -0.5442  0.2761
 3839TIP3    H132932   4.878   1.863  12.048  1.0297 -0.8255 -0.6679
 3839TIP3    H232933   4.853   1.801  11.912 -0.9206 -1.3982 -0.0798
 3840TIP3   OH232934   2.814   1.303   5.094 -0.1044  0.5799 -0.2339
 3840TIP3    H132935   2.773   1.380   5.133 -0.0591  1.5836 -2.0311
 3840TIP3    H232936   2.907   1.311   5.116 -0.0506  1.2206 -0.6794
 3841TIP3   OH232937   6.655   6.006  12.319  0.6518 -0.0873 -0.0606
 3841TIP3    H132938   6.685   5.917  12.337 -0.1528 -0.4675 -0.5739
 3841TIP3    H232939   6.647   6.046  12.406  1.9221 -0.1977  0.1343
 3842TIP3   OH232940   3.957   4.423   4.631  0.3415  0.0964  0.6789
 3842TIP3    H132941   3.934   4.468   4.550  2.8565  0.1499 -0.0926
 3842TIP3    H232942   3.905   4.342   4.630 -0.1047  0.3853 -0.6669
 3843TIP3   OH232943   0.469   2.577  15.257  0.3327 -0.0610 -0.1826
 3843TIP3    H132944   0.496   2.599  15.346 -3.0031  0.1304  0.9334
 3843TIP3    H232945   0.447   2.661  15.217  1.2669 -0.2009 -1.0260
 3844TIP3   OH232946   5.014   6.478  15.010 -0.2409  0.5368 -0.1914
 3844TIP3    H132947   5.055   6.391  15.010  0.0375  0.6217  1.9724
 3844TIP3    H232948   5.073   6.533  15.062 -1.2892  1.5692 -0.0463
 3845TIP3   OH232949   6.191   1.328   2.377  0.3465  0.1737  0.2678
 3845TIP3    H132950   6.282   1.305   2.394  0.6775  0.6927 -0.7102
 3845TIP3    H232951   6.186   1.422   2.395  0.0679  0.1979  0.0764
 3846TIP3   OH232952   4.729   3.831  16.545 -0.2029  0.2411 -0.1120
 3846TIP3    H132953   4.651   3.794  16.587 -0.7406  0.2635 -1.0588
 3846TIP3    H232954   4.803   3.791  16.592 -0.7774 -0.6115  0.0963
 3847TIP3   OH232955   4.918   3.373  16.379 -0.0184  0.4156  0.2551
 3847TIP3    H132956   4.886   3.419  16.302 -0.1707 -0.4316 -0.1944
 3847TIP3    H232957   4.848   3.382  16.444 -0.1101  0.6742  0.1208
 3848TIP3   OH232958   6.134   4.964  13.424 -0.4632 -0.0627  0.2086
 3848TIP3    H132959   6.066   5.019  13.385  0.3225  0.4342 -0.5022
 3848TIP3    H232960   6.216   5.008  13.401  0.3017 -2.2585 -1.5901
 3849TIP3   OH232961   3.775   1.892   1.194 -0.5352 -0.2975 -0.1102
 3849TIP3    H132962   3.864   1.924   1.205 -0.6443 -0.2892  0.7705
 3849TIP3    H232963   3.777   1.846   1.110  0.0602  0.5003 -0.5521
 3850TIP3   OH232964   1.369   3.737  16.025 -0.1695 -0.1621 -0.3081
 3850TIP3    H132965   1.460   3.764  16.019  0.6540 -2.8656 -1.5556
 3850TIP3    H232966   1.372   3.654  16.072 -2.1844  0.3956  0.9083
 3851TIP3   OH232967   2.177   1.312  15.269  0.1667 -0.4672 -0.0931
 3851TIP3    H132968   2.252   1.373  15.271 -1.6163  1.8911  1.9707
 3851TIP3    H232969   2.102   1.367  15.293 -2.5137 -2.4374 -3.2480
 3852TIP3   OH232970   0.747   6.480   0.462  0.0984 -0.4785  0.2042
 3852TIP3    H132971   0.729   6.463   0.370  1.1163 -0.8034  0.0522
 3852TIP3    H232972   0.740   6.394   0.504 -1.3900 -0.1772  0.6317
 3853TIP3   OH232973   1.895   1.939  16.015  0.2353 -0.5167  0.0102
 3853TIP3    H132974   1.912   2.020  15.966  1.1001 -0.2546  0.7283
 3853TIP3    H232975   1.980   1.898  16.025 -0.2795 -1.9046 -0.9572
 3854TIP3   OH232976   0.151   1.129   1.390  0.0191 -0.5365 -0.2352
 3854TIP3    H132977   0.075   1.072   1.401 -0.0170 -0.4647 -0.1051
 3854TIP3    H232978   0.143   1.162   1.301 -0.2109 -0.3772 -0.1585
 3855TIP3   OH232979   6.183   3.749  17.243 -0.5491  0.4768 -0.2775
 3855TIP3    H132980   6.149   3.754  17.153 -2.6337  0.1471  0.4420
 3855TIP3    H232981   6.231   3.666  17.245 -0.0238  0.7330 -1.1987
 3856TIP3   OH232982   4.639   0.410   1.614  0.7846 -0.1804  0.2940
 3856TIP3    H132983   4.627   0.315   1.625  1.1831 -0.1537  1.0217
 3856TIP3    H232984   4.587   0.431   1.536  0.3168 -0.9216  0.3852
 3857TIP3   OH232985   4.647   1.896  15.705  0.4256 -0.6232  0.6389
 3857TIP3    H132986   4.724   1.952  15.700 -0.3006  0.2695 -2.0172
 3857TIP3    H232987   4.657   1.834  15.632 -0.8299 -1.2237  0.9448
 3858TIP3   OH232988   1.536   1.646   4.383 -0.0894  0.8595  0.0979
 3858TIP3    H132989   1.464   1.590   4.409 -1.1894  2.5454  0.8485
 3858TIP3    H232990   1.535   1.643   4.287 -1.4659  1.2007  0.0767
 3859TIP3   OH232991   0.950   6.580  12.365 -0.1317 -0.2499 -0.7029
 3859TIP3    H132992   1.025   6.534  12.326 -0.4632 -0.4543 -1.1054
 3859TIP3    H232993   0.906   6.621  12.291 -0.0865  0.3701 -0.3977
 3860TIP3   OH232994   4.732   5.713   3.955 -0.4201  0.2389 -0.1656
 3860TIP3    H132995   4.798   5.770   3.915  0.3160 -0.3241  0.2170
 3860TIP3    H232996   4.652   5.765   3.954 -0.2142  0.5618 -1.5562
 3861TIP3   OH232997   6.680   5.332   0.982 -0.2093 -0.3287  0.2662
 3861TIP3    H132998   6.705   5.273   1.054  0.5013  0.3456  0.5866
 3861TIP3    H232999   6.750   5.397   0.979 -0.0335 -0.5607 -1.2889
 3862TIP3   OH233000   2.208   1.576   3.619 -0.2878 -0.5049  0.2173
 3862TIP3    H133001   2.238   1.651   3.672 -0.0547 -1.2229  1.1315
 3862TIP3    H233002   2.115   1.568   3.640 -1.0554  1.2510 -2.0458
 3863TIP3   OH233003   4.814   4.096  10.959  0.1114  0.1548 -0.4717
 3863TIP3    H133004   4.774   4.010  10.963 -2.1251  1.0672 -1.5492
 3863TIP3    H233005   4.777   4.136  10.880  1.3687  1.9692 -0.2051
 3864TIP3   OH233006   2.328   4.234   5.888 -0.1051  0.8696 -0.4609
 3864TIP3    H133007   2.375   4.258   5.968 -1.5558 -0.4947  0.8885
 3864TIP3    H233008   2.358   4.145   5.868 -0.5197  0.8015 -0.8028
 3865TIP3   OH233009   5.483   5.549  16.821 -0.1338  0.0999  0.3521
 3865TIP3    H133010   5.539   5.600  16.763  0.4430 -0.5402  0.3336
 3865TIP3    H233011   5.418   5.509  16.763 -0.4174  0.5856  0.3326
 3866TIP3   OH233012   1.686   4.620  16.437 -0.3212  0.4754  0.2394
 3866TIP3    H133013   1.733   4.687  16.387 -0.9413  1.1275  0.5173
 3866TIP3    H233014   1.637   4.571  16.370  1.7114 -1.0541 -0.2180
 3867TIP3   OH233015   2.023   0.172   0.368 -0.4248 -0.5114  0.0099
 3867TIP3    H133016   1.930   0.192   0.381 -0.2183  2.2523 -1.8229
 3867TIP3    H233017   2.067   0.219   0.439 -0.3053  0.1430 -0.4934
 3868TIP3   OH233018   2.440   0.488   1.667 -0.4343  0.6877 -0.1016
 3868TIP3    H133019   2.502   0.559   1.652 -0.9081  1.5496  1.6677
 3868TIP3    H233020   2.494   0.411   1.685  0.1017  1.0950  0.0428
 3869TIP3   OH233021   5.112   3.309  16.560  0.3215  0.1215 -0.0230
 3869TIP3    H133022   5.164   3.241  16.518 -3.2094 -2.9770  0.1761
 3869TIP3    H233023   5.053   3.341  16.492 -1.3413 -0.6265  0.9841
 3870TIP3   OH233024   0.874   3.971   5.616 -0.4441 -0.0876  0.3602
 3870TIP3    H133025   0.820   3.950   5.540 -0.5712 -0.5057  0.5598
 3870TIP3    H233026   0.945   4.025   5.581  0.1820 -1.2668 -0.2922
 3871TIP3   OH233027   0.477   0.485  11.965 -0.0455  0.0688 -0.4731
 3871TIP3    H133028   0.467   0.580  11.957 -1.7113  0.0685  0.9282
 3871TIP3    H233029   0.413   0.449  11.902 -1.4795 -0.0537  0.9921
 3872TIP3   OH233030   4.233   5.200  16.418 -0.5172  0.3935  0.3352
 3872TIP3    H133031   4.191   5.123  16.381  0.9177  0.1142 -0.7964
 3872TIP3    H233032   4.169   5.270  16.408 -1.6047 -0.5149  0.8402
 3873TIP3   OH233033   5.225   4.082  12.104  0.1528  0.0928  0.2416
 3873TIP3    H133034   5.137   4.075  12.066 -0.0815 -0.0087  0.7960
 3873TIP3    H233035   5.269   4.147  12.050  0.0170 -0.4802 -0.5731
 3874TIP3   OH233036   4.772   5.953   4.885 -0.8258  0.0447  0.1395
 3874TIP3    H133037   4.817   6.024   4.841  1.7512 -0.1493  2.1800
 3874TIP3    H233038   4.791   5.875   4.832  1.4820 -0.0460  1.0032
 3875TIP3   OH233039   4.922   3.612  13.468 -0.6969  0.2037 -0.5337
 3875TIP3    H133040   4.854   3.550  13.497  0.9798 -1.0726  0.9137
 3875TIP3    H233041   4.874   3.680  13.422 -3.2742  0.4759  2.2059
 3876TIP3   OH233042   6.404   5.358  14.005  0.0693  0.1428  0.2252
 3876TIP3    H133043   6.321   5.359  13.958 -0.0839  0.9987  0.5130
 3876TIP3    H233044   6.470   5.362  13.937 -0.1487  3.4417  0.0667
 3877TIP3   OH233045   1.518   4.352  15.930 -0.0964 -0.2702  0.3112
 3877TIP3    H133046   1.555   4.310  15.852 -0.3509 -0.4136  0.2665
 3877TIP3    H233047   1.459   4.419  15.895  0.2638  0.0841  0.3829
 3878TIP3   OH233048   0.271   5.557   5.140 -0.0381  0.6685  0.1804
 3878TIP3    H133049   0.361   5.529   5.150  0.0985  1.1775  0.4209
 3878TIP3    H233050   0.276   5.653   5.135 -0.4627  0.6468 -0.8757
 3879TIP3   OH233051   0.008   5.275  17.035  0.0592 -0.1630  0.4716
 3879TIP3    H133052   0.078   5.320  16.988  0.9455 -2.4148 -0.5061
 3879TIP3    H233053  -0.032   5.218  16.969 -1.0325 -0.7723  1.6208
 3880TIP3   OH233054   3.166   4.335   3.418  0.0827 -0.2560  0.4576
 3880TIP3    H133055   3.234   4.366   3.477 -0.4519 -0.9854  1.4793
 3880TIP3    H233056   3.090   4.317   3.474 -0.4568 -0.9111 -0.4391
 3881TIP3   OH233057   3.110   3.518  15.906  0.3898 -0.7778 -0.1685
 3881TIP3    H133058   3.021   3.485  15.897 -0.3044  1.0065 -0.2626
 3881TIP3    H233059   3.148   3.465  15.976 -1.0485 -0.9626  0.5150
 3882TIP3   OH233060   6.708   5.506  14.446  0.2098 -0.0972 -0.0613
 3882TIP3    H133061   6.681   5.459  14.525  0.4534  1.1427  0.7929
 3882TIP3    H233062   6.631   5.557  14.420  0.7204  1.0549  0.5818
 3883TIP3   OH233063   0.908   1.654  17.183  0.1244  0.2721  0.2859
 3883TIP3    H133064   0.871   1.736  17.149 -0.2577  0.4409  1.0908
 3883TIP3    H233065   0.852   1.586  17.146 -0.4393  0.4709  0.7599
 3884TIP3   OH233066   1.452   1.466  16.923  0.6880  0.2203  0.0825
 3884TIP3    H133067   1.471   1.408  16.997 -2.3532  0.6055  1.3091
 3884TIP3    H233068   1.500   1.547  16.943  2.2000 -0.6338  0.0896
 3885TIP3   OH233069   6.596   6.037   4.062 -0.2324 -0.0883 -0.1965
 3885TIP3    H133070   6.653   6.100   4.020 -0.6094  0.2024 -0.2755
 3885TIP3    H233071   6.570   6.078   4.144  1.6590 -1.2413  1.0436
 3886TIP3   OH233072   3.169   1.074  11.513  0.7358  0.4755 -0.3078
 3886TIP3    H133073   3.137   1.163  11.527 -1.3842  0.0574 -1.9213
 3886TIP3    H233074   3.135   1.024  11.587 -0.3800  0.5247 -0.7613
 3887TIP3   OH233075   5.587   4.386  10.858  0.0867  0.6602 -0.5102
 3887TIP3    H133076   5.513   4.441  10.881  1.7842  2.1998  1.7455
 3887TIP3    H233077   5.664   4.442  10.870  1.9935 -2.1559  2.3462
 3888TIP3   OH233078   4.567   3.784   6.522 -0.5255 -0.0622  0.0877
 3888TIP3    H133079   4.490   3.839   6.538 -0.5089 -0.8297  3.7171
 3888TIP3    H233080   4.545   3.700   6.562  1.5195 -0.9098 -0.4407
 3889TIP3   OH233081   1.670   2.691   1.261 -0.1841 -0.1063  0.6083
 3889TIP3    H133082   1.665   2.757   1.330 -0.2612  0.1850  0.3242
 3889TIP3    H233083   1.760   2.695   1.230  0.1448 -0.9650  1.4017
 3890TIP3   OH233084   4.464   3.453  14.059 -0.6961 -0.1969  0.6811
 3890TIP3    H133085   4.472   3.533  14.110  0.2452 -0.6854  1.3273
 3890TIP3    H233086   4.478   3.383  14.122 -0.4990 -0.8388 -0.0646
 3891TIP3   OH233087   2.501   2.069   3.843  0.2905 -0.3623  0.4813
 3891TIP3    H133088   2.571   2.004   3.849  0.2172 -0.4887  0.0046
 3891TIP3    H233089   2.535   2.146   3.889  1.7173  0.4244 -1.7360
 3892TIP3   OH233090   2.023   1.175  13.179 -0.2702  0.2505  0.6270
 3892TIP3    H133091   2.089   1.231  13.138 -0.5374  0.9760  1.1652
 3892TIP3    H233092   2.058   1.087  13.170 -0.5372  0.3212 -1.5466
 3893TIP3   OH233093   6.554   2.656   4.326  0.1822 -0.3197 -0.2594
 3893TIP3    H133094   6.611   2.718   4.280 -1.6030  2.1162  0.5649
 3893TIP3    H233095   6.468   2.667   4.285 -0.9500  0.2925  2.0837
 3894TIP3   OH233096   4.125   2.948  17.047 -0.3007  0.3399 -0.3888
 3894TIP3    H133097   4.051   3.008  17.055 -0.9784 -0.3817 -1.0564
 3894TIP3    H233098   4.126   2.922  16.955 -0.3668 -1.0753 -0.0131
 3895TIP3   OH233099   4.980   4.409   2.423  0.2493 -0.3916  0.2452
 3895TIP3    H133100   4.956   4.325   2.462  0.1238 -0.3695  0.2128
 3895TIP3    H233101   4.960   4.399   2.330 -0.2125 -0.1580  0.3201
 3896TIP3   OH233102   0.679   1.507   4.543  0.1206  0.5980 -0.2046
 3896TIP3    H133103   0.766   1.477   4.515 -0.1873  1.1486 -1.8853
 3896TIP3    H233104   0.633   1.526   4.461 -2.6210 -2.3644  0.4793
 3897TIP3   OH233105   3.553   1.900   4.771  0.4407  0.2664  0.3589
 3897TIP3    H133106   3.526   1.850   4.694 -1.4108  1.6289  0.0624
 3897TIP3    H233107   3.611   1.840   4.819  0.6647 -1.0484 -1.4549
 3898TIP3   OH233108   0.731   1.057  15.453  0.0195 -0.1074 -0.0843
 3898TIP3    H133109   0.694   1.017  15.531  0.3569 -0.3969 -0.0740
 3898TIP3    H233110   0.769   1.139  15.483 -0.5115  0.1437 -0.0759
 3899TIP3   OH233111   2.223   2.680   3.831  0.1754 -0.5272 -0.2247
 3899TIP3    H133112   2.311   2.643   3.840  0.7762  1.1121  1.3726
 3899TIP3    H233113   2.238   2.773   3.811 -1.2148 -0.4643 -1.0785
 3900TIP3   OH233114   4.348   2.890  14.648 -0.4349 -0.0718 -0.0665
 3900TIP3    H133115   4.273   2.831  14.646 -0.4559 -0.0890  0.9621
 3900TIP3    H233116   4.359   2.911  14.740 -1.4026  2.7675 -0.5021
 3901TIP3   OH233117   2.874   2.996   0.888  0.2717  0.1324 -0.1859
 3901TIP3    H133118   2.847   2.909   0.859  0.7578 -0.2732  0.5393
 3901TIP3    H233119   2.930   2.979   0.964 -1.7981  1.1861  1.6817
 3902TIP3   OH233120   6.409   6.639  13.014 -0.0440 -0.2358  0.5520
 3902TIP3    H133121   6.332   6.695  13.027  0.1392 -0.1569  1.3709
 3902TIP3    H233122   6.483   6.699  13.014  0.2551 -0.5417  2.5471
 3903TIP3   OH233123   4.456   5.477   2.453  0.4245  0.1314  0.4209
 3903TIP3    H133124   4.512   5.431   2.390 -2.2108 -0.9394 -1.3516
 3903TIP3    H233125   4.384   5.415   2.470  0.1848  1.0538  3.2926
 3904TIP3   OH233126   2.856   3.094  12.627  1.0112  0.1157 -0.0938
 3904TIP3    H133127   2.826   3.180  12.598  0.9870 -0.0312 -0.5032
 3904TIP3    H233128   2.884   3.108  12.718 -1.0458  0.0937  0.5936
 3905TIP3   OH233129   3.212   4.719  14.436  0.1277  0.3050  0.0466
 3905TIP3    H133130   3.245   4.720  14.346  0.4992 -1.3657  0.1419
 3905TIP3    H233131   3.254   4.795  14.477  0.5806  0.6292 -0.9770
 3906TIP3   OH233132   1.864   1.422   0.775  0.1876  0.2132  0.1391
 3906TIP3    H133133   1.912   1.476   0.839  1.0484  0.7656 -0.9415
 3906TIP3    H233134   1.815   1.486   0.723  2.0879  0.1530 -1.8955
 3907TIP3   OH233135   0.770   3.454  11.951 -0.3849 -0.0888  0.0261
 3907TIP3    H133136   0.765   3.428  12.042 -0.8087 -2.4319 -0.6013
 3907TIP3    H233137   0.711   3.394  11.905 -0.5177  1.3072 -1.7458
 3908TIP3   OH233138   6.464   1.434  14.449 -0.2540 -0.5038  0.5817
 3908TIP3    H133139   6.461   1.488  14.528 -3.3105 -2.2761  1.8662
 3908TIP3    H233140   6.507   1.353  14.477  1.3674 -0.0333 -0.4424
 3909TIP3   OH233141   3.240   1.796   4.523 -0.1732 -0.2110 -0.1606
 3909TIP3    H133142   3.192   1.877   4.542 -2.2914 -1.1126 -1.3304
 3909TIP3    H233143   3.185   1.727   4.560  0.1523 -1.2996 -1.6335
 3910TIP3   OH233144   1.797   4.144   2.050  0.7198 -0.0275 -0.4618
 3910TIP3    H133145   1.800   4.050   2.068 -0.5921  0.1198  0.6950
 3910TIP3    H233146   1.722   4.155   1.990  1.7832  0.1364 -1.8239
 3911TIP3   OH233147   6.239   4.113  11.032  0.7047  0.5935 -0.3103
 3911TIP3    H133148   6.279   4.177  11.090  0.6567 -0.0115  0.4085
 3911TIP3    H233149   6.146   4.115  11.055  0.8138 -0.2760  0.2754
 3912TIP3   OH233150   6.535   4.126  12.760 -0.0677 -0.4934  0.0591
 3912TIP3    H133151   6.538   4.219  12.741 -1.5415 -0.2230  0.9375
 3912TIP3    H233152   6.616   4.091  12.724  1.1548  1.3468  0.8639
 3913TIP3   OH233153   1.980   6.083   2.475 -0.2956  0.7269  0.4758
 3913TIP3    H133154   1.889   6.057   2.487 -0.6784  1.4949 -0.5556
 3913TIP3    H233155   2.019   6.011   2.426  0.2756 -0.6436  2.8267
 3914TIP3   OH233156   5.178   2.430   1.144 -0.3654 -0.4430  0.3324
 3914TIP3    H133157   5.097   2.379   1.152 -0.7158  0.1844  0.8139
 3914TIP3    H233158   5.239   2.369   1.103 -0.9520 -1.0656  0.3481
 3915TIP3   OH233159   5.939   1.324  14.476 -0.3450  0.2867 -0.4920
 3915TIP3    H133160   6.021   1.330  14.525 -1.2015 -3.6998  1.8442
 3915TIP3    H233161   5.913   1.232  14.483 -4.5013  1.1144 -2.0484
 3916TIP3   OH233162   0.606   0.372   2.839 -0.0080 -0.8521  0.3109
 3916TIP3    H133163   0.691   0.401   2.807  0.3428 -2.6596 -0.4774
 3916TIP3    H233164   0.608   0.391   2.933  0.6900  0.3968  0.0625
 3917TIP3   OH233165   1.641   3.228  12.669 -0.6240 -0.0319 -0.6461
 3917TIP3    H133166   1.635   3.210  12.576  1.0196 -0.3441 -0.7196
 3917TIP3    H233167   1.639   3.142  12.711 -0.2977  0.0468 -0.4649
 3918TIP3   OH233168   4.536   0.976  17.042  0.0280  0.5178  0.6507
 3918TIP3    H133169   4.480   0.975  16.965  0.2206 -0.9763  0.5047
 3918TIP3    H233170   4.549   1.069  17.061  0.3520  0.9358 -1.3953
 3919TIP3   OH233171   2.625   3.717   3.639 -0.1537 -0.4233  0.2064
 3919TIP3    H133172   2.713   3.694   3.609 -0.8070 -4.2194  0.7544
 3919TIP3    H233173   2.566   3.669   3.582 -1.9671  1.7535  0.0858
 3920TIP3   OH233174   4.014   6.756   6.749  0.0106 -0.0018 -0.0652
 3920TIP3    H133175   4.092   6.795   6.709  0.5600 -1.2896 -0.3098
 3920TIP3    H233176   3.990   6.684   6.689  0.0253 -1.0908  1.1949
 3921TIP3   OH233177   6.157   4.648   4.281  0.2979  0.0789 -0.5725
 3921TIP3    H133178   6.178   4.664   4.373 -1.7995 -0.6022  0.0787
 3921TIP3    H233179   6.106   4.725   4.255  1.4493  0.5967 -1.4221
 3922TIP3   OH233180   5.239   0.520  16.502  0.5123  0.4013 -0.1056
 3922TIP3    H133181   5.332   0.530  16.520  0.4886 -0.4766  0.6055
 3922TIP3    H233182   5.233   0.441  16.448  0.1935  0.4787 -0.1833
 3923TIP3   OH233183   0.415   2.015  15.198 -0.4715  0.3344 -0.2318
 3923TIP3    H133184   0.509   2.008  15.189 -0.3185  0.4947  0.9811
 3923TIP3    H233185   0.385   1.925  15.214 -0.2490  0.5048  1.3641
 3924TIP3   OH233186   2.168   1.733   2.984 -0.2212  0.3234 -0.2473
 3924TIP3    H133187   2.088   1.760   3.030  0.8826  1.5037  1.0726
 3924TIP3    H233188   2.146   1.648   2.945 -2.0323  0.5182  0.2539
 3925TIP3   OH233189   1.088   3.302  17.050  0.6610 -0.2089 -0.3223
 3925TIP3    H133190   1.021   3.335  16.990  2.3848  1.2993 -1.5267
 3925TIP3    H233191   1.042   3.288  17.132 -1.9272 -2.8630 -2.0522
 3926TIP3   OH233192   1.978   0.802  15.125  0.2579 -0.3316  0.3213
 3926TIP3    H133193   1.929   0.776  15.047  0.1248  2.4005 -0.5922
 3926TIP3    H233194   2.048   0.737  15.131 -1.6633 -2.6219 -0.0174
 3927TIP3   OH233195   0.536   3.296   5.651  0.5595  0.0440 -0.4780
 3927TIP3    H133196   0.620   3.342   5.655  0.6376  0.3147 -3.1008
 3927TIP3    H233197   0.474   3.363   5.624 -0.1392 -0.5520 -0.3684
 3928TIP3   OH233198   0.096   0.481  12.506 -0.0060  0.2700  0.2799
 3928TIP3    H133199   0.045   0.538  12.447 -1.6640 -0.1311  1.2510
 3928TIP3    H233200   0.106   0.532  12.586  0.0719 -0.1285  0.5234
 3929TIP3   OH233201   3.842   4.404  16.533 -0.0144 -0.1802 -0.3073
 3929TIP3    H133202   3.920   4.378  16.484  1.0314  0.6221  0.8536
 3929TIP3    H233203   3.769   4.371  16.481  1.0691 -0.4355 -1.7394
 3930TIP3   OH233204   3.409   6.044   2.770 -0.0016  0.2887  0.0118
 3930TIP3    H133205   3.470   6.086   2.710  0.1970  0.9411  0.6584
 3930TIP3    H233206   3.332   6.024   2.716  0.2025  0.7882 -0.4712
 3931TIP3   OH233207   0.967   3.097   1.201  0.0343 -0.0340  0.1584
 3931TIP3    H133208   0.897   3.104   1.266 -0.0144  0.0579  0.0971
 3931TIP3    H233209   0.921   3.091   1.117  0.0991 -0.0238  0.1221
 3932TIP3   OH233210   0.119   5.697   0.229  0.6370 -0.5972 -0.3768
 3932TIP3    H133211   0.124   5.685   0.324  1.0081  0.2852 -0.2780
 3932TIP3    H233212   0.165   5.621   0.193  1.3930 -0.4221  0.1851
 3933TIP3   OH233213   2.567   2.612   5.259 -1.1851  0.2539 -0.0590
 3933TIP3    H133214   2.546   2.565   5.179  0.6362 -0.9192  0.0783
 3933TIP3    H233215   2.510   2.573   5.325 -0.1230 -1.4334 -0.0708
 3934TIP3   OH233216   0.936   3.269   1.817  0.2010  0.3577  0.0085
 3934TIP3    H133217   1.001   3.211   1.776 -0.4016  0.5670 -1.3020
 3934TIP3    H233218   0.868   3.279   1.750 -0.5037  1.2606  0.8375
 3935TIP3   OH233219   3.146   3.993   4.247  0.5989 -0.4638 -0.0400
 3935TIP3    H133220   3.224   4.050   4.244 -0.3376  0.9153  0.7528
 3935TIP3    H233221   3.146   3.949   4.162  0.4532  2.0024 -1.4180
 3936TIP3   OH233222   6.472   1.041  13.212  0.4255  0.2104  0.0706
 3936TIP3    H133223   6.424   0.999  13.140  0.4709 -0.2925  0.3285
 3936TIP3    H233224   6.531   0.973  13.245 -0.6322 -0.0498  1.5375
 3937TIP3   OH233225   0.070   6.259  10.954  0.2825  0.2263  0.0352
 3937TIP3    H133226   0.152   6.242  10.908  0.8909 -0.3990  1.3245
 3937TIP3    H233227   0.088   6.336  11.008 -0.4359  0.9639 -0.7241
 3938TIP3   OH233228   0.705   6.681   1.182 -0.4556  0.3993  0.1143
 3938TIP3    H133229   0.649   6.609   1.213 -0.6985  0.8726  0.8079
 3938TIP3    H233230   0.753   6.708   1.260  0.2405  0.4524 -0.3311
 3939TIP3   OH233231   2.794   1.450  12.501 -0.0227 -0.6622 -0.1372
 3939TIP3    H133232   2.839   1.480  12.422 -1.7817 -1.5514 -1.5399
 3939TIP3    H233233   2.855   1.388  12.541  0.8821 -0.2182 -0.7926
 3940TIP3   OH233234   4.661   4.237   0.561 -0.5201  0.2042  0.7106
 3940TIP3    H133235   4.692   4.147   0.573 -1.2938 -0.1046  0.4748
 3940TIP3    H233236   4.621   4.259   0.646 -2.9308 -0.7472 -0.0850
 3941TIP3   OH233237   4.535   6.089  12.468 -0.7897  0.3519  0.5004
 3941TIP3    H133238   4.493   6.048  12.543 -1.2490 -1.0496 -0.4703
 3941TIP3    H233239   4.545   6.017  12.405 -1.3946  1.6961 -1.1917
 3942TIP3   OH233240   1.518   0.861  12.114  0.1885  0.7043  0.0228
 3942TIP3    H133241   1.566   0.796  12.164 -0.8035 -0.4086 -0.4333
 3942TIP3    H233242   1.458   0.900  12.177 -0.4646 -0.0949 -0.0937
 3943TIP3   OH233243   1.534   4.047  14.846  0.0147 -0.5122 -0.2330
 3943TIP3    H133244   1.549   3.984  14.775  0.0750 -1.4639  0.6004
 3943TIP3    H233245   1.621   4.079  14.867  0.0289 -0.4366 -0.4022
 3944TIP3   OH233246   1.688   3.713  14.547 -0.6515  0.4405  0.4555
 3944TIP3    H133247   1.712   3.703  14.454 -1.4570  2.3865 -0.0064
 3944TIP3    H233248   1.633   3.637  14.566 -1.7643  0.8051 -1.1228
 3945TIP3   OH233249   0.189   3.391  13.290 -0.5729  0.2950 -0.6368
 3945TIP3    H133250   0.122   3.456  13.314 -0.7247  0.5385 -1.6752
 3945TIP3    H233251   0.145   3.333  13.229 -0.3265 -0.5987  0.0125
 3946TIP3   OH233252   3.627   3.546  13.701  0.0034 -0.1305 -0.4914
 3946TIP3    H133253   3.583   3.575  13.781  0.4778 -0.1565 -0.2144
 3946TIP3    H233254   3.611   3.616  13.638 -0.9992 -0.4493 -0.6071
 3947TIP3   OH233255   6.036   0.698  12.042 -0.4348 -0.0927 -0.2962
 3947TIP3    H133256   6.093   0.706  11.966  0.1706  1.2333  0.2619
 3947TIP3    H233257   5.977   0.773  12.036  0.9896  1.3020  1.6084
 3948TIP3   OH233258   5.689   0.232   0.668  0.0968 -0.0243 -0.1721
 3948TIP3    H133259   5.693   0.217   0.573  0.0377  0.2093 -0.2121
 3948TIP3    H233260   5.661   0.148   0.704  0.1617 -0.1266 -0.3586
 3949TIP3   OH233261   4.869   1.261   3.848  0.1258 -0.3889  0.0784
 3949TIP3    H133262   4.946   1.230   3.800  1.0771  1.9530 -0.0638
 3949TIP3    H233263   4.841   1.339   3.800 -0.2738  0.7262  2.0156
 3950TIP3   OH233264   0.588   6.591   5.365 -0.3832  0.3616  0.4349
 3950TIP3    H133265   0.616   6.576   5.275 -0.2361  0.1492  0.5134
 3950TIP3    H233266   0.525   6.662   5.360  1.9111  2.5449  0.4938
 3951TIP3   OH233267   6.706   5.365   1.708  0.2060 -0.6572  0.0306
 3951TIP3    H133268   6.667   5.450   1.728 -0.0585 -0.7756  0.0257
 3951TIP3    H233269   6.771   5.384   1.640  1.3394 -0.2057  1.2080
 3952TIP3   OH233270   1.838   1.139  13.393 -0.1286  0.1012 -0.6305
 3952TIP3    H133271   1.901   1.180  13.333  2.0008  0.5220  1.7493
 3952TIP3    H233272   1.872   1.052  13.408 -0.8998 -0.1622 -0.3528
 3953TIP3   OH233273   4.263   3.950   0.955 -0.6004 -0.1618  0.2979
 3953TIP3    H133274   4.220   3.869   0.982 -2.4808  0.6375 -0.1142
 3953TIP3    H233275   4.197   4.018   0.968  0.1038  0.9672 -1.5651
 3954TIP3   OH233276   4.621   6.179   0.941 -0.2658 -0.3308  0.1198
 3954TIP3    H133277   4.626   6.084   0.927 -1.4073 -0.1227 -2.2489
 3954TIP3    H233278   4.707   6.203   0.976  0.5617 -2.0607 -0.6147
 3955TIP3   OH233279   1.637   0.392  14.235 -0.9573  0.2253  0.0571
 3955TIP3    H133280   1.708   0.418  14.293 -1.3965  2.0988 -0.2026
 3955TIP3    H233281   1.682   0.359  14.157 -0.3495  1.4395 -0.1248
 3956TIP3   OH233282   6.597   2.965  14.568  0.5060  0.7837  0.3008
 3956TIP3    H133283   6.691   2.981  14.562  1.2431 -2.5526  0.9709
 3956TIP3    H233284   6.578   2.972  14.662  0.2423  0.7679  0.2488
 3957TIP3   OH233285   4.979   1.424  10.474  0.2917  0.8230  0.1678
 3957TIP3    H133286   4.910   1.385  10.528  1.2818 -1.7689 -0.3259
 3957TIP3    H233287   5.033   1.474  10.536  0.0477 -0.1339  1.1769
 3958TIP3   OH233288   0.984   3.426   5.525 -0.4164 -0.9680  0.9568
 3958TIP3    H133289   0.916   3.491   5.503  0.5112  0.2330  1.4910
 3958TIP3    H233290   0.938   3.360   5.576 -1.2941 -0.4312  0.8928
 3959TIP3   OH233291   5.709   4.375   3.035 -0.2688 -0.3613 -0.2836
 3959TIP3    H133292   5.742   4.414   3.116  0.7732 -0.8995 -0.4198
 3959TIP3    H233293   5.742   4.285   3.037 -0.1665 -0.3631 -1.3252
 3960TIP3   OH233294   2.690   5.066   0.137 -0.6413  0.5353 -0.2648
 3960TIP3    H133295   2.670   5.020   0.218 -0.9100  0.6305 -0.2753
 3960TIP3    H233296   2.784   5.056   0.126 -0.8368 -0.9373 -0.8368
 3961TIP3   OH233297   4.504   3.446   5.432  0.4272 -0.0033  0.3049
 3961TIP3    H133298   4.578   3.390   5.456 -1.4105 -1.6786  2.4316
 3961TIP3    H233299   4.473   3.411   5.349  1.2274 -0.0677  0.0246
 3962TIP3   OH233300   5.953   6.065  16.660  0.5267 -0.6284  0.1354
 3962TIP3    H133301   5.917   5.985  16.700 -1.6116 -0.1468 -0.6890
 3962TIP3    H233302   5.948   6.049  16.566 -1.1297  0.9139 -0.0909
 3963TIP3   OH233303   0.624   4.455   0.582 -0.5549  0.5255 -0.5702
 3963TIP3    H133304   0.555   4.464   0.516  1.3867  0.6328 -2.7346
 3963TIP3    H233305   0.689   4.521   0.557  0.0619  0.9216  1.8137
 3964TIP3   OH233306   3.374   2.987  12.650 -0.3605 -0.4940 -0.5129
 3964TIP3    H133307   3.391   3.080  12.635 -2.0007 -0.1762 -0.5925
 3964TIP3    H233308   3.315   2.962  12.578 -0.9383 -1.2610  0.2118
 3965TIP3   OH233309   0.024   3.227  13.145 -0.3095 -0.3519  0.1072
 3965TIP3    H133310  -0.063   3.264  13.157  0.4156  1.1633  0.9248
 3965TIP3    H233311   0.008   3.140  13.107 -2.1829 -0.3904  0.8830
 3966TIP3   OH233312   5.282   2.265  13.917  0.1411 -0.0178 -0.5940
 3966TIP3    H133313   5.317   2.346  13.952 -0.9424  0.4115 -0.4537
 3966TIP3    H233314   5.355   2.203  13.922  0.3220  0.2771  1.5759
 3967TIP3   OH233315   5.503   5.919  12.304 -0.2689  0.0318  0.1250
 3967TIP3    H133316   5.481   5.918  12.211 -0.4243 -2.3310  0.1335
 3967TIP3    H233317   5.419   5.912  12.349 -0.0999 -5.0898  0.2204
 3968TIP3   OH233318   5.561   0.381  12.056 -0.1808 -0.0368 -0.6516
 3968TIP3    H133319   5.577   0.389  11.962  1.8631 -2.8451 -0.6864
 3968TIP3    H233320   5.618   0.447  12.096  1.7536 -1.2311 -1.3204
 3969TIP3   OH233321   4.124   6.535   0.741 -0.0277  0.1162  0.1065
 3969TIP3    H133322   4.125   6.591   0.664 -0.2303  0.7454  0.5488
 3969TIP3    H233323   4.204   6.483   0.735  0.4965  0.9261  0.0198
 3970TIP3   OH233324   3.224   4.721  17.242 -0.6563  0.3618 -0.2550
 3970TIP3    H133325   3.309   4.756  17.270 -0.8542  1.4447 -0.9479
 3970TIP3    H233326   3.247   4.649  17.182 -0.2340  0.4363 -0.1906
 3971TIP3   OH233327   3.582   3.150   5.380  0.0277  0.3245 -0.4665
 3971TIP3    H133328   3.578   3.221   5.315 -1.5604 -0.9685 -1.8933
 3971TIP3    H233329   3.604   3.073   5.329 -2.3917 -0.9541  0.2665
 3972TIP3   OH233330   3.181   5.347  10.514 -0.1470 -0.1942  0.1732
 3972TIP3    H133331   3.210   5.409  10.447  0.7396  1.6490  2.1366
 3972TIP3    H233332   3.094   5.379  10.540  0.0287 -0.1522  0.7220
 3973TIP3   OH233333   1.295   3.401   0.271 -0.4279 -0.1987  0.5657
 3973TIP3    H133334   1.324   3.345   0.198  0.3203 -0.3585  0.9797
 3973TIP3    H233335   1.239   3.344   0.324 -1.9555  0.2419 -0.4870
 3974TIP3   OH233336   4.421   2.353   3.086  0.4265  0.1004  0.0728
 3974TIP3    H133337   4.377   2.439   3.083 -1.5487 -0.8727 -1.7465
 3974TIP3    H233338   4.382   2.310   3.162 -0.3486 -0.0319 -0.3884
 3975TIP3   OH233339   1.118   1.806  10.843 -0.6504  0.3672  0.1115
 3975TIP3    H133340   1.106   1.873  10.776  0.5226 -0.2377 -0.7563
 3975TIP3    H233341   1.201   1.764  10.819 -2.0986 -2.4787 -0.3580
 3976TIP3   OH233342   1.138   1.746  13.701  0.4935  0.0844 -0.0825
 3976TIP3    H133343   1.123   1.791  13.618  0.7669 -0.1942 -0.2861
 3976TIP3    H233344   1.104   1.806  13.768 -2.0090 -0.6923 -0.5408
 3977TIP3   OH233345   1.874   1.115   1.470  0.1269  0.5687  0.2162
 3977TIP3    H133346   1.803   1.130   1.408  0.4240  1.1048 -0.0040
 3977TIP3    H233347   1.952   1.148   1.426  0.8183 -1.5294 -0.2381
 3978TIP3   OH233348   1.350   5.335  11.538 -0.0410 -0.2059 -0.4189
 3978TIP3    H133349   1.269   5.285  11.525 -0.7035  0.8437 -0.5139
 3978TIP3    H233350   1.380   5.310  11.625 -1.0320  0.1201  0.0339
 3979TIP3   OH233351   1.094   5.173   5.199  0.2427  0.1880 -0.0323
 3979TIP3    H133352   1.004   5.205   5.197  0.9156  2.4136  1.8093
 3979TIP3    H233353   1.103   5.130   5.284  0.8068 -0.4099 -0.3838
 3980TIP3   OH233354   3.422   3.563   0.128 -0.6189  0.0523  0.3621
 3980TIP3    H133355   3.431   3.645   0.175  1.2090  0.4951 -0.6545
 3980TIP3    H233356   3.485   3.504   0.171 -0.5958 -0.2429 -0.0713
 3981TIP3   OH233357   5.363   1.000  16.336 -0.5530 -0.2333 -0.2836
 3981TIP3    H133358   5.409   1.041  16.409 -1.0460 -0.0818 -0.0525
 3981TIP3    H233359   5.306   0.934  16.378  0.7500 -1.6752 -0.6886
 3982TIP3   OH233360   3.368   4.141  12.493 -0.3967 -0.3573 -0.6601
 3982TIP3    H133361   3.400   4.230  12.478 -0.7390 -0.5642 -2.8425
 3982TIP3    H233362   3.378   4.129  12.588 -0.2644  1.9517 -0.3047
 3983TIP3   OH233363   6.045   3.463   3.212 -0.1463 -0.3226 -0.3859
 3983TIP3    H133364   5.961   3.422   3.192 -0.3342 -1.0028  1.5775
 3983TIP3    H233365   6.039   3.486   3.304  1.7786 -0.2716 -0.2315
 3984TIP3   OH233366   0.153   0.245  14.558  0.2604 -0.9336  0.3563
 3984TIP3    H133367   0.212   0.177  14.593 -0.1491 -0.9849  0.9582
 3984TIP3    H233368   0.142   0.222  14.466 -0.8390 -2.4092  0.8179
 3985TIP3   OH233369   4.586   1.576   5.605 -0.3428  0.3041 -0.0088
 3985TIP3    H133370   4.518   1.557   5.670  2.1301 -0.7011  2.5062
 3985TIP3    H233371   4.573   1.511   5.536 -2.4411  0.7610 -0.1170
 3986TIP3   OH233372   5.755   5.980  16.831  0.0880  0.3380 -0.2478
 3986TIP3    H133373   5.771   5.918  16.902  2.2524  0.9590 -0.1070
 3986TIP3    H233374   5.794   6.062  16.861 -1.3731  1.3760 -1.0568
 3987TIP3   OH233375   3.319   0.614   6.133  0.5491  0.5847  0.5232
 3987TIP3    H133376   3.374   0.646   6.061  0.6115  0.4936  0.5300
 3987TIP3    H233377   3.320   0.685   6.197 -0.3956  1.1231 -0.0363
 3988TIP3   OH233378   5.978   2.705  15.540  0.0966  0.1829 -0.0323
 3988TIP3    H133379   6.010   2.786  15.501 -0.1106 -0.2636 -1.1495
 3988TIP3    H233380   5.889   2.695  15.507 -0.0220 -0.2986  0.4087
 3989TIP3   OH233381   4.033   3.929  11.361  0.6150 -0.0240  0.0767
 3989TIP3    H133382   3.958   3.984  11.336 -0.5179 -1.4606  0.1608
 3989TIP3    H233383   4.040   3.866  11.290  3.4169  1.5716 -1.2465
 3990TIP3   OH233384   5.365   0.209   6.177 -0.1157  0.2801 -0.0511
 3990TIP3    H133385   5.385   0.261   6.255  0.3485 -0.4803  0.3476
 3990TIP3    H233386   5.338   0.124   6.211 -0.7088  0.2059 -0.7020
 3991TIP3   OH233387   4.918   0.281  13.793  0.0474  0.6173 -0.0913
 3991TIP3    H133388   4.990   0.258  13.851 -0.5692  1.8577  1.2295
 3991TIP3    H233389   4.933   0.228  13.715  0.5486 -1.6438  1.4142
 3992TIP3   OH233390   1.247   3.507   5.222 -0.0452  0.0809  0.1988
 3992TIP3    H133391   1.287   3.520   5.308 -0.2531 -0.2682  0.3540
 3992TIP3    H233392   1.301   3.440   5.180  0.4089  0.6825 -0.1804
 3993TIP3   OH233393   4.249   5.877  10.853  0.1673  1.1589 -0.1966
 3993TIP3    H133394   4.279   5.967  10.844 -1.5494  1.8833  0.7477
 3993TIP3    H233395   4.256   5.858  10.947  0.9670  0.1275 -0.4439
 3994TIP3   OH233396   1.403   1.227  11.385  0.0878 -0.9318 -0.4267
 3994TIP3    H133397   1.312   1.197  11.389 -0.1637 -0.6100 -2.6775
 3994TIP3    H233398   1.438   1.187  11.306  1.2561  0.6369 -0.7544
 3995TIP3   OH233399   6.152   3.433   5.007  0.5787  0.3022 -0.2223
 3995TIP3    H133400   6.143   3.516   5.054  1.8027 -1.0592  2.6097
 3995TIP3    H233401   6.225   3.389   5.049  1.4190 -1.3171 -3.1292
 3996TIP3   OH233402   3.769   1.183  14.284 -0.2061  0.0062  0.0345
 3996TIP3    H133403   3.711   1.196  14.210  0.3446 -0.9530 -0.5839
 3996TIP3    H233404   3.711   1.170  14.359 -0.7847  2.3099  0.0714
 3997TIP3   OH233405   3.107   1.554   3.660  0.1980 -0.4646  0.0975
 3997TIP3    H133406   3.079   1.631   3.610 -1.4508 -2.4896 -2.3084
 3997TIP3    H233407   3.077   1.572   3.749 -0.8527  1.3280 -0.5546
 3998TIP3   OH233408   5.450   5.480  14.570  0.0544 -0.2169 -0.1586
 3998TIP3    H133409   5.368   5.475  14.520  1.7464  1.2847 -3.3227
 3998TIP3    H233410   5.451   5.569  14.605  0.3916 -0.1878 -0.2421
 3999TIP3   OH233411   6.484   4.770   6.099  0.1468  0.1049  0.2223
 3999TIP3    H133412   6.418   4.839   6.102  0.1464  0.1304 -0.2641
 3999TIP3    H233413   6.470   4.720   6.180 -1.9750 -1.2568 -0.8779
 4000TIP3   OH233414   6.541   5.632  13.321 -0.3802  0.0605 -0.0133
 4000TIP3    H133415   6.571   5.560  13.376 -0.1838 -1.4224 -1.9623
 4000TIP3    H233416   6.614   5.694  13.321 -0.5269  0.2868  1.6314
 4001TIP3   OH233417   2.242   1.307  10.798  0.1367  0.6929  0.1210
 4001TIP3    H133418   2.188   1.304  10.877  0.6307 -0.3378  0.4319
 4001TIP3    H233419   2.234   1.219  10.760  0.8785  0.8017 -0.3115
 4002TIP3   OH233420   0.226   1.910  16.860  0.4727  0.3507 -0.4133
 4002TIP3    H133421   0.163   1.980  16.876  1.4630  1.1138  0.2913
 4002TIP3    H233422   0.207   1.844  16.926  0.1314  0.3697 -0.4906
 4003TIP3   OH233423   1.997   0.685  12.188  0.4179 -0.0947  0.6635
 4003TIP3    H133424   1.903   0.669  12.196 -0.0305  0.8209 -1.7498
 4003TIP3    H233425   2.013   0.763  12.240 -0.4768  0.5784 -0.0339
 4004TIP3   OH233426   0.747   3.061   5.570  0.2514  0.5465 -0.8982
 4004TIP3    H133427   0.796   3.140   5.595 -0.3222  0.5728  0.1976
 4004TIP3    H233428   0.670   3.062   5.626  0.0521 -0.6080 -1.1331
 4005TIP3   OH233429   0.668   3.137  13.213 -0.0474  0.1886  0.4195
 4005TIP3    H133430   0.656   3.206  13.147 -2.1324  0.9074  1.4580
 4005TIP3    H233431   0.628   3.173  13.292  1.1425 -1.2181  1.7100
 4006TIP3   OH233432   5.295   1.224   1.271  0.3640 -0.3702  0.3443
 4006TIP3    H133433   5.358   1.297   1.267 -1.8137  1.5860 -0.1689
 4006TIP3    H233434   5.302   1.191   1.360 -0.4777  2.2788  1.4811
 4007TIP3   OH233435   3.639   2.869  14.714  0.3899 -0.7277  0.0329
 4007TIP3    H133436   3.616   2.824  14.633 -2.0996  0.2021  0.1293
 4007TIP3    H233437   3.712   2.927  14.690 -0.9582  0.2743 -1.8395
 4008TIP3   OH233438   6.343   4.492  14.218 -0.2633  0.1919 -0.1064
 4008TIP3    H133439   6.356   4.587  14.218  1.0553  0.0347  0.5067
 4008TIP3    H233440   6.272   4.477  14.280  0.8108  0.6530  1.2859
 4009TIP3   OH233441   3.751   0.119   3.969  0.4374  0.3217 -0.3052
 4009TIP3    H133442   3.687   0.141   3.901 -1.4889 -0.3270  1.2100
 4009TIP3    H233443   3.718   0.038   4.008  2.4902 -0.3299  0.2139
 4010TIP3   OH233444   3.881   0.378  16.760 -0.0250 -0.3233 -0.7152
 4010TIP3    H133445   3.882   0.469  16.788 -0.9980 -0.8323  1.1997
 4010TIP3    H233446   3.788   0.357  16.752  0.1981 -1.0456 -1.5025
 4011TIP3   OH233447   3.885   4.514   0.049  0.6276 -0.2989  0.3453
 4011TIP3    H133448   3.794   4.517   0.078  0.0633  1.5211 -1.3574
 4011TIP3    H233449   3.937   4.512   0.130 -0.8520  3.0715  1.5348
 4012TIP3   OH233450   0.745   1.385  11.293 -0.0162  0.3785 -0.2727
 4012TIP3    H133451   0.698   1.336  11.225  0.0449 -1.2616  0.8101
 4012TIP3    H233452   0.705   1.357  11.375  0.4758  1.6845  0.4416
 4013TIP3   OH233453   1.415   0.860  15.686  0.1939  0.0930  0.1853
 4013TIP3    H133454   1.366   0.784  15.655  0.1597  0.1249  0.1608
 4013TIP3    H233455   1.415   0.852  15.781 -1.1457  0.8792  0.2734
 4014TIP3   OH233456   6.648   6.147   5.684  0.4622  0.0384 -0.1301
 4014TIP3    H133457   6.702   6.187   5.752  0.9403 -1.1081  0.2020
 4014TIP3    H233458   6.671   6.054   5.687  0.5437 -0.0310 -1.9162
 4015TIP3   OH233459   5.999   5.329   6.025 -0.0893  0.5649  0.4312
 4015TIP3    H133460   5.945   5.324   6.105 -0.2108 -1.6804  0.2626
 4015TIP3    H233461   5.946   5.285   5.958  1.5868 -1.0399  0.0840
 4016TIP3   OH233462   2.685   5.334   0.653  0.5553  0.8463  0.3208
 4016TIP3    H133463   2.692   5.430   0.662  1.0002  0.8766 -0.3388
 4016TIP3    H233464   2.749   5.311   0.586 -0.0073  0.1546  0.0086
 4017TIP3   OH233465   2.082   1.533  12.859 -0.3728  0.1128 -0.5360
 4017TIP3    H133466   2.166   1.512  12.901  0.3041 -0.6537 -2.1765
 4017TIP3    H233467   2.016   1.510  12.924  0.5814 -1.9756 -0.2329
 4018TIP3   OH233468   4.319   0.466  16.031  0.0927 -0.2700  0.6325
 4018TIP3    H133469   4.387   0.523  16.066  1.3343 -1.4016  0.1723
 4018TIP3    H233470   4.249   0.525  16.003  1.5456  1.0674 -0.3285
 4019TIP3   OH233471   3.296   1.352   5.640 -0.2880  0.0155  0.0730
 4019TIP3    H133472   3.300   1.442   5.610  0.8611 -0.7859 -2.3919
 4019TIP3    H233473   3.378   1.339   5.689  0.1436 -0.0333 -0.6544
 4020TIP3   OH233474   4.078   0.984  13.614 -0.3611  0.0602 -0.7807
 4020TIP3    H133475   4.029   1.011  13.692 -1.5783  1.5840 -2.0145
 4020TIP3    H233476   4.143   1.053  13.602  0.6505 -0.8139 -0.4312
 4021TIP3   OH233477   2.529   0.077  14.880 -0.3412  0.2790  0.6124
 4021TIP3    H133478   2.522   0.033  14.795 -1.1496  1.9041 -0.2150
 4021TIP3    H233479   2.620   0.106  14.884  0.1465 -1.2224  1.0777
 4022TIP3   OH233480   0.513   6.285   5.667 -1.0900  0.0711  0.0804
 4022TIP3    H133481   0.471   6.319   5.746  0.0508 -1.0655  1.2279
 4022TIP3    H233482   0.444   6.235   5.623 -1.0016 -1.9124  2.0126
 4023TIP3   OH233483   2.821   1.545   2.095  0.2303 -0.0444  0.4474
 4023TIP3    H133484   2.757   1.537   2.025  3.7874 -1.9500 -2.9864
 4023TIP3    H233485   2.849   1.456   2.113  2.2488  0.7124  1.4006
 4024TIP3   OH233486   1.899   0.493  11.445 -0.6929 -0.2625  0.1390
 4024TIP3    H133487   1.926   0.568  11.391 -1.2301 -0.2683 -0.1478
 4024TIP3    H233488   1.981   0.451  11.470 -0.4094  0.0779 -0.1982
 4025TIP3   OH233489   6.401   6.497   0.925  0.0135 -0.3373  0.7291
 4025TIP3    H133490   6.323   6.509   0.871 -1.1145  1.4468  2.5751
 4025TIP3    H233491   6.380   6.544   1.007  2.0198 -1.9785  2.2886
 4026TIP3   OH233492   0.761   4.775  11.286  0.2666 -0.3157 -0.5652
 4026TIP3    H133493   0.818   4.851  11.299 -1.0866  0.7387 -0.5074
 4026TIP3    H233494   0.799   4.729  11.211  0.8233  0.7151 -0.9407
 4027TIP3   OH233495   3.628   4.245   0.156  0.0254 -0.1355 -0.5684
 4027TIP3    H133496   3.621   4.228   0.062  2.9724  1.2460 -1.1352
 4027TIP3    H233497   3.641   4.159   0.196 -0.1310 -0.6213 -1.5415
 4028TIP3   OH233498   4.455   6.693   5.760  0.1730  0.0964  0.0030
 4028TIP3    H133499   4.422   6.656   5.679  0.8258  1.1568 -0.7732
 4028TIP3    H233500   4.445   6.623   5.824  0.8840 -1.2279 -1.2819
 4029TIP3   OH233501   0.789   0.011  16.207 -0.0444 -0.5699  0.4318
 4029TIP3    H133502   0.709   0.061  16.193 -0.8372 -1.0890  2.7194
 4029TIP3    H233503   0.849   0.072  16.249 -0.5470 -1.1208  2.0115
 4030TIP3   OH233504   5.804   2.847  12.105  0.5862 -0.1187  0.6786
 4030TIP3    H133505   5.746   2.864  12.031 -1.4440  0.7368  2.3662
 4030TIP3    H233506   5.884   2.813  12.065 -0.3623  0.4318 -1.8945
 4031TIP3   OH233507   5.454   4.225   5.530 -0.1900 -0.3058  0.2999
 4031TIP3    H133508   5.467   4.181   5.614 -1.1551 -2.6339 -0.6768
 4031TIP3    H233509   5.363   4.207   5.507 -0.7527  2.5450 -0.0836
 4032TIP3   OH233510   4.956   5.362  13.137  0.2254 -0.4768  0.0470
 4032TIP3    H133511   5.050   5.355  13.154  0.7107  3.2810 -0.1124
 4032TIP3    H233512   4.918   5.388  13.220 -0.4774 -0.6896 -0.1989
 4033TIP3   OH233513   5.110   4.041  15.062  0.4569 -0.1954  0.0604
 4033TIP3    H133514   5.167   4.013  15.134 -0.8455 -2.5780  0.2767
 4033TIP3    H233515   5.065   4.118  15.096 -1.0937 -1.9909  2.4327
 4034TIP3   OH233516   0.779   6.275   2.028  0.9186  0.1834  0.0458
 4034TIP3    H133517   0.793   6.353   2.082  2.3449  0.0446 -0.0865
 4034TIP3    H233518   0.804   6.202   2.084 -0.2341 -0.1941  0.1047
 4035TIP3   OH233519   5.561   4.234   0.452  0.2055  0.1125  0.3450
 4035TIP3    H133520   5.649   4.248   0.486  0.1727  0.1098  0.4323
 4035TIP3    H233521   5.549   4.139   0.454 -0.2295  0.1796  1.4456
 4036TIP3   OH233522   2.014   6.236  15.904 -0.0323  0.4375 -0.3608
 4036TIP3    H133523   2.069   6.217  15.980 -0.4766 -1.4265 -0.4377
 4036TIP3    H233524   1.998   6.330  15.908 -0.0556  0.3972  1.8854
 4037TIP3   OH233525   5.535   0.487   4.069  0.0772 -0.0638  0.4147
 4037TIP3    H133526   5.481   0.481   4.148 -0.6486  0.3787 -0.0298
 4037TIP3    H233527   5.483   0.442   4.002 -0.1778  1.1402 -0.2352
 4038TIP3   OH233528   2.441   6.780   3.788 -0.6985  0.4129 -0.2104
 4038TIP3    H133529   2.433   6.873   3.809 -0.8212  1.6383 -4.6822
 4038TIP3    H233530   2.534   6.768   3.769 -0.9821  0.2418 -1.6390
 4039TIP3   OH233531   6.526   1.865  12.058  0.1423  0.7221  0.1735
 4039TIP3    H133532   6.499   1.782  12.098 -1.5154  0.2979 -1.6765
 4039TIP3    H233533   6.460   1.928  12.088 -0.5314  0.6169 -1.0565
 4040TIP3   OH233534   1.978   2.468  14.605 -0.1763  0.0016 -0.6082
 4040TIP3    H133535   2.003   2.473  14.697 -0.4780 -0.1010 -0.5213
 4040TIP3    H233536   1.947   2.556  14.584  0.7483  0.2837 -0.8633
 4041TIP3   OH233537   3.334   3.265  12.062 -0.9822 -0.4904 -0.3145
 4041TIP3    H133538   3.272   3.318  12.113 -2.7143 -2.2803 -0.4401
 4041TIP3    H233539   3.410   3.256  12.119 -1.3022  0.7495  0.3526
 4042TIP3   OH233540   1.637   0.028   0.669  0.0661  0.3513 -0.1283
 4042TIP3    H133541   1.582  -0.051   0.673 -0.0607  0.4927  1.1160
 4042TIP3    H233542   1.579   0.098   0.697  0.3068  0.8318 -0.8124
 4043TIP3   OH233543   1.168   5.227   5.712  0.2223  0.4847 -0.4285
 4043TIP3    H133544   1.188   5.217   5.805 -4.1865  0.4441  0.7544
 4043TIP3    H233545   1.204   5.149   5.671  0.4939 -0.5452  1.6380
 4044TIP3   OH233546   2.296   3.586   4.461 -0.0651  0.0652  0.4047
 4044TIP3    H133547   2.253   3.554   4.541  2.1621 -2.3472  0.7561
 4044TIP3    H233548   2.381   3.541   4.459  1.0849  2.0822 -1.9630
 4045TIP3   OH233549   6.596   0.273  12.967 -0.2994 -0.1116  0.0882
 4045TIP3    H133550   6.523   0.326  12.998 -0.3419  1.4282 -2.3438
 4045TIP3    H233551   6.600   0.292  12.873  3.8374  0.6427  0.2517
 4046TIP3   OH233552   0.631   0.056  15.206  0.2245  0.0010  0.0484
 4046TIP3    H133553   0.574  -0.010  15.246 -1.3428  1.0919 -0.3052
 4046TIP3    H233554   0.581   0.088  15.131  1.2941  1.0483 -0.2346
 4047TIP3   OH233555   5.451   6.058   3.308  0.4067 -0.1127 -0.0229
 4047TIP3    H133556   5.421   6.146   3.329  0.1854  0.2539 -1.7306
 4047TIP3    H233557   5.401   6.034   3.230  0.6337 -1.6644  0.2746
 4048TIP3   OH233558   2.471   0.370   0.952  0.6413  0.3676 -0.1461
 4048TIP3    H133559   2.394   0.374   1.009 -0.0448 -3.0315 -0.5707
 4048TIP3    H233560   2.539   0.331   1.006  1.0731  0.3925 -0.6655
 4049TIP3   OH233561   4.845   3.587   5.962 -0.0974 -0.1369 -0.0901
 4049TIP3    H133562   4.899   3.511   5.980  0.4642  0.2490 -0.1129
 4049TIP3    H233563   4.849   3.639   6.042 -0.0134  0.1401 -0.2732
 4050TIP3   OH233564   1.132   3.984   1.310  0.3910  0.4285 -0.1297
 4050TIP3    H133565   1.103   3.893   1.316  0.3643  0.5204  1.4208
 4050TIP3    H233566   1.228   3.978   1.305  0.3857  0.3053 -0.0884
 4051TIP3   OH233567   0.852   5.392  11.917 -0.8704  0.5454 -0.1958
 4051TIP3    H133568   0.775   5.434  11.955 -0.8907  0.4363 -0.1154
 4051TIP3    H233569   0.818   5.309  11.882 -0.4600 -0.3257  1.4002
 4052TIP3   OH233570   3.475   2.946  12.284 -0.3162  0.3777  0.0869
 4052TIP3    H133571   3.515   2.886  12.347 -0.5245 -1.6061 -1.5813
 4052TIP3    H233572   3.385   2.958  12.315  0.3185  1.6244  1.6045
 4053TIP3   OH233573   4.539   6.054  11.151 -0.2065  0.0687 -0.0915
 4053TIP3    H133574   4.586   6.100  11.081  0.2418  0.0790  0.2068
 4053TIP3    H233575   4.587   5.971  11.161  0.8723  0.8285  1.4266
 4054TIP3   OH233576   0.454   0.069  12.950 -0.2174  0.0893  0.1211
 4054TIP3    H133577   0.498   0.146  12.913  1.3157 -0.8723 -0.1168
 4054TIP3    H233578   0.512  -0.004  12.930 -0.9551 -0.9371  1.5974
 4055TIP3   OH233579   5.879   5.455   6.570  0.3362  0.0339  0.3835
 4055TIP3    H133580   5.804   5.435   6.515  1.2057  0.1179 -0.8737
 4055TIP3    H233581   5.950   5.401   6.535  1.5185  1.8209 -0.1252
 4056TIP3   OH233582   4.876   5.908  16.663  0.4881  0.0616 -0.6553
 4056TIP3    H133583   4.953   5.852  16.652  0.1637 -0.4942 -0.1173
 4056TIP3    H233584   4.835   5.910  16.576  0.9409  0.1168 -0.8688
 4057TIP3   OH233585   2.310   5.190   1.950  0.3005 -0.4923 -0.1714
 4057TIP3    H133586   2.312   5.174   2.045  1.1550  0.0231 -0.0851
 4057TIP3    H233587   2.233   5.143   1.919 -0.1874 -0.3901  0.8328
 4058TIP3   OH233588   3.095   0.143  12.503 -0.1802  0.2443  0.3975
 4058TIP3    H133589   3.173   0.135  12.449 -0.6811  0.4546 -0.3637
 4058TIP3    H233590   3.040   0.207  12.458 -1.5482 -1.1516 -0.0165
 4059TIP3   OH233591   5.163   1.504  10.904  0.3535 -0.6872 -0.2603
 4059TIP3    H133592   5.185   1.586  10.947 -0.6369 -1.1887  1.3122
 4059TIP3    H233593   5.076   1.518  10.867  0.7240 -0.6324 -1.1435
 4060TIP3   OH233594   1.069   5.652   3.520  0.0222  0.2535 -0.0321
 4060TIP3    H133595   0.998   5.680   3.578 -1.6307 -1.5922 -1.0750
 4060TIP3    H233596   1.133   5.724   3.525 -1.5353  1.6295  1.5266
 4061TIP3   OH233597   0.286   0.829   4.315 -0.3542  0.3745  0.0286
 4061TIP3    H133598   0.226   0.872   4.254 -0.5437 -0.3267 -0.2896
 4061TIP3    H233599   0.245   0.840   4.401 -0.1695  1.2186  0.0228
 4062TIP3   OH233600   1.546   3.199  14.573  0.1367 -0.4849  0.2597
 4062TIP3    H133601   1.541   3.175  14.666 -2.0467  0.5982  0.4925
 4062TIP3    H233602   1.587   3.124  14.531  1.6185 -0.8122  2.1419
 4063TIP3   OH233603   6.480   5.194   3.534 -0.0423  0.2460 -0.0817
 4063TIP3    H133604   6.536   5.117   3.540 -0.2762 -0.1638 -2.2221
 4063TIP3    H233605   6.419   5.186   3.607 -1.1455 -2.5646 -1.1690
 4064TIP3   OH233606   2.599   3.125  15.148 -0.3686  0.3310 -0.6212
 4064TIP3    H133607   2.537   3.074  15.200 -0.9630  0.8147 -0.8416
 4064TIP3    H233608   2.545   3.172  15.085 -0.2639  3.8273  1.6344
 4065TIP3   OH233609   5.126   4.201   6.349 -0.1221  0.7575  0.2957
 4065TIP3    H133610   5.211   4.164   6.375  0.0267 -0.0729 -1.3000
 4065TIP3    H233611   5.097   4.249   6.427  1.7683  1.0092  0.9090
 4066TIP3   OH233612   2.113   3.444  16.040  0.5354  0.4324 -0.4528
 4066TIP3    H133613   2.046   3.390  16.083 -0.1698  1.0458 -0.7457
 4066TIP3    H233614   2.111   3.415  15.949 -0.2549  1.3310 -0.7326
 4067TIP3   OH233615   2.839   1.902  14.682 -0.6083 -0.0933 -0.7816
 4067TIP3    H133616   2.787   1.822  14.689  0.0199 -0.4366  0.1733
 4067TIP3    H233617   2.924   1.871  14.651  0.2056 -0.0704  1.2841
 4068TIP3   OH233618   3.793   5.172  11.698  0.3316  0.0510 -0.1111
 4068TIP3    H133619   3.765   5.149  11.787  0.0552  1.0401  0.0731
 4068TIP3    H233620   3.767   5.264  11.688  1.5729  0.3599 -0.7266
 4069TIP3   OH233621   2.198   1.436  12.356  1.0025  0.1724 -0.5158
 4069TIP3    H133622   2.236   1.454  12.442 -2.4274 -0.8194  1.4112
 4069TIP3    H233623   2.130   1.503  12.345  1.1680  0.0989 -2.3692
 4070TIP3   OH233624   3.615   5.991   5.478 -0.3028 -0.0033 -0.0329
 4070TIP3    H133625   3.522   5.967   5.477  0.0284 -1.3445 -0.4595
 4070TIP3    H233626   3.656   5.922   5.529  0.2780  1.3965  1.4777
 4071TIP3   OH233627   6.041   2.988  15.899  0.7744 -0.1266  0.8737
 4071TIP3    H133628   6.048   3.042  15.977 -1.3697  2.4433 -0.5119
 4071TIP3    H233629   6.111   3.019  15.842 -0.4945  1.3985  0.0537
 4072TIP3   OH233630   5.421   6.355   0.853 -0.1853  0.7533 -0.3526
 4072TIP3    H133631   5.411   6.422   0.920 -0.2012 -1.9345  2.5124
 4072TIP3    H233632   5.353   6.375   0.788  0.0019  3.5795  0.2030
 4073TIP3   OH233633   5.994   6.684  13.940 -0.7849  0.2800 -0.0954
 4073TIP3    H133634   5.951   6.764  13.908 -1.7539 -0.0938  0.2459
 4073TIP3    H233635   6.014   6.635  13.860  0.9583  1.3918 -0.4087
 4074TIP3   OH233636   3.490   5.306   5.096 -0.2460 -0.0269  0.6981
 4074TIP3    H133637   3.586   5.306   5.093 -0.1745  0.2805  2.1242
 4074TIP3    H233638   3.469   5.358   5.173 -1.4960 -2.3752  2.0534
 4075TIP3   OH233639   6.665   3.017   3.841 -0.0767  0.2761 -0.6938
 4075TIP3    H133640   6.696   3.072   3.769  1.7216 -0.4559 -0.5269
 4075TIP3    H233641   6.603   2.957   3.800 -1.4611  1.8699 -1.0248
 4076TIP3   OH233642   1.063   3.418   4.587 -0.1687  0.3812 -0.2265
 4076TIP3    H133643   1.062   3.399   4.493  0.3779  0.7018 -0.3019
 4076TIP3    H233644   0.978   3.457   4.605 -1.3602 -2.0953 -0.0615
 4077TIP3   OH233645   6.368   3.673   2.217  0.0608  0.3384 -0.0193
 4077TIP3    H133646   6.401   3.744   2.272  1.0612  0.3179 -0.5710
 4077TIP3    H233647   6.304   3.628   2.272  0.0840  1.1160  0.6591
 4078TIP3   OH233648   3.175   3.478   0.253  0.0466 -0.0313 -0.4512
 4078TIP3    H133649   3.172   3.517   0.340 -0.7911 -1.5714  0.2426
 4078TIP3    H233650   3.260   3.504   0.218  0.8706 -0.2728  1.2602
 4079TIP3   OH233651   0.968   0.833   2.043 -0.0526  0.1027  0.7447
 4079TIP3    H133652   0.938   0.750   2.005 -0.2828  0.2289  0.6526
 4079TIP3    H233653   1.055   0.846   2.004 -1.1700  1.3809 -1.5921
 4080TIP3   OH233654   4.443   5.213  16.588 -0.1586  0.4594  0.5987
 4080TIP3    H133655   4.371   5.204  16.526  0.7638 -1.4807 -0.2803
 4080TIP3    H233656   4.507   5.268  16.542 -0.1967  0.4361  0.5175
 4081TIP3   OH233657   4.440   2.058   5.134 -0.5089  0.5871  0.7334
 4081TIP3    H133658   4.399   1.981   5.095 -1.0124  1.8099 -1.3081
 4081TIP3    H233659   4.390   2.074   5.214 -0.5393 -1.0203  1.0826
 4082TIP3   OH233660   5.988   2.994   2.513  0.4956 -0.0261 -0.7120
 4082TIP3    H133661   6.054   2.936   2.473 -0.4004 -1.6730  0.0620
 4082TIP3    H233662   5.958   2.945   2.590 -0.8053  1.2053 -0.4029
 4083TIP3   OH233663   4.030   6.395  14.670 -0.0012  0.1121 -0.1700
 4083TIP3    H133664   4.041   6.490  14.677  0.9698  0.0449 -0.5841
 4083TIP3    H233665   4.115   6.364  14.638  0.3654 -1.1081  1.8596
 4084TIP3   OH233666   1.926   6.233  16.999  0.0485  0.6303  0.2424
 4084TIP3    H133667   1.843   6.278  17.014  0.5037  1.9241 -0.9271
 4084TIP3    H233668   1.905   6.169  16.930  0.3275  2.0204 -1.1821
 4085TIP3   OH233669   2.125   2.298  14.414 -0.2287 -0.3176  0.0958
 4085TIP3    H133670   2.101   2.333  14.500  1.0576 -0.7631  0.6783
 4085TIP3    H233671   2.105   2.205  14.420 -2.2398  0.0131 -0.9156
 4086TIP3   OH233672   3.617   4.770  12.308 -0.3172 -0.0101 -0.0155
 4086TIP3    H133673   3.678   4.731  12.245 -3.1843 -0.9127 -2.5142
 4086TIP3    H233674   3.638   4.729  12.391  0.3273 -2.9205 -1.4688
 4087TIP3   OH233675   0.474   6.257  12.304 -0.4012 -0.1447  0.6884
 4087TIP3    H133676   0.430   6.181  12.266 -0.1266 -0.4177  0.9080
 4087TIP3    H233677   0.421   6.332  12.278 -0.0086 -0.2863 -0.5442
 4088TIP3   OH233678   4.068   0.522   4.768  0.2624 -0.6530  0.3632
 4088TIP3    H133679   4.072   0.504   4.862  0.2267 -0.3980  0.4147
 4088TIP3    H233680   4.089   0.615   4.761  1.7624 -0.9935 -0.0049
 4089TIP3   OH233681   3.396   6.586   2.734 -0.5641 -0.3962 -0.4423
 4089TIP3    H133682   3.340   6.511   2.752  0.2022 -0.5156  1.7712
 4089TIP3    H233683   3.344   6.662   2.764  0.1150 -0.4365  0.8945
 4090TIP3   OH233684   5.676   2.204  14.091 -0.6139 -0.4269  0.2149
 4090TIP3    H133685   5.657   2.119  14.131  0.1143 -0.8901 -0.4090
 4090TIP3    H233686   5.608   2.262  14.126 -2.4854 -1.7482 -1.0388
 4091TIP3   OH233687   0.032   0.194   1.969  0.0394 -0.0314 -0.7847
 4091TIP3    H133688   0.103   0.130   1.965 -0.4667 -0.6878  0.2779
 4091TIP3    H233689  -0.047   0.143   1.950 -0.4322  0.1536  0.5525
 4092TIP3   OH233690   2.166   1.827  13.870 -0.3510  0.3125  0.3059
 4092TIP3    H133691   2.119   1.909  13.852 -1.8853 -0.1597  1.9500
 4092TIP3    H233692   2.100   1.767  13.903  1.0146 -1.1507  0.5301
 4093TIP3   OH233693   5.550   3.113  14.472  0.1114 -0.2221 -0.1033
 4093TIP3    H133694   5.537   3.208  14.480 -0.5621 -0.4043  1.2395
 4093TIP3    H233695   5.527   3.078  14.558  2.4712 -1.4020  0.1248
 4094TIP3   OH233696   3.573   5.248   0.610  0.4171 -0.4054 -0.0602
 4094TIP3    H133697   3.513   5.224   0.540 -0.8789  2.0268  0.1463
 4094TIP3    H233698   3.640   5.179   0.608 -2.0531 -2.9908 -0.5800
 4095TIP3   OH233699   0.628   3.455   4.850 -0.2158  0.3499  0.3983
 4095TIP3    H133700   0.603   3.540   4.886 -0.2539  0.7017 -0.4367
 4095TIP3    H233701   0.550   3.424   4.805 -0.0082  0.1601  0.1670
 4096TIP3   OH233702   3.190   1.063  13.146 -0.1274  0.5787  0.2064
 4096TIP3    H133703   3.156   0.989  13.197 -2.6450  1.7706  0.3775
 4096TIP3    H233704   3.137   1.138  13.173  3.4772  2.9606  1.3801
 4097TIP3   OH233705   4.865   6.110  13.265  0.0526  0.0076 -0.1475
 4097TIP3    H133706   4.820   6.182  13.219 -0.9224 -0.3431  0.2197
 4097TIP3    H233707   4.958   6.126  13.249 -0.1391  1.3756 -0.0445
 4098TIP3   OH233708   1.630   0.354  16.900 -0.2016  0.3176 -0.3813
 4098TIP3    H133709   1.718   0.380  16.873 -0.9980  1.4237 -2.0857
 4098TIP3    H233710   1.576   0.368  16.822 -1.9426 -0.1025  0.6933
 4099TIP3   OH233711   0.117   3.662  16.703  0.0130 -0.6168 -0.3680
 4099TIP3    H133712   0.069   3.623  16.776  2.7797 -1.5191  1.1247
 4099TIP3    H233713   0.142   3.749  16.735 -0.3838 -0.2442 -1.0393
 4100TIP3   OH233714   5.590   3.532  14.797  0.3394  0.4661 -0.4252
 4100TIP3    H133715   5.564   3.595  14.730 -2.5615  0.9754  1.0220
 4100TIP3    H233716   5.510   3.487  14.820  2.0696 -2.8470 -0.3554
 4101TIP3   OH233717   0.089   2.788  17.238  0.1232 -0.1152 -0.1282
 4101TIP3    H133718   0.170   2.768  17.190  1.3332 -0.7260  2.0544
 4101TIP3    H233719   0.084   2.883  17.239  0.5501 -0.0817 -0.6910
 4102TIP3   OH233720   1.961   0.119   5.149  0.0455 -0.9523  0.5422
 4102TIP3    H133721   1.911   0.119   5.067 -0.8602 -0.2298  1.0723
 4102TIP3    H233722   2.012   0.200   5.146  2.0378 -2.1553 -0.4526
 4103TIP3   OH233723   2.396   4.776  12.916 -0.2118 -0.6211  0.3106
 4103TIP3    H133724   2.419   4.694  12.872 -1.4802 -0.5321 -0.5746
 4103TIP3    H233725   2.324   4.811  12.864  0.2995  1.0576  0.6872
 4104TIP3   OH233726   6.158   3.346   5.443 -0.4149 -0.1783  0.0762
 4104TIP3    H133727   6.174   3.431   5.401 -1.0418  0.1354  0.4627
 4104TIP3    H233728   6.214   3.285   5.394  1.4471  0.7529  0.9429
 4105TIP3   OH233729   0.343   6.780  11.219 -0.1667  0.6207 -0.2258
 4105TIP3    H133730   0.360   6.823  11.135  2.6088 -1.3408 -0.7945
 4105TIP3    H233731   0.287   6.706  11.196  0.2905  0.2973 -0.3181
 4106TIP3   OH233732   3.158   5.251   6.361  0.4006  0.2445  0.0991
 4106TIP3    H133733   3.109   5.316   6.310 -0.2029 -0.2369  0.0588
 4106TIP3    H233734   3.249   5.264   6.335  0.2217  0.7113 -0.3124
 4107TIP3   OH233735   2.821   6.082  11.880 -0.4300 -0.2748  0.1404
 4107TIP3    H133736   2.748   6.108  11.823 -0.9306 -0.3247  0.7505
 4107TIP3    H233737   2.858   6.166  11.910 -0.3871 -0.2508  0.0220
 4108TIP3   OH233738   5.968   6.532  16.152 -0.0125  0.3352  0.6762
 4108TIP3    H133739   6.014   6.547  16.070 -0.9615 -0.5483 -0.0430
 4108TIP3    H233740   6.017   6.462  16.195 -0.6623 -0.6304 -0.1054
 4109TIP3   OH233741   4.774   5.693  14.176  0.1684 -0.5951 -0.1090
 4109TIP3    H133742   4.694   5.737  14.146  1.2591  1.0078 -0.8073
 4109TIP3    H233743   4.840   5.718  14.112  1.7116 -0.1956  1.5724
 4110TIP3   OH233744   6.644   3.052  16.535  0.0333 -0.2331 -0.1829
 4110TIP3    H133745   6.578   3.001  16.488 -0.1851  0.6448 -0.8514
 4110TIP3    H233746   6.724   3.038  16.486 -0.1354  0.4656 -0.6592
 4111TIP3   OH233747   4.060   2.985   0.824 -0.9504  0.4869  0.2799
 4111TIP3    H133748   4.148   3.021   0.812 -0.4217 -1.0521 -0.7770
 4111TIP3    H233749   4.068   2.925   0.898 -0.8840 -0.2978 -0.3523
 4112TIP3   OH233750   4.065   6.023   2.468  0.2049  0.5631 -0.0117
 4112TIP3    H133751   4.097   6.108   2.438  0.1444  0.6134  0.0649
 4112TIP3    H233752   4.026   5.983   2.391 -1.9786  1.6215  0.4702
 4113TIP3   OH233753   3.805   5.791   0.640 -0.0671 -0.0528  0.0046
 4113TIP3    H133754   3.790   5.697   0.648 -1.9138 -0.0314 -2.2422
 4113TIP3    H233755   3.775   5.828   0.724  0.3806 -1.3839  0.7788
 4114TIP3   OH233756   6.459   2.286  16.095  1.0672 -0.0373  0.5713
 4114TIP3    H133757   6.524   2.216  16.093  0.6125 -0.4579 -1.4722
 4114TIP3    H233758   6.488   2.343  16.167  1.8668 -1.8811  1.7954
 4115TIP3   OH233759   3.813   6.413  12.977 -0.2365 -0.2644  0.3722
 4115TIP3    H133760   3.804   6.319  12.959 -0.1503 -0.1973 -0.0075
 4115TIP3    H233761   3.741   6.432  13.037 -1.0303 -0.3109 -0.5391
 4116TIP3   OH233762   0.523   5.111   6.165 -0.1890 -0.1690  0.0236
 4116TIP3    H133763   0.480   5.136   6.247  1.4031 -0.6181  1.0377
 4116TIP3    H233764   0.514   5.188   6.109 -1.5432  0.0456  0.4790
 4117TIP3   OH233765   0.532   6.659   0.565  0.6996 -0.2785  0.2444
 4117TIP3    H133766   0.604   6.624   0.512  1.1537 -0.3222  0.8877
 4117TIP3    H233767   0.549   6.627   0.653  0.2381  0.2359  0.5273
 4118TIP3   OH233768   4.292   5.952   2.627 -0.2411  0.1295  0.1000
 4118TIP3    H133769   4.213   5.981   2.583 -0.5982 -1.8498 -0.7032
 4118TIP3    H233770   4.296   5.858   2.609  2.1401  0.1084  0.3566
 4119TIP3   OH233771   5.671   4.285   6.586  0.2370  0.1702 -0.2416
 4119TIP3    H133772   5.722   4.215   6.545 -0.4701 -0.6447  0.2384
 4119TIP3    H233773   5.712   4.298   6.671  0.7755  0.8128 -0.5920
 4120TIP3   OH233774   2.174   5.417   3.311 -0.3118 -0.1709 -0.1025
 4120TIP3    H133775   2.211   5.493   3.357 -0.0376  0.5848 -1.5105
 4120TIP3    H233776   2.112   5.455   3.249  2.0841 -0.7207 -3.0879
 4121TIP3   OH233777   6.045   2.760  16.164 -0.3324 -0.2548  0.1454
 4121TIP3    H133778   6.001   2.819  16.104 -0.1319 -1.7861 -1.5928
 4121TIP3    H233779   5.977   2.735  16.227 -0.3947  1.8065  0.9621
 4122TIP3   OH233780   0.599   1.865  11.278  0.1609  0.4673  0.4794
 4122TIP3    H133781   0.553   1.881  11.360 -0.9847 -1.0401  0.1871
 4122TIP3    H233782   0.625   1.772  11.284  1.5857  0.7972 -0.1490
 4123TIP3   OH233783   1.801   2.159   4.317 -0.4533  0.5866 -0.0955
 4123TIP3    H133784   1.739   2.086   4.315  0.3174 -0.0808 -0.7797
 4123TIP3    H233785   1.886   2.118   4.334 -0.2470  1.5362  1.3953
 4124TIP3   OH233786   1.577   4.675  14.782  0.9363  0.1211 -0.1206
 4124TIP3    H133787   1.556   4.593  14.826 -0.5309  1.1609  1.2541
 4124TIP3    H233788   1.591   4.651  14.691 -1.0384 -1.4555 -0.0713
 4125TIP3   OH233789   3.682   2.264  14.622 -0.0653  0.0571  0.7347
 4125TIP3    H133790   3.654   2.219  14.541  1.1481 -1.5289  1.1395
 4125TIP3    H233791   3.777   2.267  14.615  0.1335 -0.9025  2.4789
 4126TIP3   OH233792   5.447   4.161  13.160 -0.1396  0.0329  0.4300
 4126TIP3    H133793   5.434   4.212  13.081  1.5583  0.3515  0.3161
 4126TIP3    H233794   5.510   4.094  13.135  0.0673 -0.1469  1.3905
 4127TIP3   OH233795   6.716   0.318   2.231  0.3679 -0.3434 -0.4075
 4127TIP3    H133796   6.686   0.260   2.161 -1.4160  0.2359 -0.1678
 4127TIP3    H233797   6.758   0.259   2.294 -2.2650 -1.6012  0.3131
 4128TIP3   OH233798   0.424   3.800  16.213  0.0794 -0.1081  0.1530
 4128TIP3    H133799   0.416   3.895  16.216  0.5075 -0.0858  1.0121
 4128TIP3    H233800   0.349   3.771  16.162 -0.0917  0.6836 -0.0596
 4129TIP3   OH233801   5.028   0.840  14.086  0.0903  0.1783  0.4161
 4129TIP3    H133802   5.052   0.819  13.995  1.3056  3.0634 -0.0640
 4129TIP3    H233803   4.941   0.878  14.080 -0.9884 -2.0717  0.9086
 4130TIP3   OH233804   1.505   1.877   2.655  0.0688  0.2585 -0.4165
 4130TIP3    H133805   1.566   1.893   2.728  0.3043 -0.9181 -0.3323
 4130TIP3    H233806   1.464   1.962   2.640 -0.8789  0.2924  1.9043
 4131TIP3   OH233807   4.388   0.688   1.468 -0.0060  0.1386 -1.2750
 4131TIP3    H133808   4.305   0.701   1.422 -1.2548  0.9876  1.0019
 4131TIP3    H233809   4.396   0.593   1.478 -2.0523  0.0495  0.5347
 4132TIP3   OH233810   4.576   4.362   3.564  0.1198 -0.7420  0.0303
 4132TIP3    H133811   4.599   4.346   3.655  2.7205 -2.5160 -0.8330
 4132TIP3    H233812   4.552   4.275   3.530 -0.2384 -0.2080 -1.1404
 4133TIP3   OH233813   5.889   5.668   3.618 -0.4865 -0.0752  0.1951
 4133TIP3    H133814   5.813   5.655   3.561 -0.1654  1.4581 -0.6431
 4133TIP3    H233815   5.860   5.637   3.704 -2.1703  0.7570 -0.0281
 4134TIP3   OH233816   2.975   4.379  17.066 -0.2704 -1.2746 -0.1883
 4134TIP3    H133817   2.973   4.456  17.010  0.5924 -0.5663  0.7332
 4134TIP3    H233818   2.902   4.325  17.034 -2.0155  0.6957  0.2554
 4135TIP3   OH233819   4.536   2.309  14.636 -0.3137  0.7215  0.1903
 4135TIP3    H133820   4.499   2.393  14.607 -0.5288  0.1573 -1.2829
 4135TIP3    H233821   4.539   2.316  14.731 -2.6048  1.4770  0.2855
 4136TIP3   OH233822   2.759   5.711   4.238 -0.5034 -0.0182 -0.0458
 4136TIP3    H133823   2.738   5.635   4.183 -0.0218  0.7404 -1.3407
 4136TIP3    H233824   2.790   5.674   4.320  1.1830 -1.2826 -1.1772
 4137TIP3   OH233825   2.245   0.366   0.618  0.7842  0.5243 -1.1738
 4137TIP3    H133826   2.274   0.431   0.682 -2.9184  0.1104  1.2490
 4137TIP3    H233827   2.158   0.395   0.591 -0.9926 -3.1730 -0.1134
 4138TIP3   OH233828   2.087   1.807   2.312  0.3188  0.5454  0.5035
 4138TIP3    H133829   2.028   1.737   2.339  0.7545 -0.8075 -1.7787
 4138TIP3    H233830   2.119   1.845   2.394 -0.0312 -1.8393  1.8249
 4139TIP3   OH233831   3.312   1.484  16.906  0.7277  0.6940 -0.0916
 4139TIP3    H133832   3.278   1.568  16.939 -2.0546 -0.8002  1.1807
 4139TIP3    H233833   3.234   1.438  16.874  1.9767 -1.9400  0.4560
 4140TIP3   OH233834   4.569   1.023   3.396 -0.0477 -0.4471  0.2084
 4140TIP3    H133835   4.664   1.035   3.398 -0.2181  1.3731 -0.8266
 4140TIP3    H233836   4.534   1.108   3.371 -1.7810 -1.8500 -2.5865
 4141TIP3   OH233837   2.068   2.686  13.849 -0.0905  0.4746  0.6062
 4141TIP3    H133838   2.136   2.707  13.785 -0.4129  0.1126  0.1395
 4141TIP3    H233839   2.067   2.590  13.853 -1.0493  0.4445  0.0783
 4142TIP3   OH233840   5.507   3.410  14.408 -0.2813  0.6166 -0.6420
 4142TIP3    H133841   5.515   3.490  14.460  1.1763  0.7429 -1.0235
 4142TIP3    H233842   5.413   3.404  14.388 -0.8453  0.7285  1.7000
 4143TIP3   OH233843   4.935   4.374  11.023  0.1632 -0.2867 -0.3859
 4143TIP3    H133844   4.926   4.414  10.937 -0.9102  1.2894  0.4157
 4143TIP3    H233845   5.016   4.410  11.058 -1.2599  2.0643  0.7073
 4144TIP3   OH233846   4.265   2.916   3.656 -0.1402  0.0517  0.0309
 4144TIP3    H133847   4.323   2.956   3.721  0.1548 -0.4110  0.0540
 4144TIP3    H233848   4.319   2.850   3.613 -0.7656 -0.6585  0.3187
 4145TIP3   OH233849   0.867   1.072   0.736 -0.2203  0.0041 -0.1299
 4145TIP3    H133850   0.906   0.986   0.722  2.7495  0.9044  1.7772
 4145TIP3    H233851   0.920   1.132   0.683 -0.3414  1.0143  0.8436
 4146TIP3   OH233852   4.025   5.841  13.959  0.0309 -0.3361 -0.1525
 4146TIP3    H133853   4.116   5.871  13.952 -0.0378 -0.0985 -0.0669
 4146TIP3    H233854   4.004   5.807  13.872  0.7735 -2.0822  0.3042
 4147TIP3   OH233855   0.952   0.242  14.580  0.1766 -0.3465  0.2889
 4147TIP3    H133856   0.914   0.176  14.638  0.4214 -0.8804 -0.1498
 4147TIP3    H233857   1.028   0.275  14.627 -0.7844  0.7216  1.1703
 4148TIP3   OH233858   2.683   0.960  14.250 -0.3270 -0.3378 -0.0496
 4148TIP3    H133859   2.657   1.051  14.265  0.1110 -0.1930 -0.1723
 4148TIP3    H233860   2.638   0.911  14.319 -0.3727  0.0003  0.1629
 4149TIP3   OH233861   2.790   6.473  11.801  0.1464  0.1117  0.6483
 4149TIP3    H133862   2.717   6.500  11.857 -2.3309 -2.2169 -1.1923
 4149TIP3    H233863   2.850   6.548  11.801 -2.4563  2.3444  1.8864
 4150TIP3   OH233864   4.293   3.714   3.411  0.2900 -0.3965 -0.0604
 4150TIP3    H133865   4.237   3.790   3.393  0.4123 -0.0238  1.0535
 4150TIP3    H233866   4.285   3.701   3.506  2.0422 -0.3673  0.1175
 4151TIP3   OH233867   4.109   6.389   1.962 -0.3005  0.1734 -0.0655
 4151TIP3    H133868   4.163   6.468   1.967  0.2200 -0.2483  1.8435
 4151TIP3    H233869   4.172   6.317   1.966 -0.9469 -0.3282  1.9744
 4152TIP3   OH233870   2.542   1.336  12.577 -0.1688  0.4116 -0.2100
 4152TIP3    H133871   2.625   1.381  12.560  0.6466 -0.8417  0.3191
 4152TIP3    H233872   2.506   1.380  12.654  1.3926 -0.7874  1.2805
 4153TIP3   OH233873   2.940   0.929   0.653  0.3950 -0.1587 -0.7001
 4153TIP3    H133874   2.856   0.951   0.613 -0.9574 -1.1618  1.4182
 4153TIP3    H233875   2.934   0.964   0.742  2.0703 -0.5874 -0.3985
 4154TIP3   OH233876   3.840   3.372   3.616  0.0550 -0.0930  0.3113
 4154TIP3    H133877   3.848   3.278   3.631  0.4370 -0.4236 -1.6074
 4154TIP3    H233878   3.923   3.408   3.648 -0.2323 -0.3456  1.3728
 4155TIP3   OH233879   3.846   4.817  10.891 -0.0061  0.3312 -0.1500
 4155TIP3    H133880   3.868   4.752  10.958  0.6883 -0.3715 -1.0414
 4155TIP3    H233881   3.823   4.766  10.814 -0.1220  1.1387 -0.6636
 4156TIP3   OH233882   6.305   6.720  11.153  0.3146  1.0185  0.3376
 4156TIP3    H133883   6.376   6.716  11.089  0.9999  2.9210  0.9200
 4156TIP3    H233884   6.252   6.642  11.135  0.7310  1.2402 -2.2363
 4157TIP3   OH233885   5.080   2.556   3.328  0.4285 -0.4203 -0.4005
 4157TIP3    H133886   5.051   2.611   3.255 -0.7603 -0.6207 -0.0990
 4157TIP3    H233887   5.071   2.613   3.405 -1.5088 -1.2041  0.0161
 4158TIP3   OH233888   2.161   1.296   0.353  0.8036  0.4334  0.3496
 4158TIP3    H133889   2.120   1.363   0.408 -0.3667 -1.4343  1.8978
 4158TIP3    H233890   2.154   1.215   0.405 -0.7130 -1.5502 -2.6416
 4159TIP3   OH233891   5.060   1.155  14.242  0.0954 -0.7997 -0.1430
 4159TIP3    H133892   5.061   1.108  14.325 -0.1096 -1.0710 -0.2935
 4159TIP3    H233893   5.118   1.230  14.256  1.4193 -1.7565 -0.2749
 4160TIP3   OH233894   3.326   1.296   4.077  0.6825 -0.5021  0.0632
 4160TIP3    H133895   3.291   1.333   4.158  2.0806  2.4597 -0.5442
 4160TIP3    H233896   3.349   1.206   4.100  2.1378  0.5638  3.3557
 4161TIP3   OH233897   6.293   0.864  15.979 -0.0899  0.2677  0.8580
 4161TIP3    H133898   6.237   0.916  15.920  1.4824  0.1969 -0.7829
 4161TIP3    H233899   6.317   0.925  16.048  3.3301  2.5855 -2.0336
 4162TIP3   OH233900   3.533   2.380  13.514 -0.2324 -0.3639  0.1847
 4162TIP3    H133901   3.572   2.299  13.546 -0.8404 -0.7223  0.0429
 4162TIP3    H233902   3.481   2.412  13.588 -2.7028 -1.8800 -0.7778
 4163TIP3   OH233903   0.709   3.344  15.896 -0.5402  0.3537 -0.2954
 4163TIP3    H133904   0.684   3.288  15.970 -0.5326 -0.1345 -0.6532
 4163TIP3    H233905   0.802   3.359  15.907 -0.0429 -1.5798 -1.3979
 4164TIP3   OH233906   1.458   1.456   6.320 -0.7413  0.0397 -0.2800
 4164TIP3    H133907   1.386   1.483   6.264  0.5566  2.3760 -0.9292
 4164TIP3    H233908   1.481   1.534   6.371  2.2303 -0.1455 -1.1281
 4165TIP3   OH233909   5.461   1.654   5.359  0.5184  0.1568 -0.2532
 4165TIP3    H133910   5.434   1.647   5.268  1.9375 -0.6589 -0.6396
 4165TIP3    H233911   5.420   1.734   5.391 -0.6909 -0.0094 -1.3519
 4166TIP3   OH233912   2.892   3.717   3.948  0.1588  0.7641  0.0287
 4166TIP3    H133913   2.922   3.782   3.884  0.4571 -0.0300 -0.6496
 4166TIP3    H233914   2.878   3.768   4.028  1.4399  1.4781 -0.1796
 4167TIP3   OH233915   0.426   3.146  13.966  0.1967 -0.5421  0.1787
 4167TIP3    H133916   0.402   3.065  14.011 -0.9001  0.2350  1.0069
 4167TIP3    H233917   0.362   3.154  13.895  0.6628 -0.6862 -0.2668
 4168TIP3   OH233918   3.469   5.026  15.071 -0.2020  0.4922  0.1408
 4168TIP3    H133919   3.561   5.047  15.056 -0.5489  1.7892 -0.2607
 4168TIP3    H233920   3.461   5.020  15.166  0.3086  0.2820  0.1719
 4169TIP3   OH233921   3.025   6.570  14.707  0.1733 -0.2935 -0.3904
 4169TIP3    H133922   3.054   6.645  14.759  1.2145 -0.1149 -1.1867
 4169TIP3    H233923   2.930   6.573  14.711 -0.2574  4.2844 -4.6728
 4170TIP3   OH233924   1.605   4.697   4.646 -0.3177  0.1393  0.5619
 4170TIP3    H133925   1.581   4.675   4.556 -2.9130  0.2465  1.1651
 4170TIP3    H233926   1.688   4.744   4.638 -1.5076  2.0012 -1.9782
 4171TIP3   OH233927   5.909   2.262  13.679  0.3307  0.0494  0.0051
 4171TIP3    H133928   5.836   2.204  13.702  1.0481 -0.5744  0.7455
 4171TIP3    H233929   5.877   2.311  13.603 -1.4049  0.8239  1.1494
 4172TIP3   OH233930   0.385   5.893   4.168  0.3102  0.4129  0.1377
 4172TIP3    H133931   0.404   5.973   4.218 -1.4646  1.5498 -0.8705
 4172TIP3    H233932   0.291   5.898   4.152  0.1937 -1.8253 -0.1143
 4173TIP3   OH233933   6.391   6.210  13.676 -0.1204 -0.1207  0.4276
 4173TIP3    H133934   6.316   6.265  13.698 -0.7318 -1.2048  1.1413
 4173TIP3    H233935   6.368   6.123  13.709  0.6821 -0.8938 -0.9311
 4174TIP3   OH233936   4.576   2.231  11.110 -0.1646  0.3168 -0.1398
 4174TIP3    H133937   4.550   2.288  11.037 -0.5481 -1.9090 -1.8785
 4174TIP3    H233938   4.579   2.288  11.186 -0.3279  2.6623 -1.7876
 4175TIP3   OH233939   6.160   2.804  11.272 -0.1763 -0.2045 -0.0793
 4175TIP3    H133940   6.089   2.833  11.215  0.8897  1.0224 -0.8475
 4175TIP3    H233941   6.210   2.743  11.218  1.1304  1.3473 -0.7213
 4176TIP3   OH233942   1.494   4.740   5.877  0.0134 -0.1506  0.0315
 4176TIP3    H133943   1.409   4.740   5.920 -0.4316 -2.0834 -0.7734
 4176TIP3    H233944   1.545   4.674   5.925  0.7795  0.3884 -0.0272
 4177TIP3   OH233945   2.358   5.471  16.057  0.0825  0.3614 -1.0057
 4177TIP3    H133946   2.449   5.451  16.038 -0.0043 -0.3381 -0.7290
 4177TIP3    H233947   2.320   5.496  15.973  0.3512 -0.0756 -1.2572
 4178TIP3   OH233948   2.279   2.760  13.681  0.0728  0.0985 -0.1190
 4178TIP3    H133949   2.251   2.845  13.646 -3.8434 -0.8424  0.2185
 4178TIP3    H233950   2.283   2.702  13.605  1.0014  0.1619 -0.1286
 4179TIP3   OH233951   3.645   3.527   4.237  0.1019  0.2265 -0.3705
 4179TIP3    H133952   3.650   3.454   4.175 -0.4713  0.4026 -0.6256
 4179TIP3    H233953   3.557   3.564   4.225  0.0270  0.3420  0.4553
 4180TIP3   OH233954   0.245   5.938   4.545 -0.4375  0.3635  0.9212
 4180TIP3    H133955   0.340   5.930   4.548 -0.5023 -1.0404  0.0403
 4180TIP3    H233956   0.213   5.882   4.615 -0.6206  1.4055  1.7004
 4181TIP3   OH233957   6.545   0.139   1.826  0.3516 -0.1384 -0.6986
 4181TIP3    H133958   6.488   0.199   1.779  1.0942  1.6547  0.5777
 4181TIP3    H233959   6.489   0.102   1.895  0.6990  1.7111  0.6312
 4182TIP3   OH233960   1.217   3.755  15.815  0.1465  0.3536 -0.4135
 4182TIP3    H133961   1.270   3.747  15.894 -0.0389 -1.4618 -0.4284
 4182TIP3    H233962   1.188   3.847  15.815 -0.5416  0.2135  2.0693
 4183TIP3   OH233963   5.511   4.406   0.240 -0.6551 -0.0810 -0.3474
 4183TIP3    H133964   5.561   4.376   0.316  0.1552  0.8911 -0.4746
 4183TIP3    H233965   5.421   4.413   0.272 -0.4185 -0.1960  0.3685
 4184TIP3   OH233966   3.473   3.904  13.794  0.1597  0.2290 -0.0450
 4184TIP3    H133967   3.428   3.989  13.789 -2.6962 -1.1765 -0.7868
 4184TIP3    H233968   3.430   3.859  13.867  0.3425 -1.2223 -0.8027
 4185TIP3   OH233969   1.725   4.575   4.321  0.0768 -0.4383 -0.1148
 4185TIP3    H133970   1.632   4.553   4.315 -0.1760  0.8860 -1.5821
 4185TIP3    H233971   1.730   4.667   4.293  1.8241 -0.4740 -0.0127
 4186TIP3   OH233972   0.067   0.438   5.715 -0.1163  0.4045  0.1781
 4186TIP3    H133973   0.040   0.451   5.806  2.2908 -0.5116  1.1320
 4186TIP3    H233974   0.144   0.494   5.705 -1.1035  1.4793 -1.7463
 4187TIP3   OH233975   0.630   5.348  14.347  0.1172  0.2113  0.2847
 4187TIP3    H133976   0.614   5.314  14.435  1.9027 -1.0815  0.1675
 4187TIP3    H233977   0.672   5.433  14.361 -0.2212  0.3146  0.6714
 4188TIP3   OH233978   4.340   3.192   5.898  0.1489 -0.1144 -0.1232
 4188TIP3    H133979   4.406   3.138   5.854 -1.4645 -0.3328 -2.4225
 4188TIP3    H233980   4.343   3.275   5.852 -2.3877 -0.7216 -1.5367
 4189TIP3   OH233981   2.682   1.693   3.544 -0.2080 -0.1453 -0.1088
 4189TIP3    H133982   2.639   1.608   3.555 -0.8993  0.4646  2.7729
 4189TIP3    H233983   2.610   1.756   3.540  0.2691  0.3598 -2.8885
 4190TIP3   OH233984   6.263   6.093  17.105 -0.0768  0.2084 -0.1926
 4190TIP3    H133985   6.259   6.065  17.197 -1.4998  1.6017  0.2231
 4190TIP3    H233986   6.312   6.176  17.108 -0.3729  0.4025 -0.6468
 4191TIP3   OH233987   2.349   3.912   3.984 -0.6094  0.7673  0.1573
 4191TIP3    H133988   2.349   4.000   3.945  0.0923  0.2169 -1.1249
 4191TIP3    H233989   2.288   3.862   3.931  0.6040 -0.0835 -0.4800
 4192TIP3   OH233990   5.092   4.655   5.346 -0.3041 -0.2831  0.5620
 4192TIP3    H133991   5.063   4.614   5.265 -0.6526 -0.3609  0.7240
 4192TIP3    H233992   5.082   4.586   5.412  0.2330 -0.3066  0.6274
 4193TIP3   OH233993   3.394   3.805   0.310 -0.4683  0.5844  0.0332
 4193TIP3    H133994   3.309   3.849   0.304 -1.1070 -0.4537  1.0016
 4193TIP3    H233995   3.399   3.776   0.401  0.6576  0.0964 -0.1718
 4194TIP3   OH233996   6.265   2.362  11.679 -0.1700  0.0654 -0.9008
 4194TIP3    H133997   6.320   2.302  11.629 -0.9239  0.6248 -2.4660
 4194TIP3    H233998   6.189   2.309  11.703  0.2653 -0.2484 -0.1896
 4195TIP3   OH233999   6.523   1.666  14.608  0.1633  0.0697  0.5228
 4195TIP3    H134000   6.576   1.714  14.545 -1.6035  1.7594  0.2189
 4195TIP3    H234001   6.554   1.695  14.693  1.1111 -0.5718  0.4069
 4196TIP3   OH234002   5.311   4.147  11.336 -0.2136 -0.4864 -0.1403
 4196TIP3    H134003   5.265   4.231  11.348 -3.2262 -1.6881 -2.1090
 4196TIP3    H234004   5.382   4.168  11.275  1.6896  1.2742  2.4139
 4197TIP3   OH234005   3.991   4.469  12.777  0.0902 -0.7449  0.0844
 4197TIP3    H134006   4.085   4.466  12.792  0.1615 -2.0285 -0.4569
 4197TIP3    H234007   3.952   4.460  12.864  0.4577 -0.1905  0.3107
 4198TIP3   OH234008   2.161   6.264   2.970 -0.4260  0.5776  0.0617
 4198TIP3    H134009   2.161   6.216   2.888 -1.8311  1.1539 -0.3060
 4198TIP3    H234010   2.250   6.298   2.978  0.1256 -0.6840 -0.4881
 4199TIP3   OH234011   5.978   0.942   1.243  0.3300 -0.4912  0.4106
 4199TIP3    H134012   5.938   0.861   1.210 -0.1915 -0.4431  0.9076
 4199TIP3    H234013   6.072   0.931   1.227  0.2340 -1.0684  0.2143
 4200TIP3   OH234014   4.490   4.576  14.239 -0.1386  0.7904  0.6028
 4200TIP3    H134015   4.554   4.597  14.308  0.5675  0.5171  0.0362
 4200TIP3    H234016   4.466   4.662  14.203 -1.4349  1.0522  1.9734
 4201TIP3   OH234017   3.052   5.812  16.479 -0.4307  0.4196 -0.8259
 4201TIP3    H134018   3.038   5.788  16.571  0.2616 -1.4370 -1.1620
 4201TIP3    H234019   2.964   5.816  16.442 -0.7164  1.1878 -0.0988
 4202TIP3   OH234020   1.223   0.503   4.065 -0.3468 -0.0228 -1.0200
 4202TIP3    H134021   1.278   0.517   4.142  0.2134  0.3851 -1.4860
 4202TIP3    H234022   1.134   0.497   4.100  0.0680 -1.7577 -0.1369
 4203TIP3   OH234023   6.504   4.582  13.270 -0.3048 -0.0013  0.0432
 4203TIP3    H134024   6.480   4.490  13.264 -0.7129 -0.0411  1.9002
 4203TIP3    H234025   6.424   4.629  13.247 -0.6184 -0.1176  0.8865
 4204TIP3   OH234026   2.235   6.267  11.981 -0.3782  0.5111  0.1445
 4204TIP3    H134027   2.323   6.304  11.967 -1.2042  1.6061 -2.8340
 4204TIP3    H234028   2.191   6.334  12.034  0.4418  0.0532  1.4820
 4205TIP3   OH234029   5.682   2.682  14.417 -0.1721  0.2621  0.4268
 4205TIP3    H134030   5.651   2.716  14.333  0.6832 -0.4599 -0.2095
 4205TIP3    H234031   5.603   2.671  14.470 -0.6846  1.0864 -0.1413
 4206TIP3   OH234032   0.673   2.472   6.238 -0.3147  0.0131 -0.2557
 4206TIP3    H134033   0.585   2.492   6.206  0.4942  0.8446 -2.1150
 4206TIP3    H234034   0.665   2.385   6.277 -2.4820  1.1039  1.9483
 4207TIP3   OH234035   6.409   2.144  12.800  0.7335 -0.1957  0.2156
 4207TIP3    H134036   6.386   2.237  12.792 -1.2220 -0.7571 -1.5548
 4207TIP3    H234037   6.470   2.128  12.729 -0.9648 -0.7778 -1.1830
 4208TIP3   OH234038   3.745   3.578  12.568 -0.5882 -0.4613  0.2688
 4208TIP3    H134039   3.742   3.544  12.658  0.2735 -2.2170 -0.3201
 4208TIP3    H234040   3.715   3.505  12.514 -0.5039  0.3635 -0.9277
 4209TIP3   OH234041   0.449   4.750   2.248 -0.3635 -0.6792  0.2015
 4209TIP3    H134042   0.406   4.835   2.244  0.7485 -0.1323 -1.7933
 4209TIP3    H234043   0.398   4.700   2.311 -2.7950  0.4971 -0.7205
 4210TIP3   OH234044   0.244   4.948  13.660 -0.3428  0.4211  0.2464
 4210TIP3    H134045   0.327   4.935  13.706  0.3638 -0.1097 -1.1119
 4210TIP3    H234046   0.185   4.983  13.727  0.5760 -0.4615  1.5783
 4211TIP3   OH234047   6.211   1.049  15.550 -0.7433 -0.5139  0.0832
 4211TIP3    H134048   6.231   1.050  15.644 -0.2246 -0.2923 -0.0306
 4211TIP3    H234049   6.154   0.973  15.539 -0.8071 -0.5428  0.5759
 4212TIP3   OH234050   1.335   5.820  14.534 -0.2392  0.1021 -0.6590
 4212TIP3    H134051   1.357   5.903  14.577  1.2107 -0.2743 -0.6299
 4212TIP3    H234052   1.247   5.799  14.566 -0.1416  1.0187  0.2680
 4213TIP3   OH234053   4.012   6.293  16.888  0.8606  0.0855  0.1831
 4213TIP3    H134054   3.954   6.228  16.927  1.0303 -0.3719 -0.3292
 4213TIP3    H234055   4.006   6.368  16.948 -0.6600  0.2523 -0.1259
 4214TIP3   OH234056   1.891   3.368   4.424 -0.0909  0.0869 -0.0913
 4214TIP3    H134057   1.799   3.347   4.437 -0.1545  1.8408  3.7345
 4214TIP3    H234058   1.897   3.400   4.334 -3.4262  0.8338 -0.1483
 4215TIP3   OH234059   1.487   4.006  12.829  0.1513  0.4775  0.0833
 4215TIP3    H134060   1.414   4.057  12.794 -0.4641 -0.2048  0.3336
 4215TIP3    H234061   1.554   4.009  12.761 -0.6923 -0.1178 -0.8018
 4216TIP3   OH234062   4.492   1.626  13.542 -0.5561  0.1647  0.3974
 4216TIP3    H134063   4.478   1.686  13.468  1.7910 -1.5192 -1.5785
 4216TIP3    H234064   4.501   1.540  13.501  1.2872 -0.7750  2.5903
 4217TIP3   OH234065   0.577   5.972  15.329  0.3563  0.2100 -0.4861
 4217TIP3    H134066   0.500   6.005  15.283 -1.0433 -0.5209  1.2219
 4217TIP3    H234067   0.596   5.888  15.288  0.9245  0.8614 -1.6039
 4218TIP3   OH234068   2.907   5.716  13.443 -0.5016 -0.0365  0.3907
 4218TIP3    H134069   2.816   5.714  13.470 -1.2842 -0.3509 -2.0291
 4218TIP3    H234070   2.909   5.774  13.367  1.0209 -1.2072 -0.5332
 4219TIP3   OH234071   1.159   1.720  12.638 -0.0092 -0.6857  0.3678
 4219TIP3    H134072   1.223   1.659  12.601 -1.2216 -1.0570 -1.1915
 4219TIP3    H234073   1.137   1.779  12.565 -1.7804 -0.8527  0.7328
 4220TIP3   OH234074   3.856   3.816   1.772 -0.0559 -0.8579 -0.0951
 4220TIP3    H134075   3.828   3.875   1.841  0.0857  0.1570 -0.8918
 4220TIP3    H234076   3.795   3.832   1.700  0.2034 -1.4197 -0.4483
 4221TIP3   OH234077   0.674   0.001   3.990 -0.3315 -0.3117 -0.1911
 4221TIP3    H134078   0.628   0.066   3.938  0.7050  0.8859  0.3490
 4221TIP3    H234079   0.691  -0.071   3.929  1.2260  1.2184 -1.6858
 4222TIP3   OH234080   3.414   2.836  10.869 -0.6871 -0.1238 -0.0553
 4222TIP3    H134081   3.459   2.773  10.812  1.5380  0.0702  1.3814
 4222TIP3    H234082   3.347   2.784  10.913  0.0811 -1.1505 -0.0525
 4223TIP3   OH234083   0.551   5.431  15.349 -0.1882 -0.0870  0.0746
 4223TIP3    H134084   0.593   5.366  15.405  1.8154 -0.3547 -1.6445
 4223TIP3    H234085   0.529   5.503  15.409 -0.4135 -1.3690  1.6050
 4224TIP3   OH234086   4.661   4.670  10.682 -0.1134 -0.0133 -0.0333
 4224TIP3    H134087   4.626   4.738  10.625 -0.6457 -3.0035 -3.6608
 4224TIP3    H234088   4.756   4.679  10.675 -0.1820  0.0595 -0.8904
 4225TIP3   OH234089   6.181   5.909   2.767 -0.2184  0.0588  0.2661
 4225TIP3    H134090   6.217   5.978   2.712  1.3990 -1.2138 -0.3562
 4225TIP3    H234091   6.197   5.939   2.857  2.3787 -0.3618  0.0295
 4226TIP3   OH234092   2.831   4.399  13.375  0.3314  0.3813  0.2353
 4226TIP3    H134093   2.738   4.417  13.362  0.0906 -0.8786  0.0980
 4226TIP3    H234094   2.849   4.431  13.464  0.0407  1.5912 -0.1210
 4227TIP3   OH234095   2.667   4.855   4.702 -0.3089 -0.0189 -0.4630
 4227TIP3    H134096   2.756   4.821   4.699  0.1304  1.0432  0.0749
 4227TIP3    H234097   2.650   4.885   4.613 -1.4876 -3.4371 -1.5578
 4228TIP3   OH234098   2.261   4.611  15.539  0.3676  0.4555 -0.2797
 4228TIP3    H134099   2.319   4.604  15.615 -0.9729 -0.4201  0.7216
 4228TIP3    H234100   2.286   4.693  15.497  1.4079  0.7683  0.8913
 4229TIP3   OH234101   3.521   5.020  13.458  0.0290  0.3460 -0.2985
 4229TIP3    H134102   3.566   5.098  13.427  3.0593 -0.3744  1.8469
 4229TIP3    H234103   3.520   4.962  13.382 -0.1400  1.5836 -1.2707
 4230TIP3   OH234104   2.959   0.127   1.746 -0.6309 -0.0162  0.0903
 4230TIP3    H134105   2.971   0.214   1.785 -0.5720  0.6157 -1.2603
 4230TIP3    H234106   3.002   0.067   1.807  0.7366  1.0907  0.2685
 4231TIP3   OH234107   2.080   2.957  14.227  0.5150  0.2179  0.4802
 4231TIP3    H134108   2.059   2.964  14.134 -2.8446  0.2629  1.1090
 4231TIP3    H234109   2.143   2.885  14.232 -0.7407 -1.1436 -1.6833
 4232TIP3   OH234110   1.934   3.875  10.462 -0.0904  0.0033 -0.2270
 4232TIP3    H134111   1.898   3.793  10.428  0.9288 -1.5854  2.1722
 4232TIP3    H234112   2.003   3.847  10.523 -0.5318  2.5737  1.6469
 4233TIP3   OH234113   6.778   4.636   5.611 -0.2445  0.0799 -0.2959
 4233TIP3    H134114   6.833   4.563   5.582  1.2063 -0.5144  3.3878
 4233TIP3    H234115   6.689   4.603   5.605 -0.0024 -0.3272 -2.7837
 4234TIP3   OH234116   5.439   3.641  13.364 -0.4304  0.2246 -0.5339
 4234TIP3    H134117   5.353   3.676  13.385  0.5474  1.7514  1.3010
 4234TIP3    H234118   5.443   3.557  13.410 -0.3201  1.0157  0.9664
 4235TIP3   OH234119   0.918   4.950  14.788 -0.1379  0.4365 -0.3762
 4235TIP3    H134120   0.890   4.914  14.872  1.3894  0.3134  0.1167
 4235TIP3    H234121   0.905   4.879  14.726 -0.7935  0.3539 -0.1515
 4236TIP3   OH234122   1.676   1.006   3.461  0.0585 -0.5734 -0.2890
 4236TIP3    H134123   1.584   1.024   3.444  0.4444  1.1310 -0.7992
 4236TIP3    H234124   1.721   1.087   3.435  1.6727 -1.3051  0.1214
 4237TIP3   OH234125   5.845   2.111  14.935 -0.3507  0.1487  0.4883
 4237TIP3    H134126   5.914   2.054  14.901 -0.5827  1.2722 -2.1229
 4237TIP3    H234127   5.879   2.200  14.923 -1.7138  0.6830  0.3935
 4238TIP3   OH234128   3.991   1.644  13.111  0.1328 -0.3504  0.0211
 4238TIP3    H134129   3.994   1.711  13.043  0.6257  0.9180  1.2476
 4238TIP3    H234130   3.924   1.674  13.171  0.0273 -1.2128  0.3430
 4239TIP3   OH234131   0.491   1.101   2.259 -0.0923  0.6884 -0.2551
 4239TIP3    H134132   0.453   1.188   2.247  0.9213  1.1181 -0.4206
 4239TIP3    H234133   0.446   1.047   2.195  0.6105  1.5243 -1.4993
 4240TIP3   OH234134   4.160   0.994   3.967 -0.4799 -0.2065  0.2308
 4240TIP3    H134135   4.217   0.997   3.890 -0.8045 -0.8915 -0.0460
 4240TIP3    H234136   4.150   0.901   3.986  0.0403 -0.0285  1.4476
 4241TIP3   OH234137   0.341   1.294   1.462 -0.3213 -0.0985  0.4414
 4241TIP3    H134138   0.282   1.228   1.428 -1.7040  0.9333  0.7078
 4241TIP3    H234139   0.302   1.377   1.435  3.0051  0.6984 -2.6506
 4242TIP3   OH234140   3.496   1.798   3.540  0.5195 -0.4326 -0.2707
 4242TIP3    H134141   3.490   1.830   3.450 -0.1442 -0.2912 -0.1803
 4242TIP3    H234142   3.538   1.713   3.532  0.8638 -0.2285 -0.6729
 4243TIP3   OH234143   3.054   3.742  17.030 -0.2773 -0.1285 -0.3557
 4243TIP3    H134144   2.984   3.785  16.981 -1.2618  0.1273  1.1868
 4243TIP3    H234145   3.009   3.676  17.082  0.1110  1.9144  2.8534
 4244TIP3   OH234146   1.204   5.493   2.875  0.4447 -0.0577 -0.6084
 4244TIP3    H134147   1.139   5.427   2.901 -0.2936 -0.2205 -2.6772
 4244TIP3    H234148   1.274   5.485   2.941 -1.3648 -0.2217  1.3921
 4245TIP3   OH234149   3.105   2.601   1.308  0.3026 -0.1478 -0.4176
 4245TIP3    H134150   3.023   2.580   1.353  0.1834  1.7279  0.3361
 4245TIP3    H234151   3.079   2.619   1.218 -0.0381 -0.0852 -0.3092
 4246TIP3   OH234152   6.683   5.015  16.878 -0.6557 -0.0325  0.3334
 4246TIP3    H134153   6.622   5.005  16.951 -1.1255  1.1938  0.1330
 4246TIP3    H234154   6.638   4.974  16.804 -0.8352  0.0632  0.3900
 4247TIP3   OH234155   6.539   4.897  12.553 -0.0021  0.7524  0.5421
 4247TIP3    H134156   6.540   4.814  12.600 -0.9490  0.5893  0.2945
 4247TIP3    H234157   6.446   4.921  12.549  0.1435  1.1930 -0.4805
 4248TIP3   OH234158   5.105   5.201   2.530  0.2511 -0.2517  0.6133
 4248TIP3    H134159   5.164   5.249   2.472 -0.5790  1.0702  0.8422
 4248TIP3    H234160   5.135   5.110   2.523  2.1471  0.3245  0.5140
 4249TIP3   OH234161   5.429   3.232   6.386 -0.0387  0.7439  0.6628
 4249TIP3    H134162   5.520   3.221   6.413  0.9423 -1.3847 -2.7438
 4249TIP3    H234163   5.415   3.326   6.386  2.4180  1.1891  0.6948
 4250TIP3   OH234164   3.877   3.676   4.270 -0.2426 -0.8721  0.4008
 4250TIP3    H134165   3.796   3.625   4.260 -0.9307  0.0945  0.8810
 4250TIP3    H234166   3.870   3.745   4.204 -0.0478 -0.4805  0.7881
 4251TIP3   OH234167   2.790   3.696   1.607  0.2301  0.4921  0.0576
 4251TIP3    H134168   2.874   3.719   1.567 -0.1933 -0.1372 -1.2266
 4251TIP3    H234169   2.790   3.744   1.690  1.4757  1.1950 -0.3178
 4252TIP3   OH234170   5.042   5.569  16.830  0.5522 -0.1110 -0.4549
 4252TIP3    H134171   5.083   5.645  16.789  1.0896 -0.8859 -1.3927
 4252TIP3    H234172   4.955   5.565  16.790  0.1754  0.5251  0.2670
 4253TIP3   OH234173   4.364   5.719   4.419 -0.3298  0.2491  0.4189
 4253TIP3    H134174   4.397   5.671   4.343  2.8162 -1.9063  2.8569
 4253TIP3    H234175   4.358   5.809   4.390 -1.5428 -0.7732 -2.9745
 4254TIP3   OH234176   6.722   2.508  11.113  0.0851 -0.2885 -0.1559
 4254TIP3    H134177   6.790   2.443  11.099  0.2674  0.4017 -3.0015
 4254TIP3    H234178   6.755   2.588  11.071 -0.5289  1.4572  2.4119
 4255TIP3   OH234179   5.365   6.137   4.253  0.1263 -0.3016 -0.2491
 4255TIP3    H134180   5.369   6.138   4.349  0.9275  0.8546 -0.2784
 4255TIP3    H234181   5.456   6.142   4.225 -0.1496  0.2493 -1.0749
 4256TIP3   OH234182   1.380   6.492   4.772 -0.3315  0.3454 -0.1205
 4256TIP3    H134183   1.441   6.423   4.798  0.0070  1.2007  1.4939
 4256TIP3    H234184   1.295   6.449   4.769 -0.1888 -0.0764  1.2624
 4257TIP3   OH234185   4.063   2.738  16.613  0.5422  0.3672  0.1548
 4257TIP3    H134186   4.032   2.795  16.683  1.4398 -0.3499  1.1793
 4257TIP3    H234187   4.158   2.733  16.626  0.3846 -2.2248  0.8039
 4258TIP3   OH234188   1.819   2.421   5.526  0.2231  0.2582 -0.0978
 4258TIP3    H134189   1.848   2.401   5.616  2.0938 -1.7251 -1.0426
 4258TIP3    H234190   1.869   2.500   5.502  4.2581 -2.3329 -1.2062
 4259TIP3   OH234191   0.014   4.514   1.722  0.2366  0.3346  0.2360
 4259TIP3    H134192   0.016   4.607   1.747  0.3389  0.7814 -1.3078
 4259TIP3    H234193   0.073   4.509   1.647 -0.5984 -0.7724 -0.3721
 4260TIP3   OH234194   0.180   5.409   1.899 -0.1800 -0.0324 -0.0977
 4260TIP3    H134195   0.108   5.353   1.869 -1.4657  0.9793  0.9480
 4260TIP3    H234196   0.220   5.442   1.819  0.1188 -1.8080 -0.7257
 4261TIP3   OH234197   4.399   2.864   0.747 -0.1436 -0.3960 -0.1989
 4261TIP3    H134198   4.339   2.938   0.760  0.8891  0.1034  2.2877
 4261TIP3    H234199   4.480   2.904   0.717 -0.3247 -0.8217 -1.2876
 4262TIP3   OH234200   4.671   4.337  16.899  0.1104  0.1538  0.2704
 4262TIP3    H134201   4.658   4.254  16.945 -0.2378 -0.6995 -1.2809
 4262TIP3    H234202   4.694   4.311  16.810  0.5134  1.7403 -0.1155
 4263TIP3   OH234203   2.038   2.425  16.192  0.9301 -0.7244 -0.3180
 4263TIP3    H134204   2.108   2.422  16.127  2.5947  2.0345  1.1575
 4263TIP3    H234205   2.034   2.517  16.219 -1.0613 -1.3838  2.0126
 4264TIP3   OH234206   5.032   4.666  14.405  0.1800 -0.3880  0.5169
 4264TIP3    H134207   5.045   4.758  14.380  1.0776 -0.7885 -0.6097
 4264TIP3    H234208   5.116   4.639  14.441  0.1832 -0.9951  0.0696
 4265TIP3   OH234209   5.561   5.681  12.577 -0.4956 -0.3548 -0.6885
 4265TIP3    H134210   5.548   5.598  12.530 -0.7101 -0.6770 -0.0748
 4265TIP3    H234211   5.480   5.729  12.564 -0.2607 -0.1071 -1.2928
 4266TIP3   OH234212   2.334   3.399  12.171  0.3801 -0.2160 -0.4119
 4266TIP3    H134213   2.295   3.448  12.098 -1.3697  0.0919  0.6711
 4266TIP3    H234214   2.422   3.378  12.141  1.4218  3.8781 -0.8471
 4267TIP3   OH234215   3.799   2.740  12.721 -0.7936  0.0484 -0.5344
 4267TIP3    H134216   3.713   2.780  12.737 -0.4227  0.3062  0.8716
 4267TIP3    H234217   3.862   2.801  12.758 -0.1382 -1.1792  0.4595
 4268TIP3   OH234218   3.408   6.258   1.485  0.1447 -0.2816  0.4592
 4268TIP3    H134219   3.415   6.261   1.580  0.3404 -0.3717  0.4478
 4268TIP3    H234220   3.470   6.190   1.458 -0.6028 -0.9463  0.3403
 4269TIP3   OH234221   1.081   3.105  15.479 -0.1170  0.1585  0.5558
 4269TIP3    H134222   1.005   3.097  15.422  1.6860  2.0757 -2.3770
 4269TIP3    H234223   1.047   3.146  15.559 -2.5045 -1.3446  0.4034
 4270TIP3   OH234224   3.614   0.345  11.775 -0.0947  0.0821  0.1418
 4270TIP3    H134225   3.574   0.377  11.695 -0.7989  0.4306  0.6241
 4270TIP3    H234226   3.701   0.314  11.748 -0.8518 -1.1520 -1.0092
 4271TIP3   OH234227   6.543   5.681   5.674 -0.1541 -0.0335  0.3310
 4271TIP3    H134228   6.507   5.717   5.756  0.2605  0.5013  0.2782
 4271TIP3    H234229   6.498   5.597   5.664 -0.6828  0.1877  0.7746
 4272TIP3   OH234230   4.423   2.423   5.396  0.4660  0.1439  0.1060
 4272TIP3    H134231   4.506   2.470   5.401  1.5357 -1.1706 -2.7609
 4272TIP3    H234232   4.366   2.479   5.344  1.6729 -1.3510 -3.1288
 4273TIP3   OH234233   2.123   1.589   5.271 -0.0837 -0.0064 -0.3223
 4273TIP3    H134234   2.137   1.684   5.267 -3.0665  0.5600  0.5750
 4273TIP3    H234235   2.207   1.555   5.304  1.2859  2.1990 -1.2462
 4274TIP3   OH234236   0.703   3.850  14.036 -0.2937  0.1222  0.4166
 4274TIP3    H134237   0.754   3.771  14.052  0.2119  0.0299 -1.4401
 4274TIP3    H234238   0.751   3.897  13.968 -1.7700  0.8958 -0.1388
 4275TIP3   OH234239   1.273   3.205  11.876  0.3325 -0.4416 -0.4429
 4275TIP3    H134240   1.313   3.127  11.916  0.3586 -0.8474 -1.2419
 4275TIP3    H234241   1.347   3.264  11.861  0.3060 -0.2325  0.2115
 4276TIP3   OH234242   0.584   0.665  10.859  0.2414  0.0799  0.1209
 4276TIP3    H134243   0.644   0.616  10.803  1.4219 -1.0125  2.2297
 4276TIP3    H234244   0.641   0.721  10.912 -0.6731 -0.2818  1.5215
 4277TIP3   OH234245   3.650   3.002   3.340  0.3455  0.0947 -0.0086
 4277TIP3    H134246   3.706   2.925   3.343 -0.2566 -0.3564 -0.1312
 4277TIP3    H234247   3.651   3.028   3.247 -0.1596 -0.3055 -0.1321
 4278TIP3   OH234248   4.127   2.132  14.550 -0.6159  1.0926 -0.6784
 4278TIP3    H134249   4.045   2.103  14.589 -0.6534  1.1792 -0.6916
 4278TIP3    H234250   4.194   2.076  14.589 -0.6216  1.3603 -0.2818
 4279TIP3   OH234251   4.867   0.243   1.287 -0.2692 -0.3418 -0.1695
 4279TIP3    H134252   4.822   0.326   1.271 -0.4703 -0.6601 -1.3108
 4279TIP3    H234253   4.831   0.211   1.370  1.1998  1.6317  1.3264
 4280TIP3   OH234254   0.121   0.330  10.721  0.6745  0.4505  0.0027
 4280TIP3    H134255   0.197   0.291  10.763  1.5704  0.1224 -1.8056
 4280TIP3    H234256   0.124   0.297  10.631 -1.8755  0.0687 -0.0169
 4281TIP3   OH234257   0.166   1.435   5.495  0.1908 -0.0631 -0.0773
 4281TIP3    H134258   0.243   1.464   5.446 -1.0045  1.4932 -1.1404
 4281TIP3    H234259   0.096   1.434   5.430 -1.0037 -0.0442  1.1650
 4282TIP3   OH234260   1.145   3.177  13.688 -0.5938 -0.6528 -0.1039
 4282TIP3    H134261   1.077   3.245  13.686  2.5599  2.7697 -0.6748
 4282TIP3    H234262   1.174   3.169  13.598  0.5505 -1.1978  0.2967
 4283TIP3   OH234263   2.547   0.748   0.772 -0.7153  0.6581  0.3080
 4283TIP3    H134264   2.587   0.696   0.841 -1.0238  0.9720  0.7244
 4283TIP3    H234265   2.542   0.836   0.808 -1.2330  0.7454  0.0279
 4284TIP3   OH234266   0.527   3.353   3.926 -0.2402 -0.0914 -0.4304
 4284TIP3    H134267   0.438   3.322   3.910  0.1023 -0.8269 -0.9299
 4284TIP3    H234268   0.571   3.343   3.842  0.3479  0.1677 -0.1560
 4285TIP3   OH234269   3.000   6.700   0.749  0.1070 -0.3015  0.4023
 4285TIP3    H134270   3.001   6.631   0.682 -0.4950 -0.8979  0.9855
 4285TIP3    H234271   2.993   6.781   0.699 -0.7377 -0.7575 -0.2690
 4286TIP3   OH234272   2.975   3.172   1.932 -0.3452 -0.0650 -0.2439
 4286TIP3    H134273   2.950   3.246   1.988  0.4112 -0.2890  0.4056
 4286TIP3    H234274   3.046   3.129   1.979 -0.5616 -1.0282 -0.7672
 4287TIP3   OH234275   4.075   0.607  13.537 -0.5544  0.0786 -0.7426
 4287TIP3    H134276   4.139   0.536  13.530  0.3195  0.7468  0.1909
 4287TIP3    H234277   4.019   0.596  13.460  2.2098  0.9427 -3.0991
 4288TIP3   OH234278   4.834   1.092   1.823 -0.2772 -0.0176 -0.0982
 4288TIP3    H134279   4.748   1.100   1.865 -0.6697 -0.8982 -0.7101
 4288TIP3    H234280   4.869   1.010   1.857 -0.3454 -0.4425 -1.0371
 4289TIP3   OH234281   2.694   5.496   4.094 -0.1607  0.3036  0.5329
 4289TIP3    H134282   2.622   5.435   4.108 -0.8985  1.2670  1.1350
 4289TIP3    H234283   2.703   5.502   3.999 -0.5614 -0.1965  0.4632
 4290TIP3   OH234284   1.985   3.014  13.977  0.0857  0.7457  0.3320
 4290TIP3    H134285   1.971   3.107  13.993  0.2526  1.1553 -1.6369
 4290TIP3    H234286   2.019   3.010  13.888 -1.8204 -1.3187 -0.4129
 4291TIP3   OH234287   4.301   5.381   0.989 -0.0614  0.1329  0.0859
 4291TIP3    H134288   4.266   5.300   0.953  0.6997 -0.6294  1.0029
 4291TIP3    H234289   4.236   5.447   0.966 -1.5161 -1.0104  0.7020
 4292TIP3   OH234290   0.308   1.483   0.800 -0.1334  0.5899  0.3111
 4292TIP3    H134291   0.279   1.560   0.750  0.3717  1.1070  0.8056
 4292TIP3    H234292   0.403   1.479   0.784  0.0291  0.7427  1.1956
 4293TIP3   OH234293   0.455   1.939  14.175 -0.2310  0.8465  0.2226
 4293TIP3    H134294   0.477   1.987  14.095 -0.6475  1.1283  0.2754
 4293TIP3    H234295   0.393   1.872  14.146  1.1734 -0.3877 -0.0475
 4294TIP3   OH234296   6.384   1.723   1.748 -0.4099 -0.6739  0.0325
 4294TIP3    H134297   6.468   1.696   1.712 -0.5567 -1.0512 -0.0348
 4294TIP3    H234298   6.320   1.692   1.684 -0.6137 -0.5779  0.1892
 4295TIP3   OH234299   0.091   4.362   3.189 -0.0011  0.5230  0.3982
 4295TIP3    H134300   0.113   4.283   3.140 -1.7947  0.6983 -0.7668
 4295TIP3    H234301   0.112   4.340   3.280  0.4101 -0.9548 -0.0199
 4296TIP3   OH234302   6.330   5.851  15.256 -0.0948  0.6731 -0.0837
 4296TIP3    H134303   6.313   5.887  15.343  0.6869 -0.7690  0.7184
 4296TIP3    H234304   6.275   5.902  15.197 -1.0668  1.3262  1.3332
 4297TIP3   OH234305   3.032   4.600   1.987 -0.2884 -0.0961 -1.2621
 4297TIP3    H134306   3.060   4.658   2.058  1.2186 -0.3444 -1.6123
 4297TIP3    H234307   2.955   4.642   1.950 -1.0932  0.0606  0.4846
 4298TIP3   OH234308   3.704   5.515  12.316 -0.1478 -0.1125 -0.0891
 4298TIP3    H134309   3.785   5.516  12.367 -0.6047 -0.0999  0.6560
 4298TIP3    H234310   3.709   5.434  12.265  0.3863 -0.0548 -0.1351
 4299TIP3   OH234311   1.785   3.964   3.121  0.2116  0.1231 -0.2584
 4299TIP3    H134312   1.773   3.871   3.100 -1.3625  0.2348  0.0464
 4299TIP3    H234313   1.783   4.008   3.036 -0.3158  0.0004 -0.3116
 4300TIP3   OH234314   3.432   3.175  16.704  0.7272  0.6653  0.5242
 4300TIP3    H134315   3.445   3.269  16.712  0.2951  0.7200  0.6145
 4300TIP3    H234316   3.426   3.159  16.610 -2.6129  1.2324  0.5191
 4301TIP3   OH234317   5.445   6.378  16.652 -0.3203 -0.0563  0.2381
 4301TIP3    H134318   5.520   6.319  16.642 -0.5045 -0.4311  0.9246
 4301TIP3    H234319   5.462   6.451  16.593 -1.7261 -2.3742 -3.3815
 4302TIP3   OH234320   6.479   5.394   2.430  0.1409  0.8377 -0.1719
 4302TIP3    H134321   6.467   5.299   2.426  0.6347  0.5419  3.0037
 4302TIP3    H234322   6.401   5.429   2.387 -0.6759 -1.0083 -0.3160
 4303TIP3   OH234323   0.782   2.441  10.977 -0.2808 -0.6252  0.1127
 4303TIP3    H134324   0.857   2.409  11.028  0.6978  0.1539 -0.7956
 4303TIP3    H234325   0.776   2.534  11.000 -1.3709 -0.8163  0.6415
 4304TIP3   OH234326   1.784   2.322   1.605  0.2634  0.8884  0.2222
 4304TIP3    H134327   1.700   2.279   1.618  0.5784  0.2610  0.2394
 4304TIP3    H234328   1.798   2.320   1.510 -0.0017  1.5106  0.1646
 4305TIP3   OH234329   4.945   2.232   1.696 -0.1447  0.3277 -0.8774
 4305TIP3    H134330   4.996   2.282   1.632  0.7983 -1.0643 -1.2568
 4305TIP3    H234331   4.952   2.141   1.666 -0.1646 -0.2893  0.8944
 4306TIP3   OH234332   5.885   6.087   1.249 -0.0092 -0.6802 -0.3550
 4306TIP3    H134333   5.893   6.005   1.298 -1.6430 -0.2682  0.7036
 4306TIP3    H234334   5.896   6.156   1.315 -0.8001 -0.0920 -0.8184
 4307TIP3   OH234335   5.896   3.475   2.365 -0.7386 -0.0263  0.3629
 4307TIP3    H134336   5.817   3.458   2.416 -0.7731  3.4191  1.7813
 4307TIP3    H234337   5.884   3.565   2.332  2.1073  0.2182 -0.2805
 4308TIP3   OH234338   3.818   4.862   2.290 -0.1159 -0.1403 -0.7404
 4308TIP3    H134339   3.805   4.771   2.317 -2.6934 -0.3870 -2.4413
 4308TIP3    H234340   3.764   4.913   2.351 -1.4870 -0.1464 -1.9115
 4309TIP3   OH234341   2.539   1.878  15.452 -0.1333  0.0044 -0.5653
 4309TIP3    H134342   2.454   1.850  15.416 -0.4401  1.9603 -1.4918
 4309TIP3    H234343   2.516   1.948  15.513  0.6374 -1.3491  1.3697
 4310TIP3   OH234344   5.650   2.011   4.220  0.2657  0.1784  0.2788
 4310TIP3    H134345   5.567   2.056   4.235  0.3276 -0.2724  2.2412
 4310TIP3    H234346   5.670   1.970   4.304  2.1469 -0.2832 -0.3573
 4311TIP3   OH234347   4.829   5.665   1.939 -0.3912  0.0757  0.7633
 4311TIP3    H134348   4.880   5.746   1.940  0.4945 -0.4486 -0.2042
 4311TIP3    H234349   4.835   5.632   2.029 -2.0639  1.8359  1.5928
 4312TIP3   OH234350   4.606   1.467  16.686 -0.2995 -0.4993  0.3756
 4312TIP3    H134351   4.549   1.522  16.632  0.4762  2.1304  2.0320
 4312TIP3    H234352   4.567   1.472  16.774 -0.0515 -2.4680  0.6352
 4313TIP3   OH234353   2.476   2.634   3.001  0.0636 -0.1582 -0.1621
 4313TIP3    H134354   2.409   2.685   2.957 -0.5903 -1.1899 -0.4047
 4313TIP3    H234355   2.493   2.681   3.083 -0.9154  0.1449 -0.1255
 4314TIP3   OH234356   4.502   6.492  16.213  0.2876  0.5542  0.0015
 4314TIP3    H134357   4.475   6.403  16.188  0.5238  0.4341  0.1749
 4314TIP3    H234358   4.594   6.497  16.189  0.4328  0.5476  0.5585
 4315TIP3   OH234359   0.970   2.665   0.118  0.1649 -0.2336 -0.4777
 4315TIP3    H134360   0.891   2.618   0.145 -0.1086 -0.5937 -1.8333
 4315TIP3    H234361   1.023   2.669   0.198 -0.8740 -0.6720  0.2686
 4316TIP3   OH234362   2.416   2.600  13.940  0.2842  0.4777 -0.3307
 4316TIP3    H134363   2.447   2.531  13.998  0.3319  0.0173 -0.8952
 4316TIP3    H234364   2.414   2.560  13.853  1.4458  1.5041 -0.8705
 4317TIP3   OH234365   4.073   1.137  11.778 -0.5088  0.4123 -0.0814
 4317TIP3    H134366   4.136   1.149  11.848 -0.3829 -0.6167 -0.0051
 4317TIP3    H234367   4.002   1.087  11.818 -1.2693  1.3256 -0.2334
 4318TIP3   OH234368   1.128   4.117   5.024  0.1025 -0.2084 -0.1078
 4318TIP3    H134369   1.205   4.060   5.020  1.0192  1.0565 -1.8810
 4318TIP3    H234370   1.060   4.069   4.976 -0.7020 -1.8580  2.4389
 4319TIP3   OH234371   1.317   6.203   4.958 -0.1956  0.2376  0.0190
 4319TIP3    H134372   1.228   6.196   4.992  0.1789  0.5152  1.1091
 4319TIP3    H234373   1.372   6.205   5.036  0.7366  0.5264 -0.6302
 4320TIP3   OH234374   0.076   4.530  11.392 -0.0235 -0.2956 -0.7510
 4320TIP3    H134375   0.112   4.618  11.406  0.0296 -0.5653  0.9945
 4320TIP3    H234376   0.015   4.541  11.319  0.3246  1.0866 -0.8749
 4321TIP3   OH234377   5.813   3.897   6.004 -0.3132 -0.3950 -0.3134
 4321TIP3    H134378   5.760   3.941   6.071  0.5298 -1.4653  1.1175
 4321TIP3    H234379   5.892   3.951   5.998 -0.6526  0.0530 -0.9474
 4322TIP3   OH234380   4.164   2.629  16.980 -0.4676  0.3407  0.2447
 4322TIP3    H134381   4.124   2.593  17.060  0.9288  0.5859  1.0916
 4322TIP3    H234382   4.133   2.571  16.910 -1.9376  0.2813  0.9070
 4323TIP3   OH234383   4.245   1.723   1.020 -0.3182 -0.3474  0.0096
 4323TIP3    H134384   4.184   1.662   1.060 -0.8031 -0.6045 -1.0690
 4323TIP3    H234385   4.206   1.744   0.935  0.4192  0.5593 -0.1313
 4324TIP3   OH234386   1.826   2.188   5.088  0.6324  0.4303 -0.8820
 4324TIP3    H134387   1.754   2.132   5.117  3.1185 -1.3232  2.7043
 4324TIP3    H234388   1.819   2.267   5.142  1.4981  0.1405 -0.3298
 4325TIP3   OH234389   5.518   3.760  15.695 -0.1146  0.4667 -0.2884
 4325TIP3    H134390   5.514   3.817  15.771 -2.5105  0.9674 -0.7265
 4325TIP3    H234391   5.455   3.690  15.712  1.6464 -1.2542 -0.4462
 4326TIP3   OH234392   5.631   0.418  13.373  0.3649  0.1933  0.7564
 4326TIP3    H134393   5.658   0.453  13.458 -0.4378  0.5387  0.8839
 4326TIP3    H234394   5.686   0.463  13.309  1.2179 -0.3232  1.1099
 4327TIP3   OH234395   1.206   1.436   0.948 -0.0286  0.3558 -0.2415
 4327TIP3    H134396   1.277   1.481   0.902  0.9519 -1.7111 -0.8802
 4327TIP3    H234397   1.190   1.358   0.896 -3.0517  0.8976 -0.2932
 4328TIP3   OH234398   0.966   6.584  10.455  0.0506 -0.2019  0.2190
 4328TIP3    H134399   1.047   6.532  10.451 -0.0616 -0.3251 -0.5763
 4328TIP3    H234400   0.898   6.525  10.421  0.2293  1.0400 -2.5068
 4329TIP3   OH234401   4.793   0.933  11.529 -0.2331  0.2969 -0.2536
 4329TIP3    H134402   4.714   0.889  11.497  0.6066 -1.1906 -0.3946
 4329TIP3    H234403   4.832   0.870  11.590  1.7027  0.2856 -1.4267
 4330TIP3   OH234404   6.727   2.567  13.328 -0.2531 -0.0156 -0.4337
 4330TIP3    H134405   6.814   2.607  13.328 -0.6044  0.7854  0.6888
 4330TIP3    H234406   6.706   2.556  13.235  1.7232 -1.7941 -0.7595
 4331TIP3   OH234407   5.557   4.415  14.312 -0.5603  0.0413 -0.2064
 4331TIP3    H134408   5.603   4.432  14.394  0.8488  1.6872 -1.2848
 4331TIP3    H234409   5.563   4.497  14.263 -1.6755 -0.7820 -1.8292
 4332TIP3   OH234410   4.079   4.735   5.633 -0.5834 -0.2071 -0.1205
 4332TIP3    H134411   4.067   4.820   5.591  1.2937  0.6570  1.0021
 4332TIP3    H234412   4.113   4.678   5.564 -1.8682 -0.1038 -0.8805
 4333TIP3   OH234413   3.882   3.698   2.793 -0.4663  0.2730 -0.8117
 4333TIP3    H134414   3.976   3.690   2.811 -0.8521 -0.7245  1.0824
 4333TIP3    H234415   3.858   3.613   2.755 -0.8627 -0.0782  0.1918
 4334TIP3   OH234416   2.514   4.640  16.805 -0.2169 -0.1714 -0.2618
 4334TIP3    H134417   2.479   4.617  16.891  0.2295 -0.1855 -0.0823
 4334TIP3    H234418   2.500   4.735  16.798 -0.1462 -0.1528 -0.1292
 4335TIP3   OH234419   2.836   3.105   3.810  0.0013 -0.1831  0.0997
 4335TIP3    H134420   2.751   3.128   3.848 -0.0819 -0.6603  0.2100
 4335TIP3    H234421   2.836   3.147   3.724  0.5921  1.7426  0.9837
 4336TIP3   OH234422   3.276   1.167   1.437 -0.3800  0.1568  0.6129
 4336TIP3    H134423   3.297   1.187   1.528 -1.4186 -2.1216  1.4322
 4336TIP3    H234424   3.184   1.139   1.439  0.3320 -2.6027 -0.6038
 4337TIP3   OH234425   0.241   3.713   0.500 -0.1353  0.5071  0.7888
 4337TIP3    H134426   0.191   3.632   0.487 -1.5761  1.5583 -0.6235
 4337TIP3    H234427   0.271   3.737   0.412  1.2757  0.9185  1.3557
 4338TIP3   OH234428   5.164   3.333  15.524 -0.3531  0.3472  0.4772
 4338TIP3    H134429   5.165   3.342  15.429  0.1735  0.8621  0.5194
 4338TIP3    H234430   5.237   3.274  15.543 -0.8121 -0.2104  0.5283
 4339TIP3   OH234431   5.197   5.258  15.689 -0.6969  0.3551 -0.2076
 4339TIP3    H134432   5.216   5.212  15.771 -0.7711  3.0274  1.4232
 4339TIP3    H234433   5.122   5.313  15.710 -0.5210  1.3492 -2.0045
 4340TIP3   OH234434   1.238   0.572   3.600  0.3319 -0.1001 -0.0381
 4340TIP3    H134435   1.250   0.654   3.649  0.0176 -0.0315 -0.0750
 4340TIP3    H234436   1.150   0.578   3.564 -1.1296 -2.0446  2.8959
 4341TIP3   OH234437   3.657   6.580   0.904  0.3877 -0.2717  0.3253
 4341TIP3    H134438   3.611   6.557   0.823  0.8469  0.1454 -0.0509
 4341TIP3    H234439   3.658   6.498   0.954 -0.1329 -0.4655  0.0315
 4342TIP3   OH234440   4.642   5.995  11.850 -0.4722 -0.2098 -0.5056
 4342TIP3    H134441   4.709   6.028  11.790  0.4241  1.2775  1.2176
 4342TIP3    H234442   4.623   5.907  11.819 -0.1595  0.5377 -3.0309
 4343TIP3   OH234443   1.338   4.632   0.372 -0.3104 -0.2835 -0.5347
 4343TIP3    H134444   1.422   4.660   0.336 -0.6631  2.5207  0.5595
 4343TIP3    H234445   1.279   4.629   0.296 -0.2385  2.2474 -0.7954
 4344TIP3   OH234446   2.028   0.190   5.442 -0.2975 -0.0582  0.3945
 4344TIP3    H134447   2.031   0.094   5.435 -1.1217 -0.0195 -0.6772
 4344TIP3    H234448   1.999   0.219   5.356 -0.1616  1.1597  0.7495
 4345TIP3   OH234449   5.937   1.671   2.608 -0.2764 -0.0276  1.2447
 4345TIP3    H134450   6.029   1.665   2.583 -0.6060  1.2653 -0.4732
 4345TIP3    H234451   5.934   1.749   2.664 -0.4836  0.6401  0.3302
 4346TIP3   OH234452   0.703   0.112  11.735 -0.3314 -0.7175 -0.1001
 4346TIP3    H134453   0.641   0.184  11.730  0.4422  0.1537  1.7044
 4346TIP3    H234454   0.788   0.155  11.745  0.2145 -1.8715  0.3863
 4347TIP3   OH234455   3.594   5.437  13.540  0.8101 -0.3762 -0.1729
 4347TIP3    H134456   3.660   5.502  13.563  0.3231 -0.0455  0.3173
 4347TIP3    H234457   3.542   5.477  13.472  0.0986  0.0254  0.5875
 4348TIP3   OH234458   1.447   5.258  12.446  0.3543 -0.4627  0.3860
 4348TIP3    H134459   1.459   5.353  12.450 -1.5043 -0.1158 -0.9817
 4348TIP3    H234460   1.353   5.245  12.457  0.6969 -2.2479  1.5648
 4349TIP3   OH234461   5.972   3.908   3.289  0.4564 -1.0141  0.4708
 4349TIP3    H134462   6.051   3.961   3.303 -0.1581 -0.3907  1.7196
 4349TIP3    H234463   5.943   3.885   3.377 -1.6418  0.0922  0.1251
 4350TIP3   OH234464   1.663   1.256  12.569  0.1185 -0.0456 -0.1779
 4350TIP3    H134465   1.731   1.258  12.502  0.0384 -1.4263 -0.3384
 4350TIP3    H234466   1.697   1.197  12.636  0.3497  1.5670  1.2087
 4351TIP3   OH234467   2.159   3.626  16.465  0.3556 -0.1313  0.4834
 4351TIP3    H134468   2.205   3.694  16.415  1.7287 -1.4325 -0.1116
 4351TIP3    H234469   2.214   3.612  16.542  0.8653 -1.5180 -0.0966
 4352TIP3   OH234470   6.095   5.563   0.048  0.4667  0.1745  0.2536
 4352TIP3    H134471   6.186   5.570   0.020  0.6534 -2.1589  0.0502
 4352TIP3    H234472   6.098   5.509   0.127 -0.6736  0.8122  0.7511
 4353TIP3   OH234473   0.747   2.479   0.219 -0.6842 -0.5323  0.1931
 4353TIP3    H134474   0.713   2.390   0.222 -0.2668 -0.6740  0.9084
 4353TIP3    H234475   0.672   2.534   0.241 -0.0395 -0.9692  4.1834
 4354TIP3   OH234476   4.555   2.617   1.791  0.6051  0.2926  0.1777
 4354TIP3    H134477   4.466   2.631   1.823  0.6261 -0.2610  0.4966
 4354TIP3    H234478   4.610   2.629   1.869  0.8767  1.3402 -0.1663
 4355TIP3   OH234479   0.346   3.203   2.401  0.1346  0.0064  0.3645
 4355TIP3    H134480   0.430   3.248   2.410 -0.0136  0.5984 -0.9492
 4355TIP3    H234481   0.319   3.221   2.311 -2.3943  1.5738  1.3265
 4356TIP3   OH234482   3.881   3.152  11.786 -0.1979  0.2966 -0.5851
 4356TIP3    H134483   3.902   3.207  11.711 -1.3151 -0.9571 -1.8851
 4356TIP3    H234484   3.807   3.195  11.828  2.7555  3.1500  2.2897
 4357TIP3   OH234485   5.890   1.960   0.263  0.3460  0.0597 -0.7551
 4357TIP3    H134486   5.950   2.000   0.327 -0.4984 -1.3757  1.0384
 4357TIP3    H234487   5.835   2.032   0.233  2.4393  1.2670 -1.8940
 4358TIP3   OH234488   5.943   1.704  16.289 -0.0720 -0.8132  0.0279
 4358TIP3    H134489   6.014   1.732  16.231 -0.4300  0.6948  0.2798
 4358TIP3    H234490   5.976   1.623  16.329  1.1168 -0.6395 -0.5445
 4359TIP3   OH234491   6.362   1.968  16.458 -0.1751  0.6299  0.7076
 4359TIP3    H134492   6.274   1.936  16.479  1.2491 -2.5429  2.5131
 4359TIP3    H234493   6.374   2.044  16.515 -1.4039  0.5368  1.1234
 4360TIP3   OH234494   2.049   1.266   0.969  0.1420 -0.3797 -0.0784
 4360TIP3    H134495   2.044   1.360   0.954 -1.7148 -0.2610  0.9891
 4360TIP3    H234496   1.962   1.233   0.944 -0.7021 -1.1589  3.3277
 4361TIP3   OH234497   4.887   6.115  12.319 -0.8184  0.8923 -0.1396
 4361TIP3    H134498   4.905   6.146  12.230  0.3688 -1.2636 -0.7062
 4361TIP3    H234499   4.813   6.055  12.309 -1.6905  1.8066  0.6034
 4362TIP3   OH234500   1.556   3.166   0.764  0.4622 -0.0227 -0.5004
 4362TIP3    H134501   1.583   3.256   0.750  1.5887 -0.4657 -1.3252
 4362TIP3    H234502   1.470   3.159   0.721 -0.2044  0.9464  0.6208
 4363TIP3   OH234503   3.544   3.713   1.888  0.3963 -0.5262 -0.1909
 4363TIP3    H134504   3.568   3.740   1.799 -0.5134 -0.9938 -0.5865
 4363TIP3    H234505   3.471   3.770   1.912  0.9398 -0.0824  0.4503
 4364TIP3   OH234506   3.007   0.342   1.917 -0.2314  0.5157  0.3590
 4364TIP3    H134507   2.985   0.425   1.875  0.9592  0.8175  0.3031
 4364TIP3    H234508   2.952   0.339   1.995 -1.1455  0.7910 -0.2523
 4365TIP3   OH234509   0.406   2.999   3.097 -0.2988 -0.1281  0.2994
 4365TIP3    H134510   0.439   2.955   3.018 -1.8559  0.0119 -0.4628
 4365TIP3    H234511   0.328   3.046   3.067 -0.7777  0.1332  1.8852
 4366TIP3   OH234512   1.845   3.647   5.967 -0.1583  0.0319  0.6442
 4366TIP3    H134513   1.798   3.584   5.914  1.4220 -1.3278  0.7720
 4366TIP3    H234514   1.908   3.594   6.017 -0.2353  1.4766  2.3619
 4367TIP3   OH234515   1.928   1.761   3.119 -0.2275 -0.0095  0.8570
 4367TIP3    H134516   1.858   1.726   3.064 -0.4938  0.4492  0.8956
 4367TIP3    H234517   1.956   1.687   3.173  0.2689 -0.5482 -0.1241
 4368TIP3   OH234518   0.892   2.990   1.721  0.6649 -0.4489 -0.0253
 4368TIP3    H134519   0.928   2.995   1.632  1.5326 -0.9574  0.2741
 4368TIP3    H234520   0.931   2.910   1.757 -1.7201 -1.7044 -0.0670
 4369TIP3   OH234521   4.983   5.357  16.228 -0.1330 -0.0643 -0.4240
 4369TIP3    H134522   5.052   5.422  16.225  1.1167 -1.3291 -0.2498
 4369TIP3    H234523   4.912   5.394  16.176  0.1289  1.8656  0.5367
 4370TIP3   OH234524   4.650   2.410   2.572  0.1238 -0.1945  0.0388
 4370TIP3    H134525   4.604   2.487   2.538 -0.7599 -0.6128  0.2658
 4370TIP3    H234526   4.670   2.358   2.494  2.4091  1.1092 -0.3528
 4371TIP3   OH234527   5.505   5.074  12.179  0.2848 -0.2125 -0.1410
 4371TIP3    H134528   5.503   5.094  12.273 -1.5695 -0.9590  0.0240
 4371TIP3    H234529   5.506   5.159  12.136  1.2100  0.1380  0.5376
 4372TIP3   OH234530   0.136   1.665   1.561 -0.3650  0.4295 -0.0374
 4372TIP3    H134531   0.171   1.733   1.619  1.6601 -1.3081  0.9532
 4372TIP3    H234532   0.213   1.633   1.514 -1.1072 -1.6452  0.0752
 4373TIP3   OH234533   3.056   4.611  12.747 -0.3172 -0.6189 -0.2492
 4373TIP3    H134534   3.023   4.637  12.833  0.0665 -0.6932 -0.0779
 4373TIP3    H234535   3.037   4.686  12.690  0.5314 -0.0713  0.1775
 4374TIP3   OH234536   1.261   4.395   4.819  0.4449 -0.5633 -0.5270
 4374TIP3    H134537   1.329   4.356   4.765  1.8334  1.6967 -0.5277
 4374TIP3    H234538   1.299   4.400   4.907  0.4648  1.0551 -0.6044
 4375TIP3   OH234539   3.071   1.640  11.296 -0.0943 -0.2743 -0.0438
 4375TIP3    H134540   3.131   1.644  11.221  0.9697 -1.8690  0.6547
 4375TIP3    H234541   3.045   1.548  11.301 -0.0704 -0.2197  1.5836
 4376TIP3   OH234542   5.819   5.993  16.119 -0.4568  0.0820 -0.3304
 4376TIP3    H134543   5.889   5.938  16.084  0.0852 -0.6939  1.8045
 4376TIP3    H234544   5.750   5.989  16.052  0.4225 -1.4239 -1.2187
 4377TIP3   OH234545   2.004   3.448  16.980  0.2663 -0.2817 -0.5314
 4377TIP3    H134546   2.088   3.477  16.945  0.0444 -1.0280 -1.7300
 4377TIP3    H234547   2.007   3.470  17.073  1.7016 -0.1180 -0.6072
 4378TIP3   OH234548   2.346   3.649  11.072 -0.2750 -0.3731 -0.1978
 4378TIP3    H134549   2.282   3.631  11.141  0.0339 -2.0586 -0.3183
 4378TIP3    H234550   2.300   3.707  11.011 -1.6725 -1.4556 -0.2243
 4379TIP3   OH234551   3.734   5.271  15.325 -0.5403 -0.2155 -0.3480
 4379TIP3    H134552   3.666   5.319  15.372 -1.7002 -1.7211 -0.4023
 4379TIP3    H234553   3.777   5.219  15.393  2.3824  2.5929  0.1728
 4380TIP3   OH234554   3.572   2.451   5.935 -1.0393  0.0927 -0.0131
 4380TIP3    H134555   3.631   2.457   5.859 -0.2265  1.5324  0.6888
 4380TIP3    H234556   3.486   2.433   5.896 -0.7006  1.0830 -1.3342
 4381TIP3   OH234557   1.666   2.744  13.483  0.3052  0.1752 -0.0008
 4381TIP3    H134558   1.681   2.827  13.439 -0.4443  0.6444  0.6122
 4381TIP3    H234559   1.597   2.701  13.431 -0.6824  0.7915  0.7529
 4382TIP3   OH234560   2.754   4.109   2.580 -0.5064  0.3129 -0.1065
 4382TIP3    H134561   2.804   4.190   2.592 -0.1775 -0.0802  1.4150
 4382TIP3    H234562   2.817   4.039   2.598 -1.5006 -0.2042  1.5796
 4383TIP3   OH234563   5.971   3.918  12.437  0.5734  0.0564 -0.6511
 4383TIP3    H134564   5.941   3.838  12.480  0.0685  0.4109 -0.3265
 4383TIP3    H234565   5.893   3.972  12.430  0.8094  0.3235 -1.3221
 4384TIP3   OH234566   3.627   3.375  14.930  0.3434 -0.3634  1.1292
 4384TIP3    H134567   3.653   3.444  14.991  0.1174 -0.3780  1.2442
 4384TIP3    H234568   3.547   3.408  14.888  1.4384  0.4017 -0.4415
 4385TIP3   OH234569   1.767   0.847   0.407 -0.3776 -0.1202 -0.3498
 4385TIP3    H134570   1.795   0.863   0.317 -0.3253  1.9896 -0.0203
 4385TIP3    H234571   1.734   0.757   0.407  2.1090 -1.1311 -1.8126
 4386TIP3   OH234572   3.921   0.366   3.767 -0.4768 -0.1100  0.4159
 4386TIP3    H134573   3.861   0.439   3.782 -0.8612 -0.0168 -1.3048
 4386TIP3    H234574   3.963   0.351   3.851  0.4469  2.8427  0.5640
 4387TIP3   OH234575   5.722   0.669  16.388  0.5792  0.0869  0.0565
 4387TIP3    H134576   5.659   0.598  16.377  1.9255 -1.1292 -0.1229
 4387TIP3    H234577   5.682   0.727  16.453  0.4009 -2.0249  1.9427
 4388TIP3   OH234578   3.282   0.612  11.386  0.0216 -0.4165  0.1780
 4388TIP3    H134579   3.374   0.634  11.400 -0.1806 -0.0708  1.0065
 4388TIP3    H234580   3.236   0.696  11.385 -0.7104 -0.6571  3.0950
 4389TIP3   OH234581   2.757   4.533   4.721  0.1890 -0.1575  0.5040
 4389TIP3    H134582   2.740   4.476   4.796  0.9376 -0.7199  0.2672
 4389TIP3    H234583   2.694   4.604   4.729  1.0047  0.4118  2.2980
 4390TIP3   OH234584   3.013   0.802   1.566  0.1189 -0.3139 -0.1813
 4390TIP3    H134585   2.923   0.797   1.598 -0.1508 -2.6147 -1.1079
 4390TIP3    H234586   3.062   0.743   1.623  0.6674 -0.4565 -0.7812
 4391TIP3   OH234587   5.064   4.063   5.906 -0.1640 -0.1782 -0.1161
 4391TIP3    H134588   5.131   4.046   5.973 -2.1202  0.5450  2.1905
 4391TIP3    H234589   5.104   4.035   5.824  2.4499 -0.9826  1.3136
 4392TIP3   OH234590   5.877   6.650  11.452  0.5272 -0.2440  0.4390
 4392TIP3    H134591   5.939   6.695  11.510  1.1730 -0.7762  0.1730
 4392TIP3    H234592   5.931   6.589  11.402  0.0115  0.3061 -0.8367
 4393TIP3   OH234593   1.478   3.680  14.138  0.2167 -0.3476  0.9065
 4393TIP3    H134594   1.531   3.680  14.218 -0.4359 -1.6281  1.3490
 4393TIP3    H234595   1.507   3.603  14.090  0.8032  0.5586 -0.2614
 4394TIP3   OH234596   4.172   1.659   0.187  0.3906  0.6166  0.2386
 4394TIP3    H134597   4.140   1.746   0.163  0.8241  1.1447  1.5157
 4394TIP3    H234598   4.162   1.655   0.282 -2.9067 -2.0602 -0.0691
 4395TIP3   OH234599   3.005   1.016   0.938 -0.2948  0.1564 -0.8123
 4395TIP3    H134600   3.097   1.004   0.959 -0.9087  0.3059  2.5023
 4395TIP3    H234601   2.996   1.109   0.922  0.1635  0.1039 -1.3923
 4396TIP3   OH234602   4.470   6.726   2.508  0.5994  0.2868  0.1055
 4396TIP3    H134603   4.507   6.808   2.542  0.5698  0.0195  0.7983
 4396TIP3    H234604   4.462   6.741   2.413 -0.9113  1.6891  0.4003
 4397TIP3   OH234605   6.174   1.063  15.829 -0.2858 -0.0985  0.2710
 4397TIP3    H134606   6.082   1.083  15.844 -0.2524  1.4900 -1.3578
 4397TIP3    H234607   6.219   1.147  15.842  1.0887 -1.0239  1.9314
 4398TIP3   OH234608   1.580   5.281  15.895 -0.6133 -0.1442 -0.0365
 4398TIP3    H134609   1.497   5.318  15.864 -2.0323 -0.3193  3.1497
 4398TIP3    H234610   1.635   5.357  15.912 -1.4933  0.2372  1.2456
 4399TIP3   OH234611   1.106   4.448  14.017  0.1663  0.3928  0.2338
 4399TIP3    H134612   1.078   4.410  14.100  0.2326 -0.2646 -0.0400
 4399TIP3    H234613   1.200   4.430  14.013  0.9876  3.5336  1.6642
 4400TIP3   OH234614   3.547   5.286   3.030 -0.4415  0.2161 -0.1091
 4400TIP3    H134615   3.626   5.313   3.077 -0.8005 -1.4233  1.5262
 4400TIP3    H234616   3.542   5.348   2.956  0.1796  2.8909  1.9104
 4401TIP3   OH234617   6.640   2.035  14.453 -0.0906 -0.6335 -0.5596
 4401TIP3    H134618   6.555   2.071  14.478 -0.2967 -2.0992  0.9894
 4401TIP3    H234619   6.704   2.090  14.497 -0.2961 -0.5375 -0.3807
 4402TIP3   OH234620   0.878   0.844   3.755 -0.3088 -0.0378 -0.6079
 4402TIP3    H134621   0.875   0.927   3.802 -0.3610  0.0474 -0.7603
 4402TIP3    H234622   0.947   0.856   3.689  2.4419 -1.3873  1.7666
 4403TIP3   OH234623   1.781   2.396  14.257  1.0283 -0.7812 -0.0684
 4403TIP3    H134624   1.705   2.404  14.199  1.2815 -0.7862 -0.4047
 4403TIP3    H234625   1.788   2.302  14.275  0.7815 -0.7512  0.2041
 4404TIP3   OH234626   5.333   1.875  17.101  0.0756  0.3573  0.2213
 4404TIP3    H134627   5.283   1.794  17.093 -1.5729  1.2300  1.3699
 4404TIP3    H234628   5.371   1.871  17.189  3.1167 -0.8178 -0.9895
 4405TIP3   OH234629   4.105   2.077   3.195  0.0127  0.7538  0.5216
 4405TIP3    H134630   4.193   2.086   3.232  1.3430 -2.4095 -1.4562
 4405TIP3    H234631   4.112   2.117   3.108 -0.7946  1.2420  0.6745
 4406TIP3   OH234632   2.699   3.458   1.678 -0.0007 -0.3547 -0.2949
 4406TIP3    H134633   2.713   3.552   1.686 -0.5493 -0.3617  0.9370
 4406TIP3    H234634   2.784   3.422   1.654  0.9855  0.1240  2.2311
 4407TIP3   OH234635   1.253   3.024   4.946 -0.2212 -0.5758 -0.0371
 4407TIP3    H134636   1.283   3.030   5.037 -1.6254 -1.0276  0.4887
 4407TIP3    H234637   1.206   3.106   4.931 -0.0915 -0.5522 -0.3185
 4408TIP3   OH234638   2.226   6.316  16.494  0.2919 -0.6483 -0.1865
 4408TIP3    H134639   2.137   6.291  16.468  0.1486 -0.2855 -0.0583
 4408TIP3    H234640   2.223   6.321  16.590  0.5437 -0.9708 -0.1597
 4409TIP3   OH234641   1.370   0.505  16.564 -0.2931  0.2651 -1.1134
 4409TIP3    H134642   1.336   0.489  16.652 -0.7927 -0.0647 -1.3646
 4409TIP3    H234643   1.437   0.438  16.551 -1.3190 -0.6828 -1.5825
 4410TIP3   OH234644   4.176   5.604   0.910 -0.4297  0.2884 -0.2068
 4410TIP3    H134645   4.207   5.650   0.988  3.0893  1.4383 -2.0735
 4410TIP3    H234646   4.119   5.667   0.866 -0.4601  0.5526  0.2070
 4411TIP3   OH234647   6.227   5.970  10.963  0.4897 -0.0419  0.1523
 4411TIP3    H134648   6.193   6.052  10.999  2.0547  0.2068  1.1747
 4411TIP3    H234649   6.154   5.909  10.970 -1.1898  1.5575 -1.9201
 4412TIP3   OH234650   5.513   3.642  14.540  0.2014  0.4834 -0.1345
 4412TIP3    H134651   5.442   3.660  14.602  0.0222  0.0396 -0.2106
 4412TIP3    H234652   5.554   3.727  14.526 -1.3899  1.1016 -1.4343
 4413TIP3   OH234653   3.656   4.250   4.574  0.6491 -0.2025  0.2487
 4413TIP3    H134654   3.600   4.248   4.652 -0.6456 -1.4157 -0.6583
 4413TIP3    H234655   3.730   4.193   4.595  0.5605 -0.1334  0.7546
 4414TIP3   OH234656   6.061   1.080  16.957  0.0213 -0.0060 -0.1555
 4414TIP3    H134657   5.971   1.084  16.925  0.2017 -0.5598 -0.7598
 4414TIP3    H234658   6.106   1.151  16.910  0.4238 -1.1899 -1.6396
 4415TIP3   OH234659   5.249   2.507  15.952 -0.0862  0.3273 -0.5154
 4415TIP3    H134660   5.277   2.472  16.036  0.0866 -0.6527 -0.9637
 4415TIP3    H234661   5.166   2.464  15.934  0.3595 -0.2476 -1.2975
 4416TIP3   OH234662   5.563   5.665  12.024 -0.3386 -0.0997  0.6085
 4416TIP3    H134663   5.523   5.752  12.023 -0.6381 -0.2398  0.4086
 4416TIP3    H234664   5.597   5.653  11.935 -0.6454 -0.3470  0.5222
 4417TIP3   OH234665   0.431   3.684  11.641  0.3541 -0.5086  0.0909
 4417TIP3    H134666   0.505   3.684  11.701 -0.2431 -0.0044  0.8536
 4417TIP3    H234667   0.354   3.671  11.697 -0.1065 -1.5114 -0.7369
 4418TIP3   OH234668   1.805   1.187  13.639 -0.4483 -0.5143  0.0847
 4418TIP3    H134669   1.822   1.170  13.547  0.3753 -0.3839  0.1992
 4418TIP3    H234670   1.764   1.106  13.671  0.0595 -0.8908 -0.2007
 4419TIP3   OH234671   3.554   0.322   1.197  0.1353  0.0073  0.3064
 4419TIP3    H134672   3.536   0.293   1.286 -0.3228  1.2737  0.6344
 4419TIP3    H234673   3.634   0.275   1.172  0.2275 -0.4023  1.3539
 4420TIP3   OH234674   1.647   4.949  12.716 -0.2808 -0.7351  0.3903
 4420TIP3    H134675   1.714   5.014  12.739 -1.4034  0.2619  0.9346
 4420TIP3    H234676   1.669   4.872  12.768  0.4696 -0.4453  0.5126
 4421TIP3   OH234677   2.929   0.205   2.921  0.1172 -0.6222  0.4487
 4421TIP3    H134678   2.869   0.277   2.939  0.8194 -0.2640  1.4059
 4421TIP3    H234679   2.995   0.243   2.863  1.1960 -0.1234  1.9629
 4422TIP3   OH234680   1.869   3.604   0.601 -0.1631 -0.0501  0.8020
 4422TIP3    H134681   1.960   3.574   0.604 -0.1809 -0.3623 -0.8653
 4422TIP3    H234682   1.874   3.695   0.573 -0.3145  0.3697  2.0816
 4423TIP3   OH234683   4.789   1.282   0.433 -0.0145 -0.1324 -0.4199
 4423TIP3    H134684   4.779   1.301   0.527 -1.9036 -1.0612 -0.3744
 4423TIP3    H234685   4.833   1.359   0.398 -0.3877  0.8013  1.0379
 4424TIP3   OH234686   1.340   6.429  11.643  0.3101 -0.4966 -0.0897
 4424TIP3    H134687   1.403   6.500  11.658  0.1744 -0.3668 -0.1210
 4424TIP3    H234688   1.259   6.461  11.683  0.6334 -1.2868  1.2725
 4425TIP3   OH234689   2.141   3.851  15.761  0.3057  0.4285 -0.1484
 4425TIP3    H134690   2.121   3.811  15.676  1.7077 -0.2695 -0.1778
 4425TIP3    H234691   2.093   3.798  15.825  1.4662 -0.8297 -0.2724
 4426TIP3   OH234692   4.368   4.560   5.239 -0.8143 -0.8012 -0.3378
 4426TIP3    H134693   4.391   4.523   5.154 -1.2062  0.3462 -0.9775
 4426TIP3    H234694   4.396   4.652   5.233 -1.5763 -0.4987  0.4644
 4427TIP3   OH234695   6.556   3.731  11.730  0.1004 -0.2203  0.0150
 4427TIP3    H134696   6.568   3.671  11.804  1.0704 -1.3084 -0.9824
 4427TIP3    H234697   6.594   3.685  11.655 -0.3666  1.0813 -1.0681
 4428TIP3   OH234698   2.255   1.138   3.352 -0.5976 -0.2422 -0.6643
 4428TIP3    H134699   2.182   1.084   3.322 -0.3331  0.0352 -1.8560
 4428TIP3    H234700   2.329   1.078   3.355 -0.8771 -0.5616  0.7008
 4429TIP3   OH234701   2.202   0.123   1.679  0.4500 -0.0081  0.1233
 4429TIP3    H134702   2.277   0.113   1.619  1.3062  0.8302  1.0141
 4429TIP3    H234703   2.153   0.042   1.669  1.3297 -0.4723 -0.6876
 4430TIP3   OH234704   4.858   6.205   4.504 -0.1638  0.5038 -1.0062
 4430TIP3    H134705   4.823   6.288   4.536 -0.1937  0.7454 -1.6551
 4430TIP3    H234706   4.862   6.215   4.409  0.1092 -0.1304 -1.0697
 4431TIP3   OH234707   4.701   2.876  15.210 -0.3448  0.3434 -0.2790
 4431TIP3    H134708   4.788   2.882  15.249 -0.5185 -1.3442  0.4446
 4431TIP3    H234709   4.650   2.944  15.253  0.3858  0.7736 -0.0842
 4432TIP3   OH234710   1.162   5.267  11.107 -0.2229 -0.1805 -0.3683
 4432TIP3    H134711   1.223   5.320  11.056  0.9216 -1.8045 -0.7574
 4432TIP3    H234712   1.079   5.315  11.103  1.5296  3.6107  2.5141
 4433TIP3   OH234713   2.555   3.947  14.896 -0.2591 -1.0250  0.0891
 4433TIP3    H134714   2.507   3.910  14.970  0.8715 -0.1343  1.3290
 4433TIP3    H234715   2.572   4.038  14.922  1.8718 -1.2401 -0.3608
 4434TIP3   OH234716   4.680   2.797  14.635 -0.2835 -0.0902  0.4717
 4434TIP3    H134717   4.738   2.734  14.677  0.0984 -2.5164 -3.2009
 4434TIP3    H234718   4.597   2.751  14.626 -0.8232  0.9367  0.0247
 4435TIP3   OH234719   2.588   5.391   1.376 -0.1586  0.0382 -0.1746
 4435TIP3    H134720   2.644   5.385   1.453 -0.1294  0.8132 -0.1299
 4435TIP3    H234721   2.504   5.423   1.410 -0.7329 -1.3759 -0.1964
 4436TIP3   OH234722   6.072   1.014  16.378  0.2681  0.8149 -0.5687
 4436TIP3    H134723   6.098   1.039  16.467 -0.3035 -0.8808  0.1103
 4436TIP3    H234724   5.982   1.046  16.371  0.3335  1.0026 -0.5718
 4437TIP3   OH234725   1.022   0.424  13.300 -0.6121 -0.0351 -0.1925
 4437TIP3    H134726   0.937   0.442  13.341 -0.7524 -2.4972  0.8006
 4437TIP3    H234727   1.001   0.411  13.207 -1.1817  0.2835 -0.1142
 4438TIP3   OH234728   1.116   5.189  11.566 -0.8313  0.3221 -0.3885
 4438TIP3    H134729   1.020   5.192  11.567 -0.8250  1.0890 -0.7313
 4438TIP3    H234730   1.138   5.096  11.572 -1.5987  0.1371 -0.3594
 4439TIP3   OH234731   2.010   4.914   6.847  0.1390  0.1723 -0.1431
 4439TIP3    H134732   1.940   4.854   6.820  1.3527 -1.7904  0.7813
 4439TIP3    H234733   1.969   4.972   6.910 -0.5769 -1.3749  0.8871
 4440TIP3   OH234734   0.154   5.335  12.734  0.5740 -0.3687  0.6986
 4440TIP3    H134735   0.106   5.411  12.700  3.0243  2.1865  2.4155
 4440TIP3    H234736   0.086   5.281  12.775 -1.5808 -0.3986 -2.5056
 4441TIP3   OH234737   2.057   5.933   2.259 -0.0555 -0.3057  0.0358
 4441TIP3    H134738   2.026   5.860   2.206 -0.0112 -1.5721  1.6754
 4441TIP3    H234739   1.998   6.005   2.238  0.2482 -0.6023 -2.0383
 4442TIP3   OH234740   5.399   3.185   4.816 -0.7814 -0.0368  0.0900
 4442TIP3    H134741   5.479   3.195   4.868 -0.4343 -0.8670 -0.2658
 4442TIP3    H234742   5.368   3.097   4.836  1.2340 -1.7927 -3.6055
 4443TIP3   OH234743   5.175   1.134   4.455  0.0399  0.0983  0.1757
 4443TIP3    H134744   5.190   1.061   4.515 -1.4772  0.9426  1.6983
 4443TIP3    H234745   5.262   1.161   4.426  0.7490 -0.9712  1.2468
 4444TIP3   OH234746   1.207   0.933   3.813 -0.6054 -0.1477  0.4721
 4444TIP3    H134747   1.289   0.887   3.798 -1.0171 -0.8332  0.2939
 4444TIP3    H234748   1.171   0.948   3.726  0.3383  2.0651  0.3976
 4445TIP3   OH234749   0.974   0.888  15.949 -0.1634  0.1373 -0.2288
 4445TIP3    H134750   1.067   0.894  15.926 -0.0715 -0.9387 -0.2325
 4445TIP3    H234751   0.962   0.795  15.969 -1.6341 -0.0918 -1.9552
 4446TIP3   OH234752   3.794   5.865  10.878 -0.0808 -0.0064  0.2524
 4446TIP3    H134753   3.810   5.779  10.918  0.7214 -0.3080 -0.6682
 4446TIP3    H234754   3.795   5.848  10.784 -2.1848  0.6496  0.0557
 4447TIP3   OH234755   2.833   5.237  13.661 -0.4071  0.6267  0.0096
 4447TIP3    H134756   2.771   5.170  13.691 -0.9771  0.8577 -0.6236
 4447TIP3    H234757   2.879   5.196  13.588  2.4052 -0.6797  2.3080
 4448TIP3   OH234758   2.982   6.649  11.903 -0.3998 -0.0696  0.5270
 4448TIP3    H134759   3.005   6.677  11.991 -0.2200  0.1130  0.4230
 4448TIP3    H234760   2.995   6.727  11.849  1.1274 -0.5959  0.0545
 4449TIP3   OH234761   1.261   4.446   3.605 -0.3698  0.3665 -0.0454
 4449TIP3    H134762   1.226   4.533   3.589 -2.6727  0.0840  2.7092
 4449TIP3    H234763   1.349   4.461   3.637 -0.6923  1.6901  0.2870
 4450TIP3   OH234764   1.408   1.952  12.277 -0.1804  0.4959 -0.2927
 4450TIP3    H134765   1.463   1.969  12.200  0.2541  0.8001  0.0784
 4450TIP3    H234766   1.360   1.872  12.255  0.5579  0.1110 -0.5476
 4451TIP3   OH234767   3.412   6.082  11.436  0.1379  0.1983 -0.2188
 4451TIP3    H134768   3.413   6.155  11.497 -1.3024  0.2437 -0.2203
 4451TIP3    H234769   3.501   6.079  11.401  0.4917  1.3009  0.5328
 4452TIP3   OH234770   3.024   5.754  17.118 -0.1233  0.3980 -0.2193
 4452TIP3    H134771   2.955   5.725  17.059  0.1599  0.3749 -0.5384
 4452TIP3    H234772   3.082   5.807  17.064  0.5813 -0.2914 -0.1544
 4453TIP3   OH234773   5.632   1.481  14.604  0.7805 -0.0711  0.0767
 4453TIP3    H134774   5.676   1.529  14.533  1.2469 -1.6985 -0.7919
 4453TIP3    H234775   5.685   1.402  14.615 -0.1132 -0.5289  1.2679
 4454TIP3   OH234776   2.736   2.378   1.517 -0.3363 -0.3933  0.6230
 4454TIP3    H134777   2.768   2.432   1.445  1.4229  0.0885  1.6856
 4454TIP3    H234778   2.642   2.395   1.520 -0.2316  0.6129 -0.6818
 4455TIP3   OH234779   2.359   5.783  16.345  0.1487 -0.8404 -0.0095
 4455TIP3    H134780   2.402   5.698  16.352 -3.4740 -2.8763  0.1790
 4455TIP3    H234781   2.344   5.795  16.251  0.0156 -0.7734  0.0198
 4456TIP3   OH234782   3.626   6.701   4.109 -0.4628  0.0521 -0.2061
 4456TIP3    H134783   3.590   6.639   4.173  2.0085 -0.5748  0.6990
 4456TIP3    H234784   3.669   6.645   4.044 -0.2193  0.7722 -0.6750
 4457TIP3   OH234785   2.437   4.184  16.771 -0.6927 -0.8207  0.2198
 4457TIP3    H134786   2.372   4.237  16.818 -0.1453  1.5481 -1.5350
 4457TIP3    H234787   2.490   4.247  16.724  1.0524 -2.8876 -0.7478
 4458TIP3   OH234788   4.435   3.469   4.481  0.0768 -0.0707  0.5260
 4458TIP3    H134789   4.369   3.401   4.491 -0.8554  0.9004  1.3358
 4458TIP3    H234790   4.384   3.551   4.478  1.1778  0.6126 -0.0312
 4459TIP3   OH234791   2.956   3.423   3.914 -0.4500 -0.6312  0.4611
 4459TIP3    H134792   3.005   3.388   3.839  0.3684  1.5333 -0.1087
 4459TIP3    H234793   2.931   3.511   3.886 -0.0340  0.2787  2.7608
 4460TIP3   OH234794   4.537   6.219   2.069 -0.7182  0.1879  0.2775
 4460TIP3    H134795   4.450   6.209   2.031 -0.4870 -1.9415  0.2103
 4460TIP3    H234796   4.539   6.309   2.102 -1.9061  1.2014 -2.2242
 4461TIP3   OH234797   5.582   5.490  16.372  0.2882  0.5125 -0.1420
 4461TIP3    H134798   5.505   5.533  16.409 -0.7871 -1.9048  0.6944
 4461TIP3    H234799   5.596   5.414  16.429  1.1157 -1.0689 -2.2933
 4462TIP3   OH234800   2.318   2.506   5.479  0.3411 -0.2673 -0.0894
 4462TIP3    H134801   2.247   2.508   5.544 -0.2692 -0.1369 -0.7523
 4462TIP3    H234802   2.392   2.466   5.526  0.9737  2.7060  1.7564
 4463TIP3   OH234803   6.407   3.214   2.817 -0.5452 -0.2285  0.0645
 4463TIP3    H134804   6.327   3.245   2.774 -0.3562 -0.6667 -0.6316
 4463TIP3    H234805   6.411   3.121   2.795  0.1048 -0.2299  0.1685
 4464TIP3   OH234806   4.579   6.631  16.614 -0.9187 -0.2705 -0.0256
 4464TIP3    H134807   4.550   6.655  16.702  0.2017 -1.0677  0.5880
 4464TIP3    H234808   4.532   6.691  16.556 -0.2827  1.5291  1.2278
 4465TIP3   OH234809   2.898   3.858   2.639 -0.0276 -0.2547 -0.5111
 4465TIP3    H134810   2.867   3.774   2.606  0.0686 -1.0030  1.2117
 4465TIP3    H234811   2.951   3.894   2.567 -1.7129 -0.6935 -2.0515
 4466TIP3   OH234812   4.160   5.147   0.809  0.9703 -0.4886 -0.2634
 4466TIP3    H134813   4.105   5.126   0.884  1.3882  0.1415  0.2345
 4466TIP3    H234814   4.134   5.085   0.741 -1.0319  0.3933 -0.3588
 4467TIP3   OH234815   0.101   1.745   1.038  0.1943 -0.1693  0.2930
 4467TIP3    H134816   0.092   1.748   1.133  0.2314 -0.7544  0.3173
 4467TIP3    H234817   0.181   1.694   1.023  0.6926  0.6970 -0.0328
 4468TIP3   OH234818   6.087   1.147  11.353 -0.0108  0.5492 -0.2242
 4468TIP3    H134819   6.020   1.208  11.382  0.3120  1.0016 -0.4185
 4468TIP3    H234820   6.059   1.121  11.265 -0.4719 -0.0683  0.0934
 4469TIP3   OH234821   2.719   1.695   6.425 -0.2636  0.1743 -0.9245
 4469TIP3    H134822   2.656   1.645   6.372  0.9372 -0.6143 -1.6502
 4469TIP3    H234823   2.769   1.746   6.361 -0.6103  1.3488 -0.2929
 4470TIP3   OH234824   4.458   1.636   0.050  0.3016 -0.1852 -0.2121
 4470TIP3    H134825   4.477   1.691  -0.026 -0.4456  1.7089  0.9118
 4470TIP3    H234826   4.383   1.583   0.023  0.5078 -0.0757 -1.0298
 4471TIP3   OH234827   5.551   5.334  14.801 -0.2555  0.1356 -0.2647
 4471TIP3    H134828   5.532   5.405  14.739 -1.0193  1.4245  1.3645
 4471TIP3    H234829   5.642   5.347  14.825 -0.0576 -0.1600 -0.8271
 4472TIP3   OH234830   0.862   6.152  15.294 -0.5191  0.3885 -0.4290
 4472TIP3    H134831   0.901   6.183  15.376 -1.3690 -1.1861  0.6153
 4472TIP3    H234832   0.768   6.168  15.304 -0.4736  1.9798 -1.9503
 4473TIP3   OH234833   3.433   4.709   2.404  0.0637  0.0224 -0.2069
 4473TIP3    H134834   3.468   4.787   2.361 -2.1566  0.9987 -0.3975
 4473TIP3    H234835   3.459   4.718   2.495  1.2319  0.0833 -0.5203
 4474TIP3   OH234836   4.666   4.670  15.624  0.0598  0.3514 -0.3535
 4474TIP3    H134837   4.622   4.730  15.685 -1.9142  0.0926 -1.4131
 4474TIP3    H234838   4.657   4.584  15.665 -1.6902  0.1071 -1.1299
 4475TIP3   OH234839   0.290   1.697  14.204 -0.3976 -0.3505  0.6223
 4475TIP3    H134840   0.273   1.613  14.161 -0.8829  0.0189  0.0586
 4475TIP3    H234841   0.269   1.682  14.296  2.0223 -1.5484  1.0411
 4476TIP3   OH234842   2.211   1.422  13.075 -0.1005  0.1956  0.0178
 4476TIP3    H134843   2.249   1.451  13.158  1.6353  0.3116 -0.7637
 4476TIP3    H234844   2.279   1.367  13.036 -1.8185 -1.8426 -0.2671
 4477TIP3   OH234845   3.339   4.466   5.000 -0.3262 -0.1240 -0.2807
 4477TIP3    H134846   3.418   4.519   4.991 -0.4028 -0.3267 -2.8256
 4477TIP3    H234847   3.283   4.515   5.060  0.1410  1.9884 -1.5094
 4478TIP3   OH234848   3.372   2.413  15.981 -0.8075 -0.5902 -0.3234
 4478TIP3    H134849   3.328   2.478  16.036 -1.9877 -0.1705 -1.7114
 4478TIP3    H234850   3.313   2.337  15.983  0.5081 -1.6295  1.1999
 4479TIP3   OH234851   0.561   4.959   1.807 -0.6143 -0.1175  0.1514
 4479TIP3    H134852   0.575   4.874   1.765  0.5397  0.4447 -0.6279
 4479TIP3    H234853   0.625   4.962   1.878  0.7376  0.8862 -1.0526
 4480TIP3   OH234854   2.445   5.675  13.462 -0.3762 -0.5548  0.0734
 4480TIP3    H134855   2.530   5.713  13.484 -1.1932  1.5343 -0.1180
 4480TIP3    H234856   2.451   5.584  13.491  2.3956 -0.8842 -1.2465
 4481TIP3   OH234857   4.023   6.042  13.229 -0.0870 -0.0044 -0.2302
 4481TIP3    H134858   4.033   5.953  13.195 -3.3158 -0.0875 -1.3270
 4481TIP3    H234859   4.019   6.032  13.324 -0.8343 -1.1324 -0.3653
 4482TIP3   OH234860   6.329   0.624   3.358  0.2178  0.1337 -0.6079
 4482TIP3    H134861   6.408   0.617   3.304  0.3419  0.6209 -0.4930
 4482TIP3    H234862   6.261   0.653   3.297  0.2336  0.1666 -0.6096
 4483TIP3   OH234863   2.589   0.506   0.257  0.0329 -0.5300 -0.5981
 4483TIP3    H134864   2.577   0.445   0.330 -0.0203  0.0402 -0.1274
 4483TIP3    H234865   2.683   0.506   0.241  0.2798  0.7574  0.7082
 4484TIP3   OH234866   5.831   1.837  16.848 -0.0777 -0.5340 -0.2017
 4484TIP3    H134867   5.868   1.779  16.914 -1.9050 -0.1589  1.2469
 4484TIP3    H234868   5.846   1.925  16.882 -0.8511 -0.3276 -0.3788
 4485TIP3   OH234869   1.172   3.403   6.089 -0.3092  0.5233 -0.4837
 4485TIP3    H134870   1.167   3.394   5.994 -1.5575  0.7953 -0.4515
 4485TIP3    H234871   1.238   3.471   6.103  0.7635 -0.3424 -1.0901
 4486TIP3   OH234872   3.628   2.268   0.454 -0.2795 -0.4242 -0.0309
 4486TIP3    H134873   3.633   2.206   0.526  0.1910  0.4735  0.7185
 4486TIP3    H234874   3.541   2.254   0.417 -1.1614  0.2006  1.7066
 4487TIP3   OH234875   5.316   3.050   1.553  0.1444 -0.0812  0.5354
 4487TIP3    H134876   5.294   2.998   1.476 -0.9486  0.7895  0.2346
 4487TIP3    H234877   5.406   3.077   1.539  0.7776 -1.9251  0.7371
 4488TIP3   OH234878   5.736   2.354   2.297  0.0281 -0.0859  0.0533
 4488TIP3    H134879   5.668   2.360   2.363 -0.0510  1.0536 -0.1198
 4488TIP3    H234880   5.713   2.276   2.246  0.0980 -0.9881  1.3467
 4489TIP3   OH234881   4.437   0.783   5.531  0.0787  0.2693 -0.6725
 4489TIP3    H134882   4.342   0.770   5.528  0.2151 -1.1773  0.3882
 4489TIP3    H234883   4.456   0.798   5.623  0.7772  1.7630 -1.0201
 4490TIP3   OH234884   6.424   1.439  16.733  0.1964 -0.8362 -0.2414
 4490TIP3    H134885   6.431   1.413  16.825  0.7881 -0.1562 -0.0902
 4490TIP3    H234886   6.500   1.398  16.691  0.8461  0.2009 -0.1023
 4491TIP3   OH234887   2.524   2.761   4.122  0.0711  0.3866  0.0418
 4491TIP3    H134888   2.491   2.679   4.158  0.2705  1.8281  4.0194
 4491TIP3    H234889   2.616   2.745   4.105  0.4141  0.0543  2.0089
 4492TIP3   OH234890   5.232   2.645   0.074 -0.1569 -0.0396  0.0377
 4492TIP3    H134891   5.296   2.575   0.082 -1.1031 -1.1489 -1.4005
 4492TIP3    H234892   5.153   2.610   0.115 -1.0041 -0.3683 -1.7637
 4493TIP3   OH234893   5.128   4.451  15.281 -0.1563 -0.4346 -0.3928
 4493TIP3    H134894   5.159   4.369  15.321 -0.7787 -0.8785 -0.8026
 4493TIP3    H234895   5.207   4.493  15.247  0.1361 -1.0018 -0.4258
 4494TIP3   OH234896   2.222   0.450   1.058  0.5013  0.0200  0.0194
 4494TIP3    H134897   2.184   0.518   1.113  0.1830 -0.8647  0.9278
 4494TIP3    H234898   2.226   0.373   1.115  2.6372 -0.2137 -0.3908
 4495TIP3   OH234899   0.672   6.657  11.590  0.5247  0.1425  0.3628
 4495TIP3    H134900   0.618   6.697  11.522 -0.3043 -1.2400  0.1635
 4495TIP3    H234901   0.690   6.727  11.652 -1.4217  0.6881  0.3713
 4496TIP3   OH234902   0.605   0.651  12.820 -0.0503  0.1276 -0.4032
 4496TIP3    H134903   0.586   0.722  12.759 -2.6357 -0.2395 -0.1179
 4496TIP3    H234904   0.520   0.615  12.843  0.8875 -0.4954  2.5633
 4497TIP3   OH234905   3.377   1.264   2.481  0.3575  0.5421  0.1352
 4497TIP3    H134906   3.420   1.306   2.555 -2.2677  1.3688  1.3281
 4497TIP3    H234907   3.372   1.333   2.414  2.1644 -0.0201 -0.6434
 4498TIP3   OH234908   2.345   3.919  16.713 -0.5113 -0.0646 -0.7088
 4498TIP3    H134909   2.400   3.995  16.735 -0.0572 -0.2049 -1.3105
 4498TIP3    H234910   2.344   3.866  16.792  0.7964 -0.3910 -0.8818
 4499TIP3   OH234911   1.579   3.674   5.647  0.0328  0.0911 -0.0469
 4499TIP3    H134912   1.637   3.667   5.572 -0.2283  1.6625 -0.4433
 4499TIP3    H234913   1.599   3.598   5.701  0.6545 -0.7383 -1.4000
 4500TIP3   OH234914   2.938   0.555   0.719 -0.5456 -0.3386 -0.4402
 4500TIP3    H134915   2.854   0.557   0.674 -1.0751 -1.8280  0.4123
 4500TIP3    H234916   2.917   0.536   0.810  0.6172  1.0947  0.1757
 4501TIP3   OH234917   1.080   5.681  14.680 -0.1189  0.0824 -0.0240
 4501TIP3    H134918   1.053   5.768  14.655 -0.9494  0.0858  0.8454
 4501TIP3    H234919   1.035   5.664  14.763 -0.6892 -1.5202 -0.6286
 4502TIP3   OH234920   0.589   5.190  15.150 -0.1655  0.2350 -0.0635
 4502TIP3    H134921   0.587   5.272  15.200  1.2238  0.3476 -0.1494
 4502TIP3    H234922   0.615   5.216  15.062 -1.5212 -0.0946 -0.5740
 4503TIP3   OH234923   1.861   5.960  11.103  0.2454  0.0132  1.0399
 4503TIP3    H134924   1.849   5.888  11.164 -0.3169 -1.8812 -1.1798
 4503TIP3    H234925   1.780   5.962  11.052  1.5751 -0.0336 -1.1742
 4504TIP3   OH234926   1.991   0.636   4.699  0.3137  0.1662  0.5005
 4504TIP3    H134927   2.068   0.586   4.674  0.4945  0.5347  0.3091
 4504TIP3    H234928   2.026   0.713   4.745 -0.0184 -0.7456  2.4020
 4505TIP3   OH234929   5.707   3.256  14.896  0.9932 -0.3519 -0.2275
 4505TIP3    H134930   5.762   3.233  14.972  0.4763  0.3205  0.3629
 4505TIP3    H234931   5.707   3.351  14.895  0.0027 -0.3451 -0.3394
 4506TIP3   OH234932   6.496   6.755   0.166 -0.1269  0.4857 -0.2866
 4506TIP3    H134933   6.505   6.699   0.244  1.5634  0.3436 -0.5283
 4506TIP3    H234934   6.587   6.774   0.141 -0.6501  3.1913 -0.3516
 4507TIP3   OH234935   5.311   6.546  15.607  0.0056 -0.1386  0.6399
 4507TIP3    H134936   5.292   6.611  15.540 -1.9193 -0.4261  0.8312
 4507TIP3    H234937   5.318   6.596  15.688 -0.8322 -0.0682  0.6848
 4508TIP3   OH234938   3.272   0.272  13.401  0.3644  0.7049  0.8665
 4508TIP3    H134939   3.230   0.358  13.398 -0.0373  0.4860 -0.8876
 4508TIP3    H234940   3.342   0.277  13.336 -1.2080 -0.9998 -1.1200
 4509TIP3   OH234941   6.254   5.275  16.400 -0.3364  0.1689  0.3782
 4509TIP3    H134942   6.232   5.203  16.458  0.1881 -0.9172 -0.7432
 4509TIP3    H234943   6.169   5.311  16.373 -0.5966 -0.0183  0.9481
 4510TIP3   OH234944   3.694   1.496  16.359  0.0031  0.0155 -0.2724
 4510TIP3    H134945   3.787   1.490  16.382 -0.2196 -0.3296  0.5575
 4510TIP3    H234946   3.682   1.426  16.294  0.7116  1.2353 -1.7720
 4511TIP3   OH234947   4.661   2.700  17.043  0.2091  0.1015  0.2491
 4511TIP3    H134948   4.732   2.641  17.019  0.4968  0.5112  0.0678
 4511TIP3    H234949   4.586   2.643  17.058  0.4060 -0.2872 -0.2080
 4512TIP3   OH234950   4.010   1.764  15.134  0.4125 -0.2095  0.6486
 4512TIP3    H134951   4.094   1.719  15.142  1.4018  1.8127  2.9332
 4512TIP3    H234952   3.990   1.760  15.041  2.6747 -1.3629  0.1253
 4513TIP3   OH234953   3.344   3.800  15.138 -0.1881 -0.6350  0.5587
 4513TIP3    H134954   3.372   3.779  15.227  2.3142 -0.8546 -0.2211
 4513TIP3    H234955   3.417   3.847  15.100 -0.8805 -1.2550 -1.6658
 4514TIP3   OH234956   5.063   6.716  14.662 -0.3148  0.0915  0.3049
 4514TIP3    H134957   5.068   6.805  14.695  0.8214  0.7474 -1.4841
 4514TIP3    H234958   4.971   6.704  14.637 -0.3917  0.9054  0.1881
 4515TIP3   OH234959   2.413   0.653   4.326 -0.0691 -0.2896 -0.4584
 4515TIP3    H134960   2.435   0.732   4.276  1.5833 -1.4696 -1.7255
 4515TIP3    H234961   2.411   0.584   4.260  1.3595 -1.7815  0.9916
 4516TIP3   OH234962   4.408   5.004   3.066 -0.1424 -0.0394 -0.3699
 4516TIP3    H134963   4.461   4.925   3.071 -0.5584 -0.2407  1.1645
 4516TIP3    H234964   4.454   5.068   3.119 -0.3223  0.4603 -0.8070
 4517TIP3   OH234965   3.637   6.145  11.250  0.2339 -0.2104  0.3399
 4517TIP3    H134966   3.670   6.217  11.196 -2.2462  0.5876 -0.2367
 4517TIP3    H234967   3.651   6.066  11.197 -2.4699  0.5931 -1.7887
 4518TIP3   OH234968   1.696   5.680   5.800  0.7645 -0.3875 -0.0835
 4518TIP3    H134969   1.604   5.707   5.799  0.9107  0.1397 -1.8973
 4518TIP3    H234970   1.700   5.606   5.739  1.4154 -0.9053  0.5724
 4519TIP3   OH234971   4.363   0.343  11.005 -0.1167 -0.2316 -0.2099
 4519TIP3    H134972   4.369   0.408  10.936  2.1437  1.5826  1.5270
 4519TIP3    H234973   4.271   0.315  11.005 -0.6471  1.3390 -2.4247
 4520TIP3   OH234974   0.084   5.245  14.075  0.4447  0.5913  0.0714
 4520TIP3    H134975   0.086   5.333  14.038 -0.3283 -0.4441 -2.6799
 4520TIP3    H234976   0.004   5.242  14.127  0.2442  1.3871 -0.1806
 4521TIP3   OH234977   2.699   1.075  12.455 -0.1863 -0.0178 -0.0041
 4521TIP3    H134978   2.662   1.153  12.413 -1.6608 -0.6860  0.0037
 4521TIP3    H234979   2.626   1.037  12.504  1.1564  0.0282  2.1693
 4522TIP3   OH234980   5.987   5.689   2.015 -0.2521 -0.2101 -0.3059
 4522TIP3    H134981   6.036   5.711   2.094 -0.1899  0.8312 -0.6198
 4522TIP3    H234982   6.017   5.601   1.992  0.3954 -0.1643  0.3234
 4523TIP3   OH234983   5.638   5.170   4.096  0.0259 -0.6935 -0.6454
 4523TIP3    H134984   5.607   5.141   4.182  1.5037  1.4072  0.6863
 4523TIP3    H234985   5.705   5.106   4.071 -0.0465 -1.0348  0.0303
 4524TIP3   OH234986   0.787   2.848  10.825  0.4964 -0.1350  0.7395
 4524TIP3    H134987   0.759   2.939  10.833  0.2279 -0.1954  0.4907
 4524TIP3    H234988   0.706   2.797  10.824  0.6723 -0.4350  1.5700
 4525TIP3   OH234989   1.207   1.644   4.575  0.7218  0.0599 -0.0401
 4525TIP3    H134990   1.137   1.630   4.638  0.7035 -0.4518 -0.1754
 4525TIP3    H234991   1.240   1.557   4.555  0.3339  0.1570 -1.1843
 4526TIP3   OH234992   3.501   1.127   0.601  0.8589  0.5322  0.1696
 4526TIP3    H134993   3.536   1.188   0.536  0.5012  2.4104  1.6220
 4526TIP3    H234994   3.424   1.089   0.560  0.8212  1.4286 -0.6316
 4527TIP3   OH234995   2.907   5.269   2.742 -0.4136  0.3604  0.5342
 4527TIP3    H134996   2.957   5.209   2.686 -2.4840 -1.1413  0.1879
 4527TIP3    H234997   2.974   5.312   2.796  1.2906 -1.0852 -0.3029
 4528TIP3   OH234998   5.770   3.207  12.096  0.1983 -0.0235  0.1759
 4528TIP3    H134999   5.750   3.219  12.189 -0.0792 -1.5989  0.3340
 4528TIP3    H235000   5.866   3.203  12.093  0.2972  1.5152  0.1700
 4529TIP3   OH235001   5.633   0.850  11.710  0.0611  0.7348  0.2081
 4529TIP3    H135002   5.660   0.758  11.720  1.4232  1.2384  1.4920
 4529TIP3    H235003   5.552   0.856  11.760  1.3450  0.7706  2.4467
 4530TIP3   OH235004   2.971   4.670  13.816  0.0218  0.0008 -0.1800
 4530TIP3    H135005   3.058   4.666  13.778  0.2337 -1.1341  0.3939
 4530TIP3    H235006   2.981   4.725  13.894  0.6173 -1.5149  0.8482
 4531TIP3   OH235007   3.507   5.188  14.371  0.0035  0.4314 -0.3158
 4531TIP3    H135008   3.476   5.222  14.455 -0.2437  0.2284 -0.3256
 4531TIP3    H235009   3.600   5.210  14.370 -0.4668  2.6593 -1.0522
 4532TIP3   OH235010   5.939   2.190  15.845  0.0497  0.5870  0.3682
 4532TIP3    H135011   5.961   2.226  15.931  0.8033 -0.1063  0.4878
 4532TIP3    H235012   6.022   2.154  15.813 -0.4669 -0.1930 -0.1414
 4533TIP3   OH235013   4.611   4.939   0.946  0.0285 -0.0216  0.0325
 4533TIP3    H135014   4.542   4.958   1.010 -0.7175 -0.9534 -0.4675
 4533TIP3    H235015   4.570   4.880   0.883  2.0879 -3.3535  1.4947
 4534TIP3   OH235016   6.732   3.802   3.607  0.5734 -0.5025  0.1141
 4534TIP3    H135017   6.675   3.873   3.636  0.8728 -0.0159 -0.4728
 4534TIP3    H235018   6.812   3.812   3.658 -0.8311 -2.9548  3.1811
 4535TIP3   OH235019   4.568   6.375  14.116 -0.1150 -0.6676 -0.7021
 4535TIP3    H135020   4.571   6.289  14.075  1.0588 -1.8875  1.7225
 4535TIP3    H235021   4.617   6.432  14.057 -1.5764 -1.4199 -2.7395
 4536TIP3   OH235022   3.804   4.661   5.627  0.1560  0.6423  0.2236
 4536TIP3    H135023   3.895   4.665   5.656  1.0100  0.3078 -2.1694
 4536TIP3    H235024   3.805   4.708   5.543 -1.5873 -0.5675 -0.5052
 4537TIP3   OH235025   2.239   6.049   4.479 -0.0402  0.5478 -0.3735
 4537TIP3    H135026   2.229   6.084   4.391  2.0926  2.3182 -0.0062
 4537TIP3    H235027   2.306   5.981   4.470  0.4549  0.9904 -0.0717
 4538TIP3   OH235028   4.573   0.307  16.562 -0.0085 -0.1638  0.0931
 4538TIP3    H135029   4.499   0.367  16.563 -0.6731 -0.9728 -0.1800
 4538TIP3    H235030   4.570   0.264  16.647  0.9602  0.7553  0.6223
 4539TIP3   OH235031   2.579   4.699   3.608 -0.0459  0.6127 -0.2589
 4539TIP3    H135032   2.583   4.794   3.603  1.0015  0.5945  0.0486
 4539TIP3    H235033   2.569   4.680   3.702  1.9697  0.3869 -0.0415
 4540TIP3   OH235034   4.411   3.072   0.431  0.0297 -0.0225 -0.3713
 4540TIP3    H135035   4.431   3.002   0.369  0.1678 -0.8108  0.5398
 4540TIP3    H235036   4.497   3.103   0.460 -0.0356 -0.1332 -0.0581
 4541TIP3   OH235037   0.391   3.369   4.753  0.3719  0.1544 -0.2858
 4541TIP3    H135038   0.388   3.274   4.741  0.3930  0.2118 -0.7805
 4541TIP3    H235039   0.334   3.403   4.684 -1.3132  0.4119  1.1844
 4542TIP3   OH235040   2.164   4.089   2.905  0.0995 -0.7636 -0.1969
 4542TIP3    H135041   2.098   4.135   2.853 -0.3155 -0.2072  0.7914
 4542TIP3    H235042   2.227   4.057   2.841 -0.6621 -0.5299 -1.0807
 4543TIP3   OH235043   2.062   1.256  16.582  0.5193 -0.5120 -0.5227
 4543TIP3    H135044   2.123   1.328  16.571  1.6537 -1.3013  0.2883
 4543TIP3    H235045   2.083   1.195  16.511  1.1647 -1.0902  0.1420
 4544TIP3   OH235046   2.021   1.537  11.291  0.5886  0.5095  0.4183
 4544TIP3    H135047   2.005   1.621  11.334 -1.8109  0.8503 -0.9775
 4544TIP3    H235048   2.116   1.535  11.277  0.6714  3.2092  0.0776
 4545TIP3   OH235049   6.108   1.514   0.750 -0.1001  0.2870  0.4225
 4545TIP3    H135050   6.014   1.510   0.766 -0.5100  0.4022 -1.6341
 4545TIP3    H235051   6.122   1.454   0.677  1.4132  0.3359  0.6546
 4546TIP3   OH235052   4.507   4.304  16.365 -0.3188  0.2496 -0.4823
 4546TIP3    H135053   4.420   4.332  16.338  0.2048  0.6722 -1.8434
 4546TIP3    H235054   4.543   4.258  16.289  0.4141 -0.4872  0.2784
 4547TIP3   OH235055   5.943   3.027  13.449 -0.1070 -0.3004  0.0155
 4547TIP3    H135056   5.904   3.036  13.362  1.5889  2.2257 -0.5971
 4547TIP3    H235057   6.019   2.971  13.435  1.1324  1.4652 -0.5327
 4548TIP3   OH235058   5.904   6.109   3.525 -0.0073  0.2820 -0.1366
 4548TIP3    H135059   5.815   6.105   3.492  0.2942 -1.9199 -0.8590
 4548TIP3    H235060   5.911   6.036   3.587  1.4032  0.1402 -0.4185
 4549TIP3   OH235061   3.895   3.263  11.262 -0.4462  0.3502 -0.0856
 4549TIP3    H135062   3.842   3.184  11.255 -0.1631  0.1816 -0.3653
 4549TIP3    H235063   3.917   3.285  11.172 -0.9144  1.0228 -0.0360
 4550TIP3   OH235064   5.402   6.535   0.188 -0.1807  0.3943  0.0529
 4550TIP3    H135065   5.439   6.468   0.247  1.2022 -1.0371 -2.2756
 4550TIP3    H235066   5.311   6.508   0.176  0.0259 -0.3698  0.1091
 4551TIP3   OH235067   5.050   5.370  13.676  0.3931 -0.3293 -0.1326
 4551TIP3    H135068   4.968   5.402  13.639  0.7957  1.6583  0.5249
 4551TIP3    H235069   5.025   5.330  13.759 -0.0528 -1.0693 -0.6125
 4552TIP3   OH235070   3.265   3.700   2.214  0.6381 -0.2289  0.1085
 4552TIP3    H135071   3.185   3.662   2.251 -0.4568  1.9912  0.1922
 4552TIP3    H235072   3.280   3.651   2.134 -0.1213 -1.4760  0.7066
 4553TIP3   OH235073   4.849   1.546   1.736  0.3468  0.0708 -0.8288
 4553TIP3    H135074   4.835   1.490   1.660  0.2145 -0.8960 -0.1194
 4553TIP3    H235075   4.764   1.550   1.779  0.5916 -0.0322 -0.3220
 4554TIP3   OH235076   0.078   3.379  17.207 -0.0855 -0.0043 -0.3290
 4554TIP3    H135077   0.125   3.402  17.287 -0.9992  2.5312 -0.4486
 4554TIP3    H235078  -0.011   3.410  17.221 -0.4685 -0.2237 -2.0310
 4555TIP3   OH235079   6.206   4.671  13.616  0.0277  0.3674 -0.4625
 4555TIP3    H135080   6.291   4.708  13.593  0.4263 -0.3819 -0.2389
 4555TIP3    H235081   6.157   4.744  13.653  2.1694 -0.0054  3.7946
 4556TIP3   OH235082   5.881   0.322   3.476  0.1276 -0.2026  0.0512
 4556TIP3    H135083   5.791   0.328   3.444 -1.2958  1.2541  3.7151
 4556TIP3    H235084   5.875   0.264   3.553  2.1134  0.6018  0.8745
 4557TIP3   OH235085   1.244   6.418   0.619  0.1149  0.4347  0.1754
 4557TIP3    H135086   1.188   6.361   0.565 -0.9130 -0.2660  1.8821
 4557TIP3    H235087   1.224   6.507   0.589 -0.2539  0.0537 -0.7444
 4558TIP3   OH235088   6.407   3.468   1.999 -0.1260 -0.8534  0.0945
 4558TIP3    H135089   6.367   3.383   2.013  0.5065 -1.0941  0.4890
 4558TIP3    H235090   6.401   3.512   2.084 -1.6234  0.0181 -0.4314
 4559TIP3   OH235091   3.563   1.754  14.249 -0.3504 -0.2822  0.1144
 4559TIP3    H135092   3.491   1.748  14.312 -0.9060  2.8209 -0.0996
 4559TIP3    H235093   3.635   1.793  14.299 -0.1789  0.4533 -0.6993
 4560TIP3   OH235094   2.139   1.491  11.820 -0.6307  0.5207 -0.4219
 4560TIP3    H135095   2.081   1.498  11.744 -0.3755 -0.1213 -0.6829
 4560TIP3    H235096   2.198   1.567  11.812  0.9955 -0.8466 -2.2531
 4561TIP3   OH235097   5.744   6.325  11.988  0.0416 -0.6709 -0.1115
 4561TIP3    H135098   5.805   6.300  12.058 -2.9615 -3.0506  1.9516
 4561TIP3    H235099   5.800   6.360  11.918  3.3832  0.4164  2.8202
 4562TIP3   OH235100   1.097   3.712   1.371  0.4377 -0.0432  0.0484
 4562TIP3    H135101   1.117   3.694   1.279  2.1510  3.2915 -0.3891
 4562TIP3    H235102   1.134   3.637   1.418  0.2139 -1.4642 -1.8715
 4563TIP3   OH235103   1.510   4.709   2.874 -0.0488 -0.7251  0.4614
 4563TIP3    H135104   1.606   4.707   2.869  0.2331  3.6064  0.0786
 4563TIP3    H235105   1.481   4.710   2.783 -0.2291  0.3891  0.5122
 4564TIP3   OH235106   4.497   0.873   4.417 -0.0397 -0.7464 -0.2500
 4564TIP3    H135107   4.500   0.816   4.340  1.4354 -0.6293 -0.3129
 4564TIP3    H235108   4.509   0.961   4.381 -0.8968 -0.5271 -0.0199
 4565TIP3   OH235109   4.285   5.966   4.412  0.8154 -0.2651 -0.1192
 4565TIP3    H135110   4.224   5.947   4.483  2.0916  0.1564  1.1415
 4565TIP3    H235111   4.296   6.061   4.416  0.2796 -0.1329 -1.4331
 4566TIP3   OH235112   0.681   2.506  11.244 -0.2927  0.1023 -0.3927
 4566TIP3    H135113   0.682   2.441  11.174  1.1940 -1.2656  0.8009
 4566TIP3    H235114   0.739   2.469  11.311  1.0940  2.9544  0.1060
 4567TIP3   OH235115   1.905   4.188   0.229  0.2315 -0.7286 -0.3762
 4567TIP3    H135116   1.908   4.112   0.171 -2.8757 -1.4089  0.1341
 4567TIP3    H235117   1.833   4.241   0.194 -0.2057 -0.0214  1.4906
 4568TIP3   OH235118   0.750   0.529  11.921  0.0970 -0.7864  0.0293
 4568TIP3    H135119   0.770   0.621  11.936  0.4049 -0.7069 -0.7963
 4568TIP3    H235120   0.661   0.528  11.887 -0.5748 -0.9599  1.7235
 4569TIP3   OH235121   2.169   3.863  13.868 -0.2179 -0.0977 -0.3813
 4569TIP3    H135122   2.173   3.785  13.922  0.1438  0.5234  0.5069
 4569TIP3    H235123   2.228   3.925  13.910  1.8347 -0.3104 -2.6943
 4570TIP3   OH235124   1.249   0.896  11.430  0.6423  0.0934  0.1888
 4570TIP3    H135125   1.274   0.805  11.442  0.6358  0.0800  0.0974
 4570TIP3    H235126   1.153   0.894  11.420  0.8908 -0.2161 -2.9023
 4571TIP3   OH235127   5.420   1.767   1.158 -0.1471 -0.1019  0.1149
 4571TIP3    H135128   5.384   1.810   1.236  1.5893  0.2044  0.7919
 4571TIP3    H235129   5.355   1.700   1.135 -1.4715  0.8958  0.8279
 4572TIP3   OH235130   5.742   3.316  16.736  0.0117 -0.1898  0.1417
 4572TIP3    H135131   5.826   3.313  16.691  0.3808 -0.1420  0.8191
 4572TIP3    H235132   5.763   3.304  16.828 -0.6580  0.4454  0.3939
 4573TIP3   OH235133   4.858   3.210   3.753 -0.2857  0.1357 -0.0113
 4573TIP3    H135134   4.845   3.202   3.659 -0.5132 -0.3220  0.0564
 4573TIP3    H235135   4.947   3.245   3.762 -0.2758  0.2165 -0.3924
 4574TIP3   OH235136   4.610   2.449  14.910  0.4185 -0.0658 -0.6553
 4574TIP3    H135137   4.654   2.529  14.937 -0.6005 -0.6671  3.5875
 4574TIP3    H235138   4.517   2.465  14.930  0.2629 -2.3683  0.9095
 4575TIP3   OH235139   2.879   0.957   2.735 -0.1807  0.5752 -0.1101
 4575TIP3    H135140   2.873   1.049   2.711  2.5442  0.8440 -0.0539
 4575TIP3    H235141   2.946   0.954   2.804  0.9248 -1.5856 -1.1630
 4576TIP3   OH235142   3.963   6.184  16.271 -0.2303 -0.0151 -0.2864
 4576TIP3    H135143   3.878   6.211  16.305 -0.0299 -0.2817  0.4346
 4576TIP3    H235144   3.957   6.089  16.265 -0.1270  0.0001 -0.6275
 4577TIP3   OH235145   4.933   1.390  11.441 -1.0474  0.1855 -0.2531
 4577TIP3    H135146   4.948   1.310  11.390 -0.2895  0.3012 -0.2320
 4577TIP3    H235147   4.923   1.459  11.375  0.0322  0.3519 -0.2668
 4578TIP3   OH235148   4.229   6.539  15.639 -0.5953 -0.1926 -0.2754
 4578TIP3    H135149   4.177   6.558  15.561  0.3765  1.1534 -0.6339
 4578TIP3    H235150   4.205   6.608  15.701 -1.4825 -1.3480  0.7080
 4579TIP3   OH235151   0.226   2.211   2.918 -0.1863 -0.3075 -0.2051
 4579TIP3    H135152   0.201   2.158   2.842 -1.9532  0.6942 -0.3859
 4579TIP3    H235153   0.197   2.160   2.994  1.8746 -1.4609 -0.1287
 4580TIP3   OH235154   2.911   0.457   4.734  0.1536 -0.3594 -0.4493
 4580TIP3    H135155   2.928   0.363   4.724 -0.1122 -0.4501 -0.0528
 4580TIP3    H235156   2.998   0.496   4.747  0.0963 -0.8468  1.7768
 4581TIP3   OH235157   4.341   2.692  15.265 -0.3087 -0.0395  1.0617
 4581TIP3    H135158   4.373   2.630  15.331  1.4545  0.3105  0.5925
 4581TIP3    H235159   4.349   2.778  15.307  0.6784  0.1697  0.4678
 4582TIP3   OH235160   6.334   3.582   3.770  0.2147  0.1044  0.1058
 4582TIP3    H135161   6.312   3.522   3.840 -1.8367 -0.4050 -0.9078
 4582TIP3    H235162   6.271   3.653   3.778  0.6347  0.5710 -0.5754
 4583TIP3   OH235163   0.489   0.848  13.862 -0.3819 -0.0097  0.0318
 4583TIP3    H135164   0.439   0.925  13.891 -0.1429  0.5204 -0.9464
 4583TIP3    H235165   0.424   0.791  13.821 -0.5937 -0.4411  0.9253
 4584TIP3   OH235166   6.612   2.915  17.040  0.4397  0.1336 -0.1360
 4584TIP3    H135167   6.605   2.820  17.036  0.6397  0.1504 -1.3776
 4584TIP3    H235168   6.681   2.936  16.977 -0.4291  1.1836 -0.7744
 4585TIP3   OH235169   4.389   1.161   2.647  0.2668 -0.2302  0.0734
 4585TIP3    H135170   4.327   1.111   2.593  0.8088  1.6629 -2.4965
 4585TIP3    H235171   4.352   1.249   2.651  1.8717  0.4791  0.0542
 4586TIP3   OH235172   5.144   6.521  16.548  0.5030  0.0491 -0.6258
 4586TIP3    H135173   5.156   6.450  16.611 -0.5746  0.0367 -0.3983
 4586TIP3    H235174   5.115   6.478  16.468  0.3477  0.1830 -0.6444
 4587TIP3   OH235175   3.163   5.370  13.342  0.6360  0.4888  0.2970
 4587TIP3    H135176   3.232   5.305  13.331 -1.3391 -1.3855 -2.6701
 4587TIP3    H235177   3.146   5.403  13.254 -1.4095  1.8112  1.0894
 4588TIP3   OH235178   0.654   6.744  16.601 -0.0132 -0.0589 -0.0426
 4588TIP3    H135179   0.678   6.670  16.656  0.5787 -1.9756 -2.7112
 4588TIP3    H235180   0.717   6.813  16.623  0.0244 -0.6473  1.7964
 4589TIP3   OH235181   3.195   2.005   1.123 -0.2266 -0.4790 -0.0816
 4589TIP3    H135182   3.290   2.001   1.133 -0.1677  0.1066 -0.3715
 4589TIP3    H235183   3.173   2.096   1.139 -1.1511 -1.1424  3.4171
 4590TIP3   OH235184   5.784   5.134   4.585 -0.1602  0.2402 -0.1735
 4590TIP3    H135185   5.783   5.215   4.533  1.0829 -0.3986 -1.2702
 4590TIP3    H235186   5.791   5.164   4.675  2.1768  1.4145 -0.6491
 4591TIP3   OH235187   3.122   4.326  13.834 -0.0940 -0.4871 -0.2027
 4591TIP3    H135188   3.192   4.355  13.893  0.6726 -3.8721  0.7820
 4591TIP3    H235189   3.159   4.335  13.746 -0.1815  1.9038 -0.0728
 4592TIP3   OH235190   6.695   2.332  12.305  0.2410  0.2368 -0.1451
 4592TIP3    H135191   6.645   2.412  12.320  1.0191  0.2309  3.5569
 4592TIP3    H235192   6.784   2.354  12.333  0.3831 -1.9269  1.3936
 4593TIP3   OH235193   0.858   3.400   3.694 -0.2356  0.3864 -0.0983
 4593TIP3    H135194   0.849   3.468   3.761 -0.2598  1.6082 -1.3000
 4593TIP3    H235195   0.861   3.448   3.611 -2.2780 -1.1861 -1.1816
 4594TIP3   OH235196   1.736   4.870   5.768 -0.4265  0.3961 -0.6172
 4594TIP3    H135197   1.650   4.842   5.800 -0.2186 -0.4080 -0.7403
 4594TIP3    H235198   1.767   4.796   5.715  0.9070  0.1148  0.4835
 4595TIP3   OH235199   4.365   4.334  14.246 -0.5386 -0.0280  0.7368
 4595TIP3    H135200   4.419   4.412  14.250  1.4543 -1.3323  0.9043
 4595TIP3    H235201   4.409   4.271  14.302 -1.6031 -1.5533 -0.0485
 4596TIP3   OH235202   6.380   5.684   5.164  0.0908  0.4421 -0.3447
 4596TIP3    H135203   6.418   5.712   5.081 -2.1710 -0.7809 -1.9321
 4596TIP3    H235204   6.332   5.760   5.196 -0.1614  0.5152 -0.8927
 4597TIP3   OH235205   4.800   4.860   5.730 -0.3114  0.4645 -0.0957
 4597TIP3    H135206   4.765   4.838   5.816  2.6608  0.2137  1.1825
 4597TIP3    H235207   4.790   4.779   5.679 -2.0457  0.5986 -0.0388
 4598TIP3   OH235208   2.897   2.179  14.011  0.6663 -0.7227 -0.0327
 4598TIP3    H135209   2.855   2.132  14.084  0.4559 -0.3044  0.1168
 4598TIP3    H235210   2.908   2.268  14.043  0.8327 -0.6052 -0.4126
 4599TIP3   OH235211   3.189   5.377  12.082  0.3640  0.1392 -0.0921
 4599TIP3    H135212   3.150   5.391  11.995  0.8475 -0.8536 -0.4842
 4599TIP3    H235213   3.124   5.411  12.143  0.0532  0.9503 -0.8419
 4600TIP3   OH235214   1.261   4.199  15.049  0.6163 -0.2386 -0.0161
 4600TIP3    H135215   1.265   4.145  14.971  1.5700 -1.9147  1.1298
 4600TIP3    H235216   1.243   4.287  15.016 -0.5708 -1.1529 -1.9736
 4601TIP3   OH235217   0.745   3.998   1.001 -0.0324  0.3394  0.7927
 4601TIP3    H135218   0.672   3.975   1.058  0.1907  0.3024  1.0679
 4601TIP3    H235219   0.716   4.078   0.956 -0.7426 -0.3780 -0.0447
 4602TIP3   OH235220   2.417   2.959   4.267 -0.5706 -0.0701  0.5160
 4602TIP3    H135221   2.507   2.988   4.256 -0.5396  0.3158  1.5944
 4602TIP3    H235222   2.414   2.873   4.227  0.3957 -0.2581  0.8235
 4603TIP3   OH235223   5.756   2.230  11.247 -0.0680 -0.1268 -0.2874
 4603TIP3    H135224   5.829   2.180  11.209  0.7348  0.2247  0.7476
 4603TIP3    H235225   5.680   2.172  11.240  0.3430 -0.5771 -1.2124
 4604TIP3   OH235226   6.110   0.113   3.820  0.3398  0.5579 -0.1174
 4604TIP3    H135227   6.030   0.109   3.873  0.5893  0.9851  0.3008
 4604TIP3    H235228   6.087   0.168   3.746 -0.5606 -1.4704 -1.4484
 4605TIP3   OH235229   6.294   3.119   3.689  0.4303  0.6418 -0.0494
 4605TIP3    H135230   6.275   3.107   3.782  3.0812  2.3908  0.8464
 4605TIP3    H235231   6.363   3.055   3.670 -3.1989 -3.1322 -2.2773
 4606TIP3   OH235232   6.441   1.344   4.955  0.5543  0.1238 -0.4133
 4606TIP3    H135233   6.440   1.340   4.859 -1.4544  0.0558 -0.4382
 4606TIP3    H235234   6.388   1.421   4.976  1.5347  0.5314  0.6455
 4607TIP3   OH235235   3.815   2.944  14.481  0.0090 -0.4973 -0.1358
 4607TIP3    H135236   3.877   2.926  14.410 -1.3975 -1.3503 -1.2092
 4607TIP3    H235237   3.817   3.039  14.491  0.2801 -0.3661 -1.3114
 4608TIP3   OH235238   4.983   0.588   4.992 -0.6302 -0.5392  1.2645
 4608TIP3    H135239   5.059   0.534   4.972 -1.2001 -1.0103  0.3207
 4608TIP3    H235240   4.982   0.655   4.923 -0.4152  0.1787  1.9391
 4609TIP3   OH235241   0.042   1.131  14.147  0.0798 -0.9873  0.0007
 4609TIP3    H135242  -0.029   1.184  14.111 -0.7106 -1.3594  0.9498
 4609TIP3    H235243   0.050   1.056  14.088  0.7222 -0.1803 -0.9517
 4610TIP3   OH235244   1.882   5.246   1.711 -0.1670 -0.4808 -0.1748
 4610TIP3    H135245   1.951   5.188   1.743  0.2323 -1.9121 -3.3090
 4610TIP3    H235246   1.861   5.214   1.623 -2.1710  2.2388 -0.8467
 4611TIP3   OH235247   6.465   6.643   2.972  0.0458 -0.7098  0.3492
 4611TIP3    H135248   6.370   6.641   2.955  0.4126 -1.2343 -1.9467
 4611TIP3    H235249   6.478   6.722   3.025 -1.5419 -0.0262 -0.2097
 4612TIP3   OH235250   5.395   4.567   5.184 -0.3502 -0.0407  0.1536
 4612TIP3    H135251   5.343   4.501   5.230 -1.3293 -0.5975 -1.6747
 4612TIP3    H235252   5.438   4.616   5.254 -0.7750 -1.6398  1.6152
 4613TIP3   OH235253   0.299   5.318  13.469 -0.1527  0.4255  0.3144
 4613TIP3    H135254   0.372   5.259  13.449 -1.2945 -1.0097  0.1475
 4613TIP3    H235255   0.329   5.370  13.543  1.2630  0.3148 -0.1657
 4614TIP3   OH235256   1.477   6.383   0.179 -0.7154 -0.5490  0.2939
 4614TIP3    H135257   1.465   6.471   0.215  0.5893  0.0058 -0.5320
 4614TIP3    H235258   1.572   6.367   0.186 -0.8516 -1.6283 -0.1342
 4615TIP3   OH235259   1.813   0.281   4.825 -0.1856  0.2846  1.0215
 4615TIP3    H135260   1.718   0.289   4.828 -0.2217  1.1239 -0.8124
 4615TIP3    H235261   1.833   0.269   4.732  1.5442  0.8349  1.2865
 4616TIP3   OH235262   6.050   6.078  16.952 -0.0466 -0.2618 -0.0722
 4616TIP3    H135263   6.098   6.063  16.871  1.1994 -2.9996  1.0264
 4616TIP3    H235264   6.117   6.081  17.020 -1.2240 -1.6993  1.2424
 4617TIP3   OH235265   4.734   4.691   3.829  0.3195  0.4307  0.0011
 4617TIP3    H135266   4.730   4.616   3.889 -0.6612 -0.5567 -1.2396
 4617TIP3    H235267   4.664   4.749   3.859 -1.8344 -1.1996 -1.5660
 4618TIP3   OH235268   3.253   5.062   0.160 -0.0075  0.0591  0.3865
 4618TIP3    H135269   3.313   4.998   0.120  3.0535  0.5252  3.6821
 4618TIP3    H235270   3.269   5.143   0.112  0.8196 -0.2105  0.1868
 4619TIP3   OH235271   1.703   1.916   2.848  0.4099  0.5833 -0.2195
 4619TIP3    H135272   1.654   1.926   2.929  1.8619  1.9493  0.5457
 4619TIP3    H235273   1.778   1.974   2.858  1.2188 -0.0579 -2.0916
 4620TIP3   OH235274   4.674   4.968  12.040 -0.1583  0.5416 -0.1025
 4620TIP3    H135275   4.704   5.057  12.019  1.2343  0.4335  1.3055
 4620TIP3    H235276   4.731   4.939  12.111  0.6508 -2.2106 -1.7238
 4621TIP3   OH235277   6.466   6.098   2.132  0.0100 -0.2999 -0.6159
 4621TIP3    H135278   6.463   6.161   2.060 -1.0932  0.1161 -0.2312
 4621TIP3    H235279   6.556   6.067   2.134  0.5684  1.2346 -0.8648
 4622TIP3   OH235280   3.983   6.279   3.058  0.5338 -0.7911  0.0760
 4622TIP3    H135281   3.951   6.327   2.982  1.8349 -0.5599 -0.3603
 4622TIP3    H235282   4.029   6.203   3.020  1.1458 -0.7046  0.6297
 4623TIP3   OH235283   5.466   5.924   3.653  0.3049 -0.6205 -0.0058
 4623TIP3    H135284   5.450   5.857   3.586 -0.2789 -0.6695  0.1823
 4623TIP3    H235285   5.384   5.972   3.660 -0.0821 -1.4512  1.6179
 4624TIP3   OH235286   0.232   0.069  12.725 -0.0090 -0.4675  0.2130
 4624TIP3    H135287   0.308   0.049  12.780 -0.0962 -1.1395  0.0992
 4624TIP3    H235288   0.218  -0.011  12.675 -0.4488 -0.1479 -0.1753
 4625TIP3   OH235289   4.707   5.420  14.030  0.1259 -0.1319 -0.6353
 4625TIP3    H135290   4.723   5.512  14.052  1.0601  0.1580 -2.3991
 4625TIP3    H235291   4.627   5.398  14.078  1.2983  0.8005  1.9326
 4626TIP3   OH235292   6.377   5.043   4.864  0.4471  0.7322  0.1918
 4626TIP3    H135293   6.421   5.090   4.935  2.1021 -0.6818  0.1781
 4626TIP3    H235294   6.359   4.956   4.899 -0.2909  0.5576 -0.5748
 4627TIP3   OH235295   0.761   4.011   3.326 -0.2100  0.2586  0.3928
 4627TIP3    H135296   0.846   3.970   3.337 -0.1948  0.6642  1.9900
 4627TIP3    H235297   0.752   4.023   3.231  1.2654 -0.2700  0.1685
 4628TIP3   OH235298   0.276   4.743  13.463  0.2474  0.0842 -0.4991
 4628TIP3    H135299   0.349   4.719  13.519 -1.3136 -0.7471  1.2810
 4628TIP3    H235300   0.230   4.811  13.512 -0.6957 -0.0601 -1.1606
 4629TIP3   OH235301   1.308   1.188  12.823 -0.2405  0.0459 -0.2115
 4629TIP3    H135302   1.347   1.220  12.742  2.4590 -2.3018  0.0056
 4629TIP3    H235303   1.282   1.099  12.803 -1.8954  0.2606  0.8475
 4630TIP3   OH235304   2.465   0.398  14.007  0.1688  0.1480  0.1241
 4630TIP3    H135305   2.409   0.471  14.031  0.2962  0.1366  0.4682
 4630TIP3    H235306   2.472   0.346  14.088  0.6714  0.1531  0.0878
 4631TIP3   OH235307   3.282   6.252  13.551 -0.0549 -0.4389 -0.0169
 4631TIP3    H135308   3.209   6.218  13.604 -0.4282  1.4137  0.7097
 4631TIP3    H235309   3.320   6.322  13.604  1.4736 -0.5145 -0.9514
 4632TIP3   OH235310   5.748   1.634  14.377 -0.1845 -0.3660 -0.8283
 4632TIP3    H135311   5.814   1.594  14.320 -1.4675 -0.3218 -2.4395
 4632TIP3    H235312   5.747   1.726  14.353 -2.1898 -0.7069 -2.3449
 4633TIP3   OH235313   6.000   5.786   3.022 -0.1266 -0.3577  0.4690
 4633TIP3    H135314   5.977   5.791   3.115 -0.9078  0.6494  0.2328
 4633TIP3    H235315   5.939   5.722   2.985  1.4317 -2.2468  0.9833
 4634TIP3   OH235316   2.597   5.201   2.214  0.3279  0.2027  0.2177
 4634TIP3    H135317   2.642   5.159   2.287  1.8054  1.1648 -0.1007
 4634TIP3    H235318   2.505   5.179   2.226  0.6132 -0.0541  2.0924
 4635TIP3   OH235319   2.968   0.740  12.107 -0.4680  0.2704 -0.8351
 4635TIP3    H135320   2.918   0.803  12.159  0.1611  1.4477 -1.6080
 4635TIP3    H235321   2.930   0.746  12.019  0.9406  1.1222 -1.4156
 4636TIP3   OH235322   4.364   4.619  12.217 -0.1910  0.0394  0.2530
 4636TIP3    H135323   4.451   4.653  12.198 -0.0051 -0.4729  0.1512
 4636TIP3    H235324   4.372   4.582  12.305  0.2410 -1.6969 -0.4637
 4637TIP3   OH235325   4.640   2.744   0.057 -0.0567  0.6465 -0.2219
 4637TIP3    H135326   4.647   2.747  -0.039  0.1075  1.6152 -0.1850
 4637TIP3    H235327   4.697   2.672   0.082 -0.8365 -0.2540 -0.9101
 4638TIP3   OH235328   5.703   1.076   1.363  0.1258 -0.4150  0.3023
 4638TIP3    H135329   5.779   1.124   1.331  0.6186 -1.0598  0.4805
 4638TIP3    H235330   5.693   1.004   1.300 -0.6489 -0.0442 -0.0081
 4639TIP3   OH235331   6.773   3.552  16.917 -0.1413  0.1317  0.1856
 4639TIP3    H135332   6.775   3.566  17.011 -1.4495 -1.5829  0.5266
 4639TIP3    H235333   6.776   3.457  16.906 -3.2133  0.0474 -1.2703
 4640TIP3   OH235334   1.564   1.717   3.647 -0.0346 -0.0403  0.1150
 4640TIP3    H135335   1.625   1.735   3.719 -1.1346  0.2216  0.9924
 4640TIP3    H235336   1.488   1.772   3.665 -0.3453 -0.0108 -1.2327
 4641TIP3   OH235337   6.492   5.010   1.743  0.1438  0.1804 -0.1814
 4641TIP3    H135338   6.419   4.949   1.751 -0.2972  0.7166 -0.0259
 4641TIP3    H235339   6.545   4.994   1.821 -0.2569  0.3568  0.1334
 4642TIP3   OH235340   4.462   2.219  13.624 -0.3963 -0.1955  0.8198
 4642TIP3    H135341   4.549   2.180  13.622 -0.4956 -0.4277  1.0405
 4642TIP3    H235342   4.458   2.262  13.709  0.6343  2.4060 -0.3276
 4643TIP3   OH235343   1.809   1.062  13.016  0.5988 -0.2232 -0.1581
 4643TIP3    H135344   1.837   0.992  13.074  0.5949 -2.5208 -2.7568
 4643TIP3    H235345   1.843   1.142  13.057  0.6292 -1.6672  2.8973
 4644TIP3   OH235346   4.362   0.546  12.365 -0.3779  0.0598  0.0081
 4644TIP3    H135347   4.362   0.531  12.271 -0.9730 -0.6548  0.1147
 4644TIP3    H235348   4.305   0.622  12.378 -0.2589  0.1862 -0.2075
 4645TIP3   OH235349   1.068   3.158   3.638 -0.5709 -0.2464  0.1693
 4645TIP3    H135350   1.157   3.158   3.673 -0.2536  1.9046 -0.5144
 4645TIP3    H235351   1.038   3.248   3.648 -1.9336 -0.4767 -1.4240
 4646TIP3   OH235352   2.974   1.470  13.658 -0.2665 -0.1416 -0.0942
 4646TIP3    H135353   2.929   1.546  13.621  1.4803  0.8670 -0.2806
 4646TIP3    H235354   3.065   1.499  13.669  0.9029 -2.7518 -1.8248
 4647TIP3   OH235355   3.325   3.757   4.886  0.3658  0.2443  0.1233
 4647TIP3    H135356   3.299   3.686   4.827 -1.5653  0.8011  0.2222
 4647TIP3    H235357   3.317   3.836   4.832  1.6345  0.4954  0.2726
 4648TIP3   OH235358   3.106   6.727   5.873  0.1309  0.1114  0.3504
 4648TIP3    H135359   3.107   6.792   5.803  0.0102  0.3786  0.5912
 4648TIP3    H235360   3.018   6.691   5.872  0.5580 -0.9540 -0.5924
 4649TIP3   OH235361   0.198   3.185  15.278 -0.3692 -0.3300 -0.3161
 4649TIP3    H135362   0.254   3.193  15.200  0.2356 -0.4533  0.1009
 4649TIP3    H235363   0.257   3.200  15.351 -0.8848 -0.4905  0.1354
 4650TIP3   OH235364   1.251   2.178   6.060  0.7696 -0.0537  0.3943
 4650TIP3    H135365   1.182   2.134   6.110  0.9216 -1.3923 -0.5083
 4650TIP3    H235366   1.287   2.243   6.120  0.4776 -1.1172  1.7752
 4651TIP3   OH235367   5.968   2.582  12.566 -0.5868  0.2979  0.3442
 4651TIP3    H135368   5.990   2.489  12.553 -0.3998  0.4506 -0.5223
 4651TIP3    H235369   6.003   2.625  12.488 -0.0629  1.2000  1.0663
 4652TIP3   OH235370   5.104   3.605   2.709 -0.4911 -0.3708 -0.0043
 4652TIP3    H135371   5.062   3.672   2.655 -2.2200 -0.9373  0.5754
 4652TIP3    H235372   5.130   3.650   2.789 -1.5715 -0.3428  0.3469
 4653TIP3   OH235373   1.934   6.296  12.992 -0.0382 -0.5094 -0.1669
 4653TIP3    H135374   2.026   6.324  12.988  0.0659 -0.6214  0.9320
 4653TIP3    H235375   1.933   6.229  13.061 -1.3497  1.2163  1.6211
 4654TIP3   OH235376   6.192   4.542   3.519  0.0825  0.4061  0.4248
 4654TIP3    H135377   6.250   4.592   3.460 -0.4134  2.1620  1.3603
 4654TIP3    H235378   6.132   4.608   3.554 -2.2975 -1.2940 -0.2389
 4655TIP3   OH235379   3.327   0.723   5.493 -0.0786 -0.0859 -0.3166
 4655TIP3    H135380   3.295   0.788   5.556  2.5686  0.1420  0.9209
 4655TIP3    H235381   3.257   0.658   5.489 -1.0342  0.7292  1.6146
 4656TIP3   OH235382   0.147   1.210   4.120  0.5012 -0.1298 -0.0855
 4656TIP3    H135383   0.172   1.272   4.188 -2.2322  1.3703 -0.3006
 4656TIP3    H235384   0.217   1.216   4.055  1.4038  1.0388  0.9451
 4657TIP3   OH235385   0.442   2.164  16.294  0.1625  0.4542 -0.4955
 4657TIP3    H135386   0.459   2.080  16.337 -2.6299 -0.4201 -0.8759
 4657TIP3    H235387   0.525   2.187  16.252  0.8873 -2.3488 -0.7719
 4658TIP3   OH235388   3.814   3.694  16.423 -0.4893  0.9959  0.0821
 4658TIP3    H135389   3.735   3.639  16.430  0.1550 -0.1566 -1.2341
 4658TIP3    H235390   3.780   3.781  16.403 -1.4464  0.5583 -0.2748
 4659TIP3   OH235391   4.365   2.598  11.884  0.1606 -0.4308 -0.1555
 4659TIP3    H135392   4.352   2.658  11.957 -0.4431 -0.1076 -0.5205
 4659TIP3    H235393   4.344   2.512  11.919 -0.4683 -0.2337 -0.0352
 4660TIP3   OH235394   0.013   4.979  12.587 -0.1223 -0.3178 -0.0757
 4660TIP3    H135395  -0.065   4.927  12.566 -0.9505  0.6957  0.3912
 4660TIP3    H235396   0.015   4.981  12.683  1.5226 -1.8289 -0.0433
 4661TIP3   OH235397   5.916   5.229  15.072  0.2519  0.7756 -0.0227
 4661TIP3    H135398   5.905   5.265  14.984  1.9829  2.4920  0.3694
 4661TIP3    H235399   5.991   5.278  15.108 -1.7684  1.8337  3.2257
 4662TIP3   OH235400   3.839   1.664   1.003 -0.3989 -0.2547  1.0620
 4662TIP3    H135401   3.898   1.692   1.074 -1.0778 -0.2746  1.6469
 4662TIP3    H235402   3.822   1.572   1.022  0.2187 -0.5399  0.2847
 4663TIP3   OH235403   0.984   5.811  13.969  0.2845 -0.9878 -0.2850
 4663TIP3    H135404   0.927   5.786  14.042 -1.1780  0.3120 -0.9121
 4663TIP3    H235405   1.007   5.728  13.928 -0.5606 -1.6104  0.4489
 4664TIP3   OH235406   3.691   3.288  12.660 -0.3194 -0.1370  0.2630
 4664TIP3    H135407   3.621   3.282  12.594 -0.2576 -0.7185  0.2442
 4664TIP3    H235408   3.646   3.310  12.741 -0.1689  2.9240 -0.3850
 4665TIP3   OH235409   4.565   2.840  16.809 -0.1885  0.0178  0.7532
 4665TIP3    H135410   4.614   2.906  16.759  0.5382 -0.8607  0.2705
 4665TIP3    H235411   4.579   2.865  16.900  0.0475  0.5565  0.5784
 4666TIP3   OH235412   6.215   2.626  15.774 -0.2169 -0.3472  0.0638
 4666TIP3    H135413   6.276   2.641  15.701 -0.0568  2.6736  0.6852
 4666TIP3    H235414   6.133   2.667  15.745 -0.9771 -1.4718  0.5548
 4667TIP3   OH235415   2.696   4.040  16.378 -0.5069  0.5784 -0.7437
 4667TIP3    H135416   2.665   4.129  16.361  0.0929  0.8662 -0.3759
 4667TIP3    H235417   2.655   4.015  16.461  1.5868  1.6537  0.7080
 4668TIP3   OH235418   5.581   5.056   0.470 -0.0093  0.8425 -0.4456
 4668TIP3    H135419   5.639   5.084   0.541 -0.2144  1.4655 -0.5114
 4668TIP3    H235420   5.610   4.968   0.447 -0.5158  0.2561  1.0347
 4669TIP3   OH235421   0.292   4.694   1.290  0.4850  0.0206 -0.6290
 4669TIP3    H135422   0.308   4.607   1.253 -0.1734 -0.7951  0.9399
 4669TIP3    H235423   0.378   4.735   1.293  1.2133 -1.5055  0.8538
 4670TIP3   OH235424   3.372   0.212   1.518 -0.2710 -0.0575  0.0225
 4670TIP3    H135425   3.358   0.247   1.606 -0.3756 -1.1187  0.4413
 4670TIP3    H235426   3.365   0.288   1.460  2.3759  1.1779  1.1343
 4671TIP3   OH235427   0.176   0.515   1.680 -0.5412 -0.0178  0.5591
 4671TIP3    H135428   0.182   0.424   1.652 -1.3878 -0.6054  2.1809
 4671TIP3    H235429   0.154   0.511   1.773  2.0696  1.8011  1.3968
 4672TIP3   OH235430   5.981   1.336   1.829 -0.1700 -0.3792  0.8089
 4672TIP3    H135431   5.970   1.314   1.736  0.6739 -0.9343  0.8252
 4672TIP3    H235432   6.002   1.253   1.871  1.2909  0.1427  1.1777
 4673TIP3   OH235433   6.336   0.221  12.742 -0.0822  0.0633  0.0985
 4673TIP3    H135434   6.399   0.278  12.698  0.4133  0.0452  0.7660
 4673TIP3    H235435   6.336   0.140  12.691  2.4754 -0.9710  1.6042
 4674TIP3   OH235436   1.627   0.314  11.882 -0.8298 -0.2252  0.0902
 4674TIP3    H135437   1.670   0.273  11.807 -1.9322  0.7635 -1.1303
 4674TIP3    H235438   1.621   0.407  11.859  0.4644  0.4497  2.2411
 4675TIP3   OH235439   3.469   4.008   5.549 -0.2708  0.4332  0.3262
 4675TIP3    H135440   3.470   3.916   5.577  0.2606  1.0276  2.4836
 4675TIP3    H235441   3.557   4.040   5.570 -0.6120  1.5710  0.0821
 4676TIP3   OH235442   5.830   0.007   4.511 -0.3743 -0.1886 -0.4920
 4676TIP3    H135443   5.755   0.063   4.489 -1.8450 -0.4270  3.0686
 4676TIP3    H235444   5.806  -0.080   4.479 -1.5022 -0.1767  0.2496
 4677TIP3   OH235445   2.070   1.141   1.852 -0.0558  0.2003 -0.0392
 4677TIP3    H135446   2.025   1.074   1.801 -0.8344  0.8029 -0.1782
 4677TIP3    H235447   2.037   1.131   1.941  1.1006 -0.6770  0.3066
 4678TIP3   OH235448   0.551   2.584   4.215 -0.3443 -0.6156  0.5576
 4678TIP3    H135449   0.553   2.634   4.297 -2.3706 -4.1663  3.1223
 4678TIP3    H235450   0.625   2.523   4.223 -2.3399 -3.1323  1.5501
 4679TIP3   OH235451   1.396   5.176   2.687  0.1093 -0.9790  0.4568
 4679TIP3    H135452   1.345   5.255   2.665  0.4763  0.0192  2.8969
 4679TIP3    H235453   1.373   5.113   2.619 -2.9116  0.0669  0.3599
 4680TIP3   OH235454   1.810   3.472  10.552 -0.0819 -0.0848 -0.0117
 4680TIP3    H135455   1.747   3.408  10.518 -0.3100  0.0452  0.1636
 4680TIP3    H235456   1.861   3.497  10.475  1.6499 -2.2855  0.3385
 4681TIP3   OH235457   0.913   3.117   5.988 -0.2068 -0.0287  0.3895
 4681TIP3    H135458   0.923   3.031   6.028  1.8491  0.6070  1.4109
 4681TIP3    H235459   0.853   3.163   6.046 -1.2563 -0.7230 -0.1212
 4682TIP3   OH235460   5.293   0.264  16.977 -0.9411 -0.6071 -0.4934
 4682TIP3    H135461   5.386   0.264  16.953 -0.9650 -0.1360 -0.5910
 4682TIP3    H235462   5.248   0.236  16.897 -0.8644 -1.1797 -0.3451
 4683TIP3   OH235463   5.209   3.662   3.826  0.1201  0.6062  0.3853
 4683TIP3    H135464   5.273   3.674   3.897  1.0630  0.6838 -0.4529
 4683TIP3    H235465   5.254   3.607   3.762 -0.2015  1.6198 -0.7607
 4684TIP3   OH235466   2.151   5.600   2.455 -0.3331  0.2713  0.1346
 4684TIP3    H135467   2.216   5.569   2.519 -0.9871 -3.4621 -0.7725
 4684TIP3    H235468   2.200   5.607   2.373 -0.3385  1.1547  0.1963
 4685TIP3   OH235469   1.354   4.832   2.186 -0.2955  0.2016 -0.3616
 4685TIP3    H135470   1.292   4.902   2.207  1.7915  2.7217 -1.9866
 4685TIP3    H235471   1.371   4.844   2.092  2.2394 -0.6949 -0.0665
 4686TIP3   OH235472   1.550   6.560   1.642  0.5240  0.7525 -0.0902
 4686TIP3    H135473   1.598   6.567   1.725  0.5103  1.3366 -0.1288
 4686TIP3    H235474   1.462   6.592   1.663  0.2803  0.1219 -0.1342
 4687TIP3   OH235475   0.378   2.298  12.430  0.2360 -0.3795 -0.2313
 4687TIP3    H135476   0.390   2.286  12.524  0.0896  0.5135 -0.0929
 4687TIP3    H235477   0.467   2.292  12.393  0.2245 -1.4172 -0.1373
 4688TIP3   OH235478   6.730   3.491  15.659  0.0070 -0.1534 -0.4724
 4688TIP3    H135479   6.755   3.474  15.568 -0.7277 -1.8243 -0.3996
 4688TIP3    H235480   6.651   3.545  15.653  0.3638  0.3373 -0.8045
 4689TIP3   OH235481   5.085   3.794   5.832  0.2181  0.1914  0.1943
 4689TIP3    H135482   5.020   3.850   5.874 -0.8072  0.4129 -1.5667
 4689TIP3    H235483   5.035   3.721   5.797  1.2864 -0.9028  0.8693
 4690TIP3   OH235484   2.943   4.026  11.409 -0.4956  0.5047  0.2274
 4690TIP3    H135485   2.919   4.008  11.500 -0.7637 -0.4028 -0.0078
 4690TIP3    H235486   2.868   3.995  11.358  0.8033 -1.7496 -0.4809
 4691TIP3   OH235487   5.289   2.601  15.627  0.0782  0.0580 -0.2186
 4691TIP3    H135488   5.322   2.518  15.661 -1.1642 -0.3508  0.0536
 4691TIP3    H235489   5.234   2.576  15.553 -0.3393  0.6309 -0.1097
 4692TIP3   OH235490   5.052   1.698  14.030  0.2228 -0.3353  0.2915
 4692TIP3    H135491   5.048   1.669  13.939 -1.6302  0.7485 -0.0203
 4692TIP3    H235492   4.986   1.646  14.075  0.7027 -0.4303  0.8996
 4693TIP3   OH235493   6.350   0.995   4.703 -0.0051 -0.1603 -0.4824
 4693TIP3    H135494   6.355   0.902   4.679  0.0381  0.5007 -3.3173
 4693TIP3    H235495   6.257   1.010   4.721  0.0880 -0.8679  0.7461
 4694TIP3   OH235496   2.776   1.252  13.933 -0.1186  0.2053 -1.0603
 4694TIP3    H135497   2.696   1.217  13.894 -0.5112  0.3392 -0.3811
 4694TIP3    H235498   2.762   1.248  14.027  0.6799  0.2251 -0.9270
 4695TIP3   OH235499   2.574   5.924  12.569 -0.0899  0.2253  0.0136
 4695TIP3    H135500   2.651   5.883  12.608 -0.8429 -1.7048 -0.4075
 4695TIP3    H235501   2.600   5.941  12.478  0.5549  1.6463  0.4439
 4696TIP3   OH235502   1.204   4.404  10.888  0.1667 -0.6074  0.2789
 4696TIP3    H135503   1.149   4.412  10.966  0.8474 -1.0241  0.8152
 4696TIP3    H235504   1.272   4.341  10.912 -0.0135 -1.2883 -0.8911
 4697TIP3   OH235505   1.655   4.934   1.631  0.2576 -0.1316  0.2757
 4697TIP3    H135506   1.658   5.015   1.681 -2.3136  0.3237 -0.1911
 4697TIP3    H235507   1.622   4.959   1.545  0.9586 -1.4654 -0.4290
 4698TIP3   OH235508   5.310   4.986  16.073 -0.4999  0.6598  0.7122
 4698TIP3    H135509   5.383   5.013  16.017 -0.5807  0.7097  0.6299
 4698TIP3    H235510   5.321   4.892  16.083 -0.6964  0.5902  0.3079
 4699TIP3   OH235511   6.695   1.422   6.503  0.4586  0.7427  0.5906
 4699TIP3    H135512   6.773   1.459   6.544  1.1696 -0.3863  0.2857
 4699TIP3    H235513   6.726   1.345   6.456 -1.2947 -1.6584  3.1036
 4700TIP3   OH235514   6.464   6.174   4.652  0.3156  0.3260  0.3567
 4700TIP3    H135515   6.407   6.193   4.726  0.2539  1.2754  0.0863
 4700TIP3    H235516   6.547   6.147   4.691 -0.8690 -3.1901  0.7955
 4701TIP3   OH235517   1.027   0.829   4.539 -0.9500 -0.2554 -0.4357
 4701TIP3    H135518   0.957   0.823   4.604 -0.1078  1.4112  0.7157
 4701TIP3    H235519   1.092   0.764   4.568 -1.5347 -1.0578 -0.8981
 4702TIP3   OH235520   5.744   2.797  12.868  0.6182  0.2817 -0.5585
 4702TIP3    H135521   5.822   2.844  12.838  1.3015  0.0371  0.7405
 4702TIP3    H235522   5.760   2.706  12.842  0.4632  0.3451 -0.8725
 4703TIP3   OH235523   5.607   1.033  15.846 -0.3064 -0.5210  0.2424
 4703TIP3    H135524   5.604   0.950  15.893 -0.3808 -1.2763 -1.0396
 4703TIP3    H235525   5.568   1.096  15.906  1.3226 -1.0440  1.9371
 4704TIP3   OH235526   5.649   0.039   0.850 -0.4145 -0.1612 -0.2157
 4704TIP3    H135527   5.562   0.002   0.864 -0.1017 -1.1545 -0.7903
 4704TIP3    H235528   5.706  -0.037   0.836  0.5339  0.4745  0.0725
 4705TIP3   OH235529   5.270   1.555  16.015  0.7661  0.0052  0.2405
 4705TIP3    H135530   5.297   1.523  16.101 -2.4103 -3.3483  0.2321
 4705TIP3    H235531   5.179   1.584  16.028  0.4652  0.1098 -1.8367
 4706TIP3   OH235532   2.841   2.124  14.885  0.2695 -0.1355 -0.4328
 4706TIP3    H135533   2.798   2.084  14.809  1.5712  0.1852 -1.3629
 4706TIP3    H235534   2.872   2.050  14.937 -1.5468 -0.3848  0.3796
 4707TIP3   OH235535   3.247   0.130   2.074 -0.3924 -0.3848  0.4967
 4707TIP3    H135536   3.273   0.065   2.009 -0.9294  1.2570 -1.4525
 4707TIP3    H235537   3.153   0.115   2.086 -0.2537 -0.8242  1.0928
 4708TIP3   OH235538   2.655   3.328   2.397  0.6658  0.5953 -0.0796
 4708TIP3    H135539   2.561   3.324   2.381  0.5026  1.7118  0.4787
 4708TIP3    H235540   2.662   3.357   2.488  1.5530  0.4036 -0.0810
 4709TIP3   OH235541   2.123   4.811   2.405 -0.3666 -0.0350 -0.1410
 4709TIP3    H135542   2.133   4.875   2.476 -0.5037 -0.1598 -0.0090
 4709TIP3    H235543   2.031   4.817   2.380 -0.2693  0.1636 -0.4570
 4710TIP3   OH235544   3.646   4.895  16.631 -0.2814  0.2280 -0.2979
 4710TIP3    H135545   3.688   4.980  16.647 -0.4501  0.0116  1.5215
 4710TIP3    H235546   3.705   4.831  16.671 -1.3756 -0.2567  0.6030
 4711TIP3   OH235547   0.421   5.514   4.555  0.0998 -0.2396  0.0366
 4711TIP3    H135548   0.509   5.522   4.591 -0.3222 -0.3871  1.1388
 4711TIP3    H235549   0.435   5.506   4.461  1.0920  3.0695 -0.2351
 4712TIP3   OH235550   4.920   5.804   1.666  0.3268  0.0126 -0.1813
 4712TIP3    H135551   4.979   5.869   1.703 -1.0830  1.1905  0.0759
 4712TIP3    H235552   4.900   5.837   1.578  0.8769 -0.9388 -0.6829
 4713TIP3   OH235553   0.465   3.258  11.611 -0.5106  0.3935 -0.0296
 4713TIP3    H135554   0.493   3.242  11.521 -0.0957  1.2003 -0.0528
 4713TIP3    H235555   0.515   3.335  11.638 -0.5768  0.1131  0.9174
 4714TIP3   OH235556   5.633   1.160   2.006  0.0063  0.1130 -0.4405
 4714TIP3    H135557   5.564   1.180   1.943  0.0624 -1.7539 -1.1608
 4714TIP3    H235558   5.667   1.075   1.978  1.3328  0.1273  0.9999
 4715TIP3   OH235559   3.626   6.374  11.092  0.1237  0.0671 -0.1665
 4715TIP3    H135560   3.553   6.352  11.035 -0.1636 -3.1924  1.2744
 4715TIP3    H235561   3.702   6.336  11.048  0.6202  1.3056 -0.4316
 4716TIP3   OH235562   0.310   6.527   6.402 -0.2091  0.7006  0.0519
 4716TIP3    H135563   0.340   6.454   6.456  0.6720  0.4035 -0.7940
 4716TIP3    H235564   0.223   6.501   6.372 -0.2790  0.4120  0.5012
 4717TIP3   OH235565   2.455   4.374   2.380  0.0929 -0.2392  0.1375
 4717TIP3    H135566   2.404   4.437   2.330  1.5563  0.9971  0.1246
 4717TIP3    H235567   2.533   4.423   2.407  0.0904 -1.3059  2.2872
 4718TIP3   OH235568   2.161   5.218   2.497  0.1498 -0.4939  0.0484
 4718TIP3    H135569   2.240   5.217   2.550  0.6619 -1.2581 -0.7008
 4718TIP3    H235570   2.193   5.227   2.407 -0.6604 -0.0306 -0.2021
 4719TIP3   OH235571   1.281   6.728   3.473  0.1618  0.7709 -0.3614
 4719TIP3    H135572   1.292   6.802   3.412 -2.0262  1.5685  0.1184
 4719TIP3    H235573   1.227   6.763   3.544  1.5490 -0.5119  1.4029
 4720TIP3   OH235574   3.402   6.204  11.963 -0.3501 -0.2332  0.4075
 4720TIP3    H135575   3.466   6.142  11.998  4.2178  2.7207 -1.7587
 4720TIP3    H235576   3.356   6.236  12.041  1.6284 -1.6986  2.3207
 4721TIP3   OH235577   3.023   3.435   4.158  0.3782  0.3126 -0.1311
 4721TIP3    H135578   3.002   3.434   4.064 -1.3754 -1.8196  0.1793
 4721TIP3    H235579   3.111   3.398   4.163  1.1195  1.8667 -0.9981
 4722TIP3   OH235580   5.007   5.864   2.024  0.0030  0.1728 -0.6909
 4722TIP3    H135581   5.022   5.899   1.937 -0.5377  0.5850 -0.6227
 4722TIP3    H235582   5.024   5.938   2.083 -0.7834  0.2289 -0.5249
 4723TIP3   OH235583   1.399   5.490  14.310 -0.4379 -0.3122 -0.2840
 4723TIP3    H135584   1.352   5.450  14.383 -1.9083 -1.4181 -1.7481
 4723TIP3    H235585   1.444   5.416  14.268  0.5818  0.3475 -0.3777
 4724TIP3   OH235586   0.799   5.662  12.528  0.4265 -0.3705 -0.3177
 4724TIP3    H135587   0.854   5.705  12.594 -1.1457  0.8498  0.2877
 4724TIP3    H235588   0.766   5.584  12.572 -0.5090  0.3700  0.3542
 4725TIP3   OH235589   1.282   4.234   2.655 -0.3910  0.2132  0.4054
 4725TIP3    H135590   1.337   4.203   2.726  2.0110  0.1632 -1.3489
 4725TIP3    H235591   1.311   4.184   2.579 -2.3510  0.7785 -0.7770
 4726TIP3   OH235592   2.047   0.982  11.064 -0.1727  0.1836 -0.3620
 4726TIP3    H135593   2.107   0.908  11.058  0.9136  0.8120  1.6560
 4726TIP3    H235594   2.084   1.048  11.006  0.2756  0.0397 -0.2431
 4727TIP3   OH235595   0.969   5.978  15.126  0.5306  0.0715 -0.0897
 4727TIP3    H135596   0.937   6.042  15.190 -1.0161  0.5829 -1.3216
 4727TIP3    H235597   0.928   5.896  15.152  2.7948 -0.5917  1.7054
 4728TIP3   OH235598   3.339   4.121  16.338 -0.1110 -0.1168  0.5472
 4728TIP3    H135599   3.327   4.076  16.255  1.2431  0.3008  0.0879
 4728TIP3    H235600   3.323   4.213  16.319 -4.2085 -0.3854  1.7721
 4729TIP3   OH235601   5.205   1.139   0.443  0.6068  0.8763 -0.0657
 4729TIP3    H135602   5.281   1.162   0.497 -0.0722  2.1280  0.3893
 4729TIP3    H235603   5.187   1.217   0.391  2.0440 -0.6897 -3.1985
 4730TIP3   OH235604   5.508   2.400  14.238  0.1626 -0.0761  0.1145
 4730TIP3    H135605   5.436   2.435  14.186  1.1043  0.5567 -0.8199
 4730TIP3    H235606   5.466   2.354  14.311 -1.1816 -0.5777 -0.9446
 4731TIP3   OH235607   5.795   1.711   4.496  0.0164  0.0052  0.0569
 4731TIP3    H135608   5.855   1.769   4.450  0.0174 -0.3594 -0.4117
 4731TIP3    H235609   5.730   1.770   4.536  1.6944  0.5611  2.1340
 4732TIP3   OH235610   4.887   0.570  13.427  0.3874 -0.1060  0.0046
 4732TIP3    H135611   4.972   0.528  13.410  1.0137  0.8075  0.7471
 4732TIP3    H235612   4.857   0.530  13.509 -0.0765 -0.6697 -0.4290
 4733TIP3   OH235613   2.425   2.109  15.558 -0.0521 -0.1178 -0.1795
 4733TIP3    H135614   2.375   2.106  15.477 -1.5249 -2.5940  0.7140
 4733TIP3    H235615   2.409   2.198  15.592 -2.3617 -0.1869 -0.8718
 4734TIP3   OH235616   5.050   4.597  17.070  0.4132 -0.1558  0.1539
 4734TIP3    H135617   4.972   4.542  17.068  0.7181 -0.6511  1.3101
 4734TIP3    H235618   5.020   4.681  17.104  0.3789 -0.3492  0.6089
 4735TIP3   OH235619   4.919   4.425  16.476 -0.0190  0.3706 -0.6308
 4735TIP3    H135620   4.928   4.498  16.538  1.6668  0.2769 -0.7245
 4735TIP3    H235621   4.965   4.352  16.518  0.1753 -0.0096 -1.4923
 4736TIP3   OH235622   0.590   0.976  12.439 -0.6334 -0.3593  0.3179
 4736TIP3    H135623   0.538   1.044  12.483 -0.0049 -0.7447  1.7167
 4736TIP3    H235624   0.528   0.906  12.422 -1.0600  0.1265 -0.1605
 4737TIP3   OH235625   5.764   4.732   1.959 -0.2376 -0.2094  0.1036
 4737TIP3    H135626   5.794   4.657   2.010  1.8647 -0.4120 -1.3182
 4737TIP3    H235627   5.796   4.808   2.008 -2.2020 -0.1587  1.4401
 4738TIP3   OH235628   0.747   6.461  12.923 -0.4538  0.3898  0.2856
 4738TIP3    H135629   0.686   6.409  12.975 -0.9271 -0.5567 -1.1667
 4738TIP3    H235630   0.831   6.451  12.968 -1.2731  1.5434  2.1955
 4739TIP3   OH235631   4.337   0.856  15.012 -0.4459 -0.4745  0.3621
 4739TIP3    H135632   4.256   0.835  14.966 -1.1795  0.6443  1.0962
 4739TIP3    H235633   4.340   0.794  15.085 -0.8757 -0.2219  0.5960
 4740TIP3   OH235634   5.031   2.967  14.488 -0.2395  0.2926  0.2296
 4740TIP3    H135635   5.018   2.879  14.522 -1.0401  0.7554  1.1760
 4740TIP3    H235636   4.966   3.020  14.533  2.0787  1.9288  1.9263
 4741TIP3   OH235637   3.120   2.345   1.896  0.0464 -0.4904 -0.0267
 4741TIP3    H135638   3.075   2.429   1.890 -0.8607 -0.9764 -0.3050
 4741TIP3    H235639   3.099   2.301   1.814  0.6660 -0.9147  0.0366
 4742TIP3   OH235640   0.262   3.285  15.020  0.2867  0.0581 -0.2580
 4742TIP3    H135641   0.291   3.366  14.978 -1.3532  0.2574 -1.0841
 4742TIP3    H235642   0.200   3.247  14.958 -0.5234 -0.7896  1.0341
 4743TIP3   OH235643   6.386   1.070  16.760 -0.1071  0.4026  0.0571
 4743TIP3    H135644   6.413   1.044  16.848 -1.0119 -0.8198  0.0036
 4743TIP3    H235645   6.463   1.113  16.723  0.7857 -0.4106  0.9071
 4744TIP3   OH235646   1.122   4.540  13.455 -0.2655 -0.4083 -0.0159
 4744TIP3    H135647   1.091   4.629  13.435  0.6312  0.2155  1.2645
 4744TIP3    H235648   1.215   4.551  13.475  0.2484 -1.8972 -1.4147
 4745TIP3   OH235649   1.311   3.041   0.660 -0.3132  0.1945  0.2679
 4745TIP3    H135650   1.338   2.954   0.631 -0.9612 -0.5247  1.6783
 4745TIP3    H235651   1.230   3.025   0.709 -0.8064  1.6905 -0.0200
 4746TIP3   OH235652   1.296   0.212  13.234  0.6081  0.0879 -0.2598
 4746TIP3    H135653   1.356   0.164  13.292  0.4502  0.0358 -0.1384
 4746TIP3    H235654   1.209   0.183  13.261  0.5435 -0.1558 -0.7193
 4747TIP3   OH235655   2.639   6.257  15.900  0.1422  0.2494  0.5707
 4747TIP3    H135656   2.642   6.172  15.856  2.2632  0.6355 -0.1845
 4747TIP3    H235657   2.710   6.253  15.964 -0.0528  1.2782  0.8718
 4748TIP3   OH235658   3.340   1.382  15.308 -0.1049 -0.1799 -0.7615
 4748TIP3    H135659   3.359   1.341  15.224 -2.2093 -0.5940 -1.0973
 4748TIP3    H235660   3.298   1.465  15.284 -1.1619 -0.5209 -0.1564
 4749TIP3   OH235661   3.890   5.480  16.909 -0.0051  0.2717  0.5728
 4749TIP3    H135662   3.869   5.432  16.989 -0.6219  0.0656  0.2946
 4749TIP3    H235663   3.928   5.562  16.940 -1.5926  0.8381  1.1305
 4750TIP3   OH235664   3.652   4.179   3.111  0.6011 -0.1336 -0.0920
 4750TIP3    H135665   3.734   4.212   3.149 -0.1059  2.4431 -0.5492
 4750TIP3    H235666   3.588   4.185   3.182  0.7892 -2.3431  0.3257
 4751TIP3   OH235667   0.568   1.866   0.135 -0.3656 -0.7939 -0.1149
 4751TIP3    H135668   0.658   1.891   0.111 -0.9346 -0.1415 -1.6893
 4751TIP3    H235669   0.532   1.945   0.175 -0.5809 -0.7029 -0.4880
 4752TIP3   OH235670   5.725   3.568   4.680 -0.2051  0.0464 -0.6026
 4752TIP3    H135671   5.704   3.612   4.762 -1.2570 -0.0987 -0.7681
 4752TIP3    H235672   5.781   3.495   4.705  1.8012  1.5905 -0.3536
 4753TIP3   OH235673   3.485   4.279   4.807  0.2896 -0.4246 -0.0600
 4753TIP3    H135674   3.390   4.274   4.802  0.2183  0.0101  0.6991
 4753TIP3    H235675   3.508   4.230   4.886  0.9310 -2.7635 -1.6168
 4754TIP3   OH235676   5.653   0.423   4.956 -0.5971  0.2353  0.5923
 4754TIP3    H135677   5.638   0.381   4.871  0.5376  1.2766 -0.1502
 4754TIP3    H235678   5.597   0.501   4.955  0.1208  0.7568  0.3964
 4755TIP3   OH235679   0.271   3.434  16.017  0.1946  0.2609  0.5147
 4755TIP3    H135680   0.364   3.454  16.032  0.3803 -0.1665 -0.0096
 4755TIP3    H235681   0.270   3.390  15.932 -0.6011  1.0504  0.1003
 4756TIP3   OH235682   1.596   2.792  15.201 -0.1097 -0.2919 -0.7274
 4756TIP3    H135683   1.564   2.821  15.116  1.2822  0.2417 -1.1011
 4756TIP3    H235684   1.632   2.704  15.184 -1.6708 -1.0565 -0.2293
 4757TIP3   OH235685   6.409   3.183   0.829  0.0179  0.2710  0.1196
 4757TIP3    H135686   6.371   3.135   0.756 -1.3558 -0.4426  1.2541
 4757TIP3    H235687   6.374   3.271   0.821 -2.1348 -0.3989  1.2114
 4758TIP3   OH235688   1.397   1.287  12.601 -0.0747 -0.7581  0.3193
 4758TIP3    H135689   1.492   1.281  12.596  0.0488  1.4604 -1.2786
 4758TIP3    H235690   1.366   1.265  12.513 -0.7587  1.6765 -0.1125
 4759TIP3   OH235691   0.902   2.522   3.902 -0.0219 -0.0262  0.3812
 4759TIP3    H135692   0.933   2.521   3.992  2.6741  1.3834 -0.4045
 4759TIP3    H235693   0.948   2.450   3.859 -1.1646 -0.5950  0.0894
 4760TIP3   OH235694   2.864   5.850   2.065 -0.4104  0.6920 -0.0793
 4760TIP3    H135695   2.858   5.755   2.075 -0.0221  0.6503 -0.2438
 4760TIP3    H235696   2.889   5.864   1.974 -2.6180  1.0361 -0.6919
 4761TIP3   OH235697   1.968   3.348   5.847  0.0474 -0.2516  0.1687
 4761TIP3    H135698   1.940   3.325   5.935  1.6705 -0.8401  0.5775
 4761TIP3    H235699   2.059   3.318   5.843 -0.0319 -0.3377 -1.7509
 4762TIP3   OH235700   1.011   3.272   3.113  0.2474  0.5940 -0.2509
 4762TIP3    H135701   0.981   3.307   3.030 -1.3219 -0.6717 -0.2420
 4762TIP3    H235702   0.938   3.221   3.147  2.2857 -2.5035 -0.1262
 4763TIP3   OH235703   0.060   5.747  15.135  0.3543  0.0897 -0.0041
 4763TIP3    H135704   0.120   5.710  15.070 -1.2611 -1.0801 -0.8739
 4763TIP3    H235705   0.014   5.672  15.171 -0.1552  0.9147  1.1103
 4764TIP3   OH235706   5.770   4.888  13.169 -0.0143 -0.5995 -0.5547
 4764TIP3    H135707   5.689   4.931  13.142 -0.3706 -1.4544 -0.8832
 4764TIP3    H235708   5.742   4.821  13.231  0.6515  0.3974  0.8672
 4765TIP3   OH235709   1.242   2.573   4.303 -0.2805 -0.0258  0.1750
 4765TIP3    H135710   1.298   2.608   4.373 -1.3196  0.0934  0.9677
 4765TIP3    H235711   1.271   2.620   4.224  1.6245 -0.9177  0.2768
 4766TIP3   OH235712   6.322   2.405  12.450 -0.1527 -0.1899 -0.1251
 4766TIP3    H135713   6.381   2.449  12.511 -0.1873 -2.1050  1.3805
 4766TIP3    H235714   6.367   2.323  12.429 -1.6791 -1.0956  0.0166
 4767TIP3   OH235715   2.127   6.145   2.741 -0.0001  0.7989  0.4888
 4767TIP3    H135716   2.051   6.088   2.754 -0.9342  2.2892  2.0448
 4767TIP3    H235717   2.135   6.154   2.646 -0.5179 -0.9628  0.2486
 4768TIP3   OH235718   6.554   0.424  12.256  0.1081 -0.0421  0.3350
 4768TIP3    H135719   6.524   0.348  12.306 -0.1190 -0.0394  0.2079
 4768TIP3    H235720   6.522   0.407  12.167 -2.5593  1.5977  0.8918
 4769TIP3   OH235721   2.663   0.998  15.880 -0.3493  0.5859  0.1469
 4769TIP3    H135722   2.677   1.051  15.802  0.2458 -0.0575 -0.1954
 4769TIP3    H235723   2.744   0.948  15.890 -0.7590  0.0110  0.6659
 4770TIP3   OH235724   4.252   1.221   1.670 -0.5222 -0.7565  0.1867
 4770TIP3    H135725   4.323   1.247   1.728  0.9837  1.6190 -2.5069
 4770TIP3    H235726   4.279   1.135   1.636 -0.2403 -1.0356  1.0768
 4771TIP3   OH235727   1.893   2.258  15.513 -0.1483  0.2435  0.0855
 4771TIP3    H135728   1.833   2.184  15.509  0.8352 -0.6864  1.6443
 4771TIP3    H235729   1.955   2.236  15.582  1.5533  1.5004 -0.9463
 4772TIP3   OH235730   5.565   3.878  12.533 -0.0730 -0.2280 -0.4444
 4772TIP3    H135731   5.481   3.833  12.525 -0.8048  1.2903 -2.2601
 4772TIP3    H235732   5.579   3.917  12.446  1.8330  0.6985  0.2266
 4773TIP3   OH235733   0.681   6.194  13.381 -0.3624  0.0603 -0.1399
 4773TIP3    H135734   0.665   6.113  13.332  0.5391 -0.1659 -0.0629
 4773TIP3    H235735   0.645   6.177  13.468 -1.4117  0.2434 -0.5122
 4774TIP3   OH235736   4.653   1.893  13.560  0.0134  0.0582 -0.0327
 4774TIP3    H135737   4.701   1.821  13.601 -1.0528 -0.7445 -0.1501
 4774TIP3    H235738   4.672   1.969  13.615 -1.7726 -1.0787  2.3193
 4775TIP3   OH235739   2.298   2.397  11.732 -0.2333 -0.7776 -0.1758
 4775TIP3    H135740   2.283   2.393  11.827  0.4690 -0.5814 -0.0549
 4775TIP3    H235741   2.392   2.385  11.721  0.2746  2.4807 -0.5700
 4776TIP3   OH235742   1.134   0.742   4.795  0.0117 -0.1174  0.1206
 4776TIP3    H135743   1.199   0.794   4.842 -0.4833 -0.3991  1.1474
 4776TIP3    H235744   1.063   0.728   4.859 -0.1516 -1.4958 -0.3284
 4777TIP3   OH235745   2.503   4.964   5.965  0.3706  0.4132 -0.2351
 4777TIP3    H135746   2.431   5.007   6.011 -0.5403 -1.4337  0.1435
 4777TIP3    H235747   2.479   4.872   5.962  2.9604 -0.3875  0.4144
 4778TIP3   OH235748   3.253   0.853   2.964  0.1614 -0.2163 -0.2089
 4778TIP3    H135749   3.309   0.853   3.042 -0.9353 -3.6003  0.7855
 4778TIP3    H235750   3.166   0.873   2.998 -0.1932 -0.9522 -0.6585
 4779TIP3   OH235751   3.861   1.750  14.031  0.0767 -0.0302  0.0597
 4779TIP3    H135752   3.839   1.659  14.050  0.5854  0.2058  1.9777
 4779TIP3    H235753   3.927   1.774  14.096  1.0991  1.2760 -1.3561
 4780TIP3   OH235754   6.755   3.168  11.348 -0.1215  0.7405  0.1937
 4780TIP3    H135755   6.832   3.132  11.304 -0.6405  0.6386 -0.6557
 4780TIP3    H235756   6.739   3.251  11.303 -1.4300  0.0310 -0.7336
 4781TIP3   OH235757   5.107   0.307  15.063 -0.1711  0.2250  0.1362
 4781TIP3    H135758   5.095   0.399  15.088 -3.7430 -0.8025  2.9716
 4781TIP3    H235759   5.021   0.280  15.030  0.5740 -2.3364  0.1285
 4782TIP3   OH235760   0.540   5.494   5.216  0.2255 -0.3682  0.7197
 4782TIP3    H135761   0.545   5.399   5.204  0.3563 -0.1426 -1.5115
 4782TIP3    H235762   0.627   5.526   5.189  0.5797  0.3228  2.5612
 4783TIP3   OH235763   2.999   3.129  13.149 -0.5800 -0.1269 -0.1980
 4783TIP3    H135764   2.972   3.219  13.166 -1.6389 -0.4146 -0.3054
 4783TIP3    H235765   3.039   3.100  13.231  0.1878  0.5736 -0.3056
 4784TIP3   OH235766   6.367   2.451  12.087 -0.4143  0.2587 -0.3663
 4784TIP3    H135767   6.455   2.467  12.053 -0.3649  0.7782 -0.0069
 4784TIP3    H235768   6.351   2.523  12.148 -0.0705 -1.1880  1.5258
 4785TIP3   OH235769   0.507   5.248  12.625 -0.0496  0.0190  0.4032
 4785TIP3    H135770   0.572   5.179  12.607 -0.4294 -0.2551  0.0518
 4785TIP3    H235771   0.428   5.217  12.581 -0.5384  0.1457  1.1888
 4786TIP3   OH235772   3.783   5.509   1.953 -0.0207  0.8274 -0.1329
 4786TIP3    H135773   3.708   5.539   1.901 -0.5229  1.4103  0.8959
 4786TIP3    H235774   3.791   5.416   1.933  0.7168  1.3097 -2.3560
 4787TIP3   OH235775   2.148   0.300   4.375 -0.0113  0.0416  0.0858
 4787TIP3    H135776   2.225   0.342   4.414  0.3511 -0.5323 -0.0019
 4787TIP3    H235777   2.122   0.233   4.438  1.2844 -1.6876 -1.1232
 4788TIP3   OH235778   5.336   5.679   2.358  0.9767 -0.1267 -0.2020
 4788TIP3    H135779   5.297   5.750   2.408  1.1332 -1.1942  1.4935
 4788TIP3    H235780   5.384   5.724   2.288  3.3037  1.6935  2.3230
 4789TIP3   OH235781   4.217   3.198  14.672 -1.2462 -0.3640 -0.2270
 4789TIP3    H135782   4.191   3.232  14.758  0.9137 -0.0332  0.3446
 4789TIP3    H235783   4.298   3.149  14.689  0.4850  1.5647 -2.3395
 4790TIP3   OH235784   6.687   0.874  13.287  0.2276 -0.4667 -0.0969
 4790TIP3    H135785   6.651   0.786  13.274  1.2359 -1.2269  1.8161
 4790TIP3    H235786   6.773   0.871  13.245  1.0139 -1.0136  1.4918
 4791TIP3   OH235787   2.309   0.026  15.046 -0.0861 -0.2387 -0.1717
 4791TIP3    H135788   2.369   0.078  14.993 -0.0776  1.5315  1.4700
 4791TIP3    H235789   2.339   0.038  15.136 -0.8909 -2.0638  0.4007
 4792TIP3   OH235790   0.736   1.250   1.826 -0.2979  0.5299 -0.1328
 4792TIP3    H135791   0.704   1.217   1.742 -1.1160  1.7962 -0.3475
 4792TIP3    H235792   0.721   1.179   1.887 -0.4635 -0.1074 -0.8996
 4793TIP3   OH235793   2.224   3.229   1.300  0.0326  0.2915  0.2509
 4793TIP3    H135794   2.301   3.177   1.280  0.5104  0.4222  1.6364
 4793TIP3    H235795   2.153   3.189   1.249  0.9191 -0.0478 -0.7486
 4794TIP3   OH235796   3.051   1.982   3.041 -0.2551 -0.1611 -0.2233
 4794TIP3    H135797   2.983   2.004   2.978  0.2926 -0.0279 -0.7888
 4794TIP3    H235798   3.048   1.886   3.046 -0.8425 -0.1244  0.1755
 4795TIP3   OH235799   2.904   5.648  16.280 -0.1512 -0.3556 -0.3842
 4795TIP3    H135800   2.964   5.588  16.325 -1.4032 -2.4544 -1.3895
 4795TIP3    H235801   2.961   5.704  16.227  0.9872 -1.5609 -0.4739
 4796TIP3   OH235802   0.230   2.334   4.908  0.4685 -0.3609 -0.7418
 4796TIP3    H135803   0.253   2.397   4.841  0.4506  0.6746  0.2045
 4796TIP3    H235804   0.153   2.289   4.873 -1.3792  2.1791 -0.2428
 4797TIP3   OH235805   2.955   3.237  15.563  0.5061  0.2253 -0.1117
 4797TIP3    H135806   2.913   3.323  15.556  2.8806  1.5803  1.0196
 4797TIP3    H235807   2.882   3.175  15.563 -1.2730  2.1688 -1.4755
 4798TIP3   OH235808   2.776   5.001  11.554  0.1822 -0.1678  0.1070
 4798TIP3    H135809   2.859   5.035  11.590  1.2771 -1.6058 -0.9243
 4798TIP3    H235810   2.745   4.940  11.621  2.0577 -2.6051 -1.0797
 4799TIP3   OH235811   1.507   1.888   4.884  0.1139  0.3982  0.8125
 4799TIP3    H135812   1.486   1.795   4.895 -0.9384  0.6740  1.3095
 4799TIP3    H235813   1.522   1.898   4.790  0.9113 -0.3926  0.8401
 4800TIP3   OH235814   1.449   5.598   2.745 -0.3051  0.0455 -0.6883
 4800TIP3    H135815   1.366   5.555   2.764 -0.0136  0.0734  0.7306
 4800TIP3    H235816   1.516   5.534   2.768  0.0954 -0.0488 -2.0044
 4801TIP3   OH235817   5.941   6.551  13.682 -0.0246 -0.5447  0.5910
 4801TIP3    H135818   5.857   6.596  13.693 -0.2832 -0.6092 -0.8838
 4801TIP3    H235819   5.921   6.476  13.627  1.2411  0.2733 -1.0660
 4802TIP3   OH235820   4.595   6.765   1.192 -0.1021  0.2313 -0.1819
 4802TIP3    H135821   4.565   6.717   1.114 -1.1278 -1.6417  1.2894
 4802TIP3    H235822   4.691   6.759   1.188 -0.1514 -0.2536 -1.0483
 4803TIP3   OH235823   3.099   5.473  16.056  0.5557 -0.4099  0.1799
 4803TIP3    H135824   3.165   5.426  16.108  2.3679  0.2099 -1.4582
 4803TIP3    H235825   3.060   5.405  16.000 -0.5274 -0.8434  1.3973
 4804TIP3   OH235826   1.258   5.577  12.487  0.4852  0.0915 -0.4019
 4804TIP3    H135827   1.234   5.641  12.420  1.3565  2.0284  1.0418
 4804TIP3    H235828   1.177   5.565  12.537  0.8650  2.0188  0.7994
 4805TIP3   OH235829   2.752   3.385  11.636  0.4916  0.2118 -0.0774
 4805TIP3    H135830   2.704   3.326  11.579 -0.4761 -0.6723  1.5818
 4805TIP3    H235831   2.841   3.350  11.637 -0.1665 -1.6032  1.2511
 4806TIP3   OH235832   1.385   3.330  13.750 -0.2399  0.4283 -0.5009
 4806TIP3    H135833   1.438   3.251  13.740 -1.3550 -0.3595 -0.3633
 4806TIP3    H235834   1.302   3.308  13.707 -1.7877  0.3001  2.3039
 4807TIP3   OH235835   1.911   4.406  13.423 -0.3523  0.4283  0.0659
 4807TIP3    H135836   1.869   4.322  13.440  3.3162 -1.3640  1.3426
 4807TIP3    H235837   1.957   4.394  13.339  2.3296  0.0725  1.4760
 4808TIP3   OH235838   0.842   4.307   3.096 -0.2254 -0.3876  0.0986
 4808TIP3    H135839   0.795   4.379   3.053 -0.4005  0.0033  0.9282
 4808TIP3    H235840   0.933   4.337   3.099 -0.0036 -0.8974 -0.9878
 4809TIP3   OH235841   6.045   0.677   3.205  0.4349  0.2103  0.0362
 4809TIP3    H135842   6.069   0.700   3.115  2.0776  0.9833  0.6121
 4809TIP3    H235843   6.046   0.761   3.252 -2.7945  0.1909  0.3315
 4810TIP3   OH235844   4.961   3.849  17.127  0.1777 -0.2550 -0.7081
 4810TIP3    H135845   4.980   3.786  17.057 -0.8927 -0.4418 -0.8573
 4810TIP3    H235846   4.866   3.864  17.120  0.0787 -0.1634  0.6013
 4811TIP3   OH235847   1.836   4.511   1.113 -0.3622 -0.4500  0.4224
 4811TIP3    H135848   1.743   4.530   1.126 -0.0511  0.4213  1.4899
 4811TIP3    H235849   1.845   4.419   1.136 -0.6791 -0.1191  1.9888
 4812TIP3   OH235850   1.549   1.735   3.369  0.5704 -0.6623  0.2513
 4812TIP3    H135851   1.458   1.708   3.368 -0.0745  1.2919  1.2007
 4812TIP3    H235852   1.566   1.761   3.459  2.3762 -1.9078  0.3107
 4813TIP3   OH235853   4.821   2.710   2.952 -0.4274 -0.2394 -0.6566
 4813TIP3    H135854   4.890   2.656   2.991  1.3075  1.3761 -1.3697
 4813TIP3    H235855   4.863   2.755   2.879 -1.6492  2.3277  0.0855
 4814TIP3   OH235856   1.956   1.930   5.067 -0.0496  0.3588  0.2168
 4814TIP3    H135857   1.978   2.018   5.037  1.6004 -0.5384 -1.3919
 4814TIP3    H235858   2.006   1.872   5.010  0.4112 -1.5828  2.4379
 4815TIP3   OH235859   0.590   2.965  16.886 -0.3031 -0.4373  0.1339
 4815TIP3    H135860   0.635   2.979  16.803  1.6957  2.3850  1.5318
 4815TIP3    H235861   0.602   2.872  16.905  2.4575 -0.3918 -1.0145
 4816TIP3   OH235862   5.331   0.930   3.355  0.3778 -0.1886 -0.1750
 4816TIP3    H135863   5.383   0.864   3.402  1.9707  0.5896 -0.7764
 4816TIP3    H235864   5.388   1.007   3.350 -0.8373  0.7050 -0.8980
 4817TIP3   OH235865   1.567   6.452  13.236 -0.4628 -0.0879 -0.1444
 4817TIP3    H135866   1.547   6.495  13.153 -1.4214  0.6385  0.4393
 4817TIP3    H235867   1.522   6.505  13.302 -0.0321 -0.8662  0.8038
 4818TIP3   OH235868   5.696   2.026  13.014  0.6181 -0.3215 -0.0199
 4818TIP3    H135869   5.745   2.100  13.049 -0.0567  0.2960 -0.3417
 4818TIP3    H235870   5.741   1.948  13.047  2.8189  0.1767 -1.6622
 4819TIP3   OH235871   3.213   2.430  13.958 -0.4625 -0.1792 -0.2476
 4819TIP3    H135872   3.214   2.524  13.976 -1.0433 -0.4332  1.2810
 4819TIP3    H235873   3.165   2.392  14.032  2.6918 -2.0273  1.0647
 4820TIP3   OH235874   4.009   6.062  12.190  0.3612  0.6313  0.2003
 4820TIP3    H135875   3.989   5.969  12.175 -1.5781  0.9850  0.3986
 4820TIP3    H235876   4.054   6.090  12.111 -0.7915 -0.0041 -0.7011
 4821TIP3   OH235877   5.146   5.904   4.802  0.1553  0.4920 -0.2376
 4821TIP3    H135878   5.065   5.954   4.793  0.0051  0.0144 -2.2379
 4821TIP3    H235879   5.149   5.851   4.722  0.8027 -1.9466  1.3062
 4822TIP3   OH235880   1.806   2.157  11.959  0.0304  0.3637  0.0790
 4822TIP3    H135881   1.882   2.181  12.011 -0.6084 -1.5885  2.0945
 4822TIP3    H235882   1.842   2.113  11.882  0.9594  1.4017 -0.1005
 4823TIP3   OH235883   5.576   6.332  12.286 -0.0265 -0.0990 -0.0373
 4823TIP3    H135884   5.491   6.310  12.323 -0.1275 -2.0032 -1.2532
 4823TIP3    H235885   5.555   6.367  12.199  0.4378 -0.5171 -0.3152
 4824TIP3   OH235886   1.196   0.471  15.152  0.1789 -0.6941 -0.2381
 4824TIP3    H135887   1.261   0.401  15.145 -0.0635 -1.2082  1.9493
 4824TIP3    H235888   1.117   0.434  15.112  0.3265 -1.2926  0.0158
 4825TIP3   OH235889   1.236   2.641   2.019 -0.0921 -0.2827 -0.3638
 4825TIP3    H135890   1.324   2.614   1.992  0.0139 -0.8791  0.5388
 4825TIP3    H235891   1.181   2.624   1.942  0.4890 -0.3950 -0.7611
 4826TIP3   OH235892   5.681   5.200   0.260  0.1339  0.1052 -0.3091
 4826TIP3    H135893   5.645   5.148   0.332  2.6496 -0.6469  0.5102
 4826TIP3    H235894   5.618   5.189   0.189  1.1169 -5.4836 -0.7681
 4827TIP3   OH235895   6.533   2.784   5.829 -0.4000  0.6408 -0.2397
 4827TIP3    H135896   6.485   2.814   5.906 -1.1273  1.7097 -1.0795
 4827TIP3    H235897   6.465   2.762   5.765  0.1615 -1.0877 -0.3181
 4828TIP3   OH235898   5.189   0.609  14.660 -0.5553 -0.7401 -0.3457
 4828TIP3    H135899   5.255   0.676  14.678 -0.2581 -0.6405 -1.7308
 4828TIP3    H235900   5.130   0.613  14.735  0.3278  0.0074  0.3287
 4829TIP3   OH235901   4.358   0.558   1.907 -0.2105 -0.2585 -0.4231
 4829TIP3    H135902   4.441   0.532   1.867  0.1157  0.0105  0.0657
 4829TIP3    H235903   4.317   0.476   1.934  1.4652 -0.2902  2.4220
 4830TIP3   OH235904   1.749   6.707   4.764 -0.9009 -0.4765 -0.1763
 4830TIP3    H135905   1.706   6.761   4.831  0.7713 -0.2607  0.7636
 4830TIP3    H235906   1.762   6.766   4.690 -1.6555 -0.3839 -0.2449
 4831TIP3   OH235907   6.143   4.749   6.270  0.1972 -0.3723  0.2564
 4831TIP3    H135908   6.066   4.806   6.269  0.3222 -0.1589  1.3729
 4831TIP3    H235909   6.209   4.796   6.219  0.1264  0.2447  0.7263
 4832TIP3   OH235910   3.750   4.500  13.053 -0.5071 -0.1915 -0.3118
 4832TIP3    H135911   3.729   4.408  13.039 -2.3873  0.2620 -0.6809
 4832TIP3    H235912   3.785   4.503  13.142 -1.1020 -1.1628 -0.0268
 4833TIP3   OH235913   0.710   5.451  11.624  1.0443  0.5701  0.2902
 4833TIP3    H135914   0.642   5.431  11.688  0.2707  1.3217 -0.2748
 4833TIP3    H235915   0.746   5.366  11.601 -1.8020 -0.2551 -1.6566
 4834TIP3   OH235916   1.574   4.654  12.895 -0.2717 -0.0809 -0.2463
 4834TIP3    H135917   1.584   4.588  12.964 -1.4815  1.5116  1.5759
 4834TIP3    H235918   1.551   4.604  12.817 -0.7808 -1.8465  0.9625
 4835TIP3   OH235919   3.305   2.745  15.468 -0.2594 -0.2099 -0.3408
 4835TIP3    H135920   3.346   2.666  15.432  1.9705 -0.0658  1.5567
 4835TIP3    H235921   3.271   2.792  15.393  1.4890 -1.3111 -1.9020
 4836TIP3   OH235922   2.123   0.598   6.175 -0.3339  0.1941 -0.4459
 4836TIP3    H135923   2.140   0.660   6.245  1.1730  1.4890 -1.8685
 4836TIP3    H235924   2.170   0.519   6.201  0.3252  0.7080 -0.0365
 4837TIP3   OH235925   2.935   0.728   3.801 -0.1821  0.4795  0.6512
 4837TIP3    H135926   2.905   0.818   3.787 -1.3507  0.4249  2.5380
 4837TIP3    H235927   2.939   0.690   3.713 -1.3078  1.8671 -0.0345
 4838TIP3   OH235928   6.242   5.486   1.483 -0.1080 -0.9071  0.6400
 4838TIP3    H135929   6.221   5.396   1.456 -1.5899 -0.5674  0.5605
 4838TIP3    H235930   6.162   5.535   1.464  1.2122  0.7838 -0.8288
 4839TIP3   OH235931   5.788   3.653  12.007 -0.3260 -0.3211  0.2693
 4839TIP3    H135932   5.788   3.733  11.953  2.1379 -0.6133 -0.2747
 4839TIP3    H235933   5.852   3.672  12.077  0.9027 -2.0563 -0.3240
 4840TIP3   OH235934   4.885   2.286  15.133  0.1824 -0.1595 -0.2159
 4840TIP3    H135935   4.803   2.285  15.083  0.8575  0.3429 -1.3479
 4840TIP3    H235936   4.890   2.198  15.172  0.5550 -1.2553 -2.5587
 4841TIP3   OH235937   3.428   2.869   3.982  0.0904 -0.3469  0.6318
 4841TIP3    H135938   3.497   2.817   4.023  1.0035  0.1714 -0.1962
 4841TIP3    H235939   3.455   2.960   3.997 -0.9042 -0.1193  1.1011
 4842TIP3   OH235940   3.004   1.393   0.283  0.2372  0.2715 -0.0736
 4842TIP3    H135941   2.977   1.313   0.237  4.8840 -1.2897 -0.6326
 4842TIP3    H235942   3.020   1.365   0.373  0.4587  0.9850  0.1156
 4843TIP3   OH235943   2.681   3.461   1.217  0.1119  0.5324  0.3164
 4843TIP3    H135944   2.716   3.525   1.280  0.0184  0.5587  0.3407
 4843TIP3    H235945   2.758   3.410   1.191  0.3736  1.2855 -0.4458
 4844TIP3   OH235946   1.801   3.423   1.019 -0.3088 -0.0434  0.2962
 4844TIP3    H135947   1.863   3.457   1.083 -0.9356 -1.5657  1.7859
 4844TIP3    H235948   1.721   3.474   1.033 -0.7036 -0.8953  1.3563
 4845TIP3   OH235949   3.870   4.363  15.663 -0.2186 -0.4866 -0.1851
 4845TIP3    H135950   3.781   4.396  15.677 -0.8549 -2.2461  0.2318
 4845TIP3    H235951   3.899   4.336  15.750 -0.0897 -1.8155 -0.6255
 4846TIP3   OH235952   4.851   2.323   1.963  0.1451 -0.2333  0.1291
 4846TIP3    H135953   4.903   2.298   1.887  0.0177  0.1793 -0.0932
 4846TIP3    H235954   4.814   2.240   1.995  0.0625 -0.3845 -0.3525
 4847TIP3   OH235955   1.633   2.538  11.719  0.6704 -0.0084  0.6142
 4847TIP3    H135956   1.594   2.503  11.799 -1.3627  0.5773 -0.0424
 4847TIP3    H235957   1.672   2.621  11.745 -1.0560  0.7845  0.8264
 4848TIP3   OH235958   5.991   2.159   6.882 -0.2883 -0.0751 -0.4019
 4848TIP3    H135959   6.081   2.189   6.878  0.2522 -1.6941 -1.0232
 4848TIP3    H235960   5.955   2.176   6.795 -0.4211  0.0728 -0.3195
 4849TIP3   OH235961   3.406   3.292  12.626 -0.3177 -0.1439 -0.7621
 4849TIP3    H135962   3.428   3.330  12.711 -3.3819  0.6087 -0.2083
 4849TIP3    H235963   3.360   3.361  12.579 -1.2817 -1.4680 -1.8745
 4850TIP3   OH235964   6.640   4.998  16.382  0.1627  0.6513  0.3956
 4850TIP3    H135965   6.555   4.998  16.338  1.1488  0.9995 -1.5873
 4850TIP3    H235966   6.682   5.079  16.353  0.6192  1.2595  2.5572
 4851TIP3   OH235967   6.428   6.388  12.402  0.2077  0.5314 -0.3564
 4851TIP3    H135968   6.494   6.319  12.415 -0.4157 -0.1055 -0.5282
 4851TIP3    H235969   6.455   6.458  12.462 -0.6611 -0.9530  1.9079
 4852TIP3   OH235970   5.325   5.046  13.567 -0.4517  0.2641 -0.1634
 4852TIP3    H135971   5.371   4.998  13.636 -3.1518 -1.9132  0.3056
 4852TIP3    H235972   5.354   5.005  13.486 -0.8507 -0.4806  0.0603
 4853TIP3   OH235973   4.709   6.304   5.072 -0.4207  0.2239  0.0770
 4853TIP3    H135974   4.773   6.360   5.029 -1.4771 -0.1874 -2.2231
 4853TIP3    H235975   4.626   6.324   5.027 -2.0338  0.9192  3.0723
 4854TIP3   OH235976   0.686   0.477  15.703 -0.0989 -0.2152  0.4083
 4854TIP3    H135977   0.757   0.417  15.680  0.2948  0.5559 -0.4785
 4854TIP3    H235978   0.713   0.561  15.665 -2.0033 -0.1547 -0.9961
 4855TIP3   OH235979   5.654   4.101  14.238 -0.4693  0.6945 -0.4390
 4855TIP3    H135980   5.720   4.163  14.207  0.1890  0.1531 -0.1392
 4855TIP3    H235981   5.576   4.155  14.253  0.5490  1.7790  1.4180
 4856TIP3   OH235982   0.227   3.447   1.161 -0.2766  0.4920 -0.0668
 4856TIP3    H135983   0.170   3.505   1.212 -0.7265 -0.0525  0.0538
 4856TIP3    H235984   0.219   3.362   1.204  0.2938  0.3090 -0.3134
 4857TIP3   OH235985   6.668   3.830  13.974 -0.5318  0.4247  0.0301
 4857TIP3    H135986   6.690   3.913  14.016  0.4844 -0.4961  1.3662
 4857TIP3    H235987   6.597   3.853  13.913 -0.3272  2.2478  0.4120
 4858TIP3   OH235988   5.519   6.256  14.490  0.7464 -0.0362 -0.6519
 4858TIP3    H135989   5.537   6.343  14.525  0.4091 -0.7224  1.3887
 4858TIP3    H235990   5.430   6.236  14.519  0.0033 -0.2423 -2.9171
 4859TIP3   OH235991   2.893   3.121  12.888 -0.0221 -1.0802  0.0566
 4859TIP3    H135992   2.923   3.107  12.977 -0.0142  0.2103  0.2703
 4859TIP3    H235993   2.800   3.097  12.889 -0.6225  1.0749  0.9944
 4860TIP3   OH235994   5.886   3.922   0.558 -0.1381 -0.2361 -0.3112
 4860TIP3    H135995   5.847   3.906   0.644 -0.0617 -0.5441 -0.3332
 4860TIP3    H235996   5.940   4.000   0.570 -0.6453  0.1076 -0.2446
 4861TIP3   OH235997   1.263   1.835  15.068 -0.3106 -0.0966  0.2609
 4861TIP3    H135998   1.251   1.930  15.060  0.6305  0.0141  0.0959
 4861TIP3    H235999   1.208   1.798  14.999  1.6167  0.4868 -1.6801
 4862TIP3   OH236000   4.009   5.914   3.163  0.0135 -0.1130 -0.5540
 4862TIP3    H136001   3.915   5.901   3.147 -0.4652  1.7477  0.4289
 4862TIP3    H236002   4.015   5.923   3.258  0.3586  4.7533 -0.8174
 4863TIP3   OH236003   1.009   2.486   1.249 -0.8819 -0.2340 -0.2691
 4863TIP3    H136004   1.016   2.575   1.282 -2.7593 -0.5362  1.1599
 4863TIP3    H236005   1.094   2.467   1.211  1.0628  0.6910  3.1870
 4864TIP3   OH236006   2.087   1.567  16.536 -0.3279  0.1440  0.2807
 4864TIP3    H136007   2.069   1.516  16.458 -1.1221 -0.6978  0.9909
 4864TIP3    H236008   2.021   1.637  16.536  0.4350  0.8889 -0.4164
 4865TIP3   OH236009   0.153   4.613   0.838 -0.4426 -0.3038  0.2040
 4865TIP3    H136010   0.105   4.531   0.829  0.0078 -0.4279 -1.3000
 4865TIP3    H236011   0.192   4.628   0.752  1.0036  0.5389  0.9537
 4866TIP3   OH236012   4.693   3.355  14.660 -0.2922  0.0613  0.3968
 4866TIP3    H136013   4.609   3.316  14.683 -0.5623  0.0193 -0.5865
 4866TIP3    H236014   4.676   3.449  14.660  0.0108  0.1222  1.4744
 4867TIP3   OH236015   5.177   6.507   1.885 -0.2240 -0.1410  0.2506
 4867TIP3    H136016   5.235   6.532   1.956 -1.2344  2.0064  0.3998
 4867TIP3    H236017   5.124   6.435   1.922  0.7484 -0.5650  0.8708
 4868TIP3   OH236018   1.758   5.602   2.643 -0.0170  0.0771 -0.1181
 4868TIP3    H136019   1.718   5.685   2.668  0.8218  0.3925  0.1962
 4868TIP3    H236020   1.724   5.539   2.707 -0.1163  0.3108  0.0598
 4869TIP3   OH236021   3.974   0.986   5.632 -0.1857  0.2001  0.6423
 4869TIP3    H136022   4.040   0.960   5.696  0.1063 -2.2513 -0.5646
 4869TIP3    H236023   4.023   1.006   5.553 -0.7764 -0.1167  0.1890
 4870TIP3   OH236024   1.582   0.175   2.836 -0.3100  0.1245 -0.6221
 4870TIP3    H136025   1.526   0.144   2.908 -1.3176  1.1500 -0.9329
 4870TIP3    H236026   1.671   0.154   2.864 -0.8160 -1.2582  0.0339
 4871TIP3   OH236027   2.121   2.185  16.290  0.0347  0.0727  0.4813
 4871TIP3    H136028   2.081   2.267  16.261 -0.9257 -1.0441 -1.6039
 4871TIP3    H236029   2.189   2.211  16.352 -1.1217  2.3280  0.8848
 4872TIP3   OH236030   0.837   5.564  16.258  0.4906  0.0035  0.0022
 4872TIP3    H136031   0.865   5.637  16.314  0.8640  1.4097 -1.8978
 4872TIP3    H236032   0.742   5.566  16.262  0.5199 -0.4069  1.1617
 4873TIP3   OH236033   3.979   1.439   2.657 -0.0744  0.6671  0.5196
 4873TIP3    H136034   4.072   1.419   2.670  0.2164 -0.7842 -2.7952
 4873TIP3    H236035   3.978   1.532   2.635  0.6801  0.6152  0.2243
 4874TIP3   OH236036   5.870   1.822  13.094  0.2876  0.7937 -0.1160
 4874TIP3    H136037   5.857   1.800  13.186  0.5170  0.4927 -0.1533
 4874TIP3    H236038   5.846   1.742  13.047  1.1254  0.6103 -0.2531
 4875TIP3   OH236039   1.827   0.441  10.713 -0.0392  0.0451 -0.2897
 4875TIP3    H136040   1.774   0.512  10.678  0.6399 -0.3792 -2.3388
 4875TIP3    H236041   1.915   0.479  10.721 -0.0084 -0.1143  0.1512
 4876TIP3   OH236042   2.908   3.693   0.451  0.2433 -0.0615  0.5600
 4876TIP3    H136043   2.997   3.689   0.485  0.5574 -2.6622 -0.3071
 4876TIP3    H236044   2.853   3.691   0.529  0.9820 -2.1546  1.1139
 4877TIP3   OH236045   3.645   3.965   0.203  0.1080 -0.0080  0.5115
 4877TIP3    H136046   3.586   3.910   0.256 -0.0114 -1.4103 -0.9983
 4877TIP3    H236047   3.713   3.993   0.265 -1.1651  0.1750  1.8818
 4878TIP3   OH236048   6.473   2.264   5.525  0.4813 -0.0124  0.1732
 4878TIP3    H136049   6.561   2.259   5.489  0.2536 -0.3437 -0.3492
 4878TIP3    H236050   6.452   2.174   5.551 -0.5132 -0.3702 -1.6957
 4879TIP3   OH236051   2.979   5.337   0.925  0.1835  0.2690  0.5853
 4879TIP3    H136052   2.982   5.256   0.875  0.0710 -0.7697  2.2003
 4879TIP3    H236053   3.054   5.332   0.985 -2.0015 -0.5725  3.4818
 4880TIP3   OH236054   6.758   4.592  11.935 -0.7544  0.2012  0.8638
 4880TIP3    H136055   6.674   4.546  11.947 -1.4399  0.9842 -0.6593
 4880TIP3    H236056   6.786   4.615  12.023 -1.2302 -1.6458  1.5449
 4881TIP3   OH236057   1.696   0.573  15.802  0.0818  0.3806 -0.2245
 4881TIP3    H136058   1.687   0.623  15.721  1.8111 -0.0020 -0.6868
 4881TIP3    H236059   1.708   0.638  15.870  0.5918  0.6517 -0.5696
 4882TIP3   OH236060   0.470   0.755  12.322 -0.8946 -0.3198 -0.1433
 4882TIP3    H136061   0.382   0.791  12.336  0.0657  1.0592  3.4822
 4882TIP3    H236062   0.474   0.680  12.381  0.6426  0.2317  0.4941
 4883TIP3   OH236063   3.022   3.956  16.032 -0.0785  0.1181 -0.4487
 4883TIP3    H136064   2.943   4.009  16.030  0.4052  0.8708 -0.1263
 4883TIP3    H236065   3.020   3.906  15.950 -0.2226  1.1209 -1.0741
 4884TIP3   OH236066   0.363   0.697   3.769 -0.2050  0.5252 -0.2106
 4884TIP3    H136067   0.338   0.605   3.757  0.2636  0.2772  0.5721
 4884TIP3    H236068   0.458   0.695   3.775 -0.0336  1.3174 -2.0833
 4885TIP3   OH236069   0.940   3.043  15.048  0.1748 -0.0737  0.6515
 4885TIP3    H136070   0.899   2.959  15.033  0.5310 -0.2210  0.4860
 4885TIP3    H236071   1.017   3.043  14.991 -0.2732  0.6992  0.0352
 4886TIP3   OH236072   3.211   0.235   3.887  0.1794  0.6162  0.3691
 4886TIP3    H136073   3.220   0.312   3.831  1.4925 -0.5182 -1.0680
 4886TIP3    H236074   3.173   0.168   3.831  0.3474 -0.1959  1.1951
 4887TIP3   OH236075   6.450   0.107  15.816 -0.2573  0.1121  0.0611
 4887TIP3    H136076   6.379   0.106  15.752 -1.4442  0.3295  1.3309
 4887TIP3    H236077   6.488   0.019  15.812 -0.0404  0.2454 -1.2073
 4888TIP3   OH236078   2.045   2.926  12.281  0.2275  0.6313  0.5618
 4888TIP3    H136079   2.139   2.910  12.292  0.1593 -0.9348 -0.7829
 4888TIP3    H236080   2.013   2.852  12.229 -1.6243  1.4827  0.3844
 4889TIP3   OH236081   1.611   4.591  12.344 -0.0226  0.4655 -0.4344
 4889TIP3    H136082   1.663   4.638  12.410 -0.2992  0.8720 -0.5016
 4889TIP3    H236083   1.529   4.640  12.339 -0.0674  0.3422 -0.9618
 4890TIP3   OH236084   0.824   3.914  14.672 -0.0661  0.3657 -0.0980
 4890TIP3    H136085   0.835   3.855  14.597 -0.1392 -1.8346  1.5221
 4890TIP3    H236086   0.904   3.966  14.673  0.3882 -0.2764 -1.1089
 4891TIP3   OH236087   3.484   1.260  10.343  0.7896  0.1689 -0.4483
 4891TIP3    H136088   3.389   1.248  10.339  0.7832  0.4751 -1.5620
 4891TIP3    H236089   3.498   1.315  10.421  0.0721  0.0116 -0.1989
 4892TIP3   OH236090   4.975   5.022   4.541  0.3347 -0.4950 -0.3327
 4892TIP3    H136091   4.991   5.113   4.515  2.2936 -0.5712  0.4316
 4892TIP3    H236092   5.011   5.016   4.630 -1.8693 -1.4481  0.5744
 4893TIP3   OH236093   0.140   1.461  16.231  0.0015 -0.2896  0.3570
 4893TIP3    H136094   0.185   1.439  16.313 -2.3294 -0.1632  1.7333
 4893TIP3    H236095   0.056   1.416  16.236 -0.7382  0.7698 -1.3960
 4894TIP3   OH236096   4.769   6.423  16.572 -0.0052  0.5754 -0.1083
 4894TIP3    H136097   4.687   6.471  16.562  0.1435  0.8832  0.1091
 4894TIP3    H236098   4.786   6.423  16.667 -0.4025 -0.5952 -0.0241
 4895TIP3   OH236099   5.855   3.887  15.973  0.0482  0.2925 -0.5676
 4895TIP3    H136100   5.838   3.949  15.902 -5.0448 -0.4837 -0.4368
 4895TIP3    H236101   5.806   3.922  16.048  1.3777 -1.2850  1.1369
 4896TIP3   OH236102   1.437   2.294   4.666  0.1994  0.1342  0.4701
 4896TIP3    H136103   1.392   2.244   4.734  0.0355 -1.3985 -0.7042
 4896TIP3    H236104   1.521   2.249   4.656  1.1571  1.6770  1.1414
 4897TIP3   OH236105   2.472   2.103   3.259  0.7000  0.0527 -0.2066
 4897TIP3    H136106   2.431   2.018   3.241 -1.0944  0.6150  0.8820
 4897TIP3    H236107   2.452   2.156   3.182  1.0187 -0.2280 -0.4866
 4898TIP3   OH236108   5.950   6.318   1.906 -0.0914 -0.3072  0.2562
 4898TIP3    H136109   6.007   6.340   1.980 -1.0911  0.8067  0.7198
 4898TIP3    H236110   6.008   6.271   1.845  1.4296  1.0357  0.5698
 4899TIP3   OH236111   3.171   4.363   4.499  0.3083  0.3504 -0.1231
 4899TIP3    H136112   3.112   4.302   4.456  1.9344 -2.0445  0.8358
 4899TIP3    H236113   3.197   4.424   4.430  0.7223 -1.7092 -1.8794
 4900TIP3   OH236114   3.927   2.961   0.325 -0.1276 -0.1118 -0.2050
 4900TIP3    H136115   3.891   2.915   0.250  0.3441 -2.0062  0.6616
 4900TIP3    H236116   3.925   2.897   0.396  2.8497  0.3675  0.4517
 4901TIP3   OH236117   0.048   0.881   1.215  0.5049 -0.7900  0.5082
 4901TIP3    H136118   0.084   0.919   1.135 -0.8030 -0.4112  0.0743
 4901TIP3    H236119   0.124   0.872   1.273  1.1692  0.7925 -0.0377
 4902TIP3   OH236120   3.457   0.465   0.152 -0.2034 -0.4058 -0.5720
 4902TIP3    H136121   3.531   0.525   0.148 -1.5136  1.2548 -0.9690
 4902TIP3    H236122   3.397   0.504   0.215 -2.0263 -0.1311 -2.3683
 4903TIP3   OH236123   3.325   5.604  16.846 -0.0454  0.5219 -0.0768
 4903TIP3    H136124   3.340   5.603  16.752 -1.3022  0.2760 -0.2904
 4903TIP3    H236125   3.370   5.527  16.879 -1.8021 -0.9030 -0.8586
 4904TIP3   OH236126   5.150   0.567  13.656 -0.4988 -0.4429 -0.2290
 4904TIP3    H136127   5.225   0.622  13.638 -0.8158 -0.1755 -0.7703
 4904TIP3    H236128   5.126   0.531  13.570 -2.1136  0.9304 -0.4073
 4905TIP3   OH236129   0.726   3.870  11.009 -0.4755 -0.0646  0.0423
 4905TIP3    H136130   0.695   3.942  10.955 -0.1985  0.7769  0.9717
 4905TIP3    H236131   0.776   3.912  11.079 -0.3727 -1.1506  0.6499
 4906TIP3   OH236132   5.382   5.435  13.021  0.4059  0.2497  0.0450
 4906TIP3    H136133   5.417   5.499  13.082  0.3048 -1.2321  1.7436
 4906TIP3    H236134   5.304   5.401  13.064 -0.3309 -0.0419 -1.4440
 4907TIP3   OH236135   5.318   6.695  14.734 -0.3067  0.4872  0.0503
 4907TIP3    H136136   5.238   6.694  14.681  0.8506  0.8939 -1.7963
 4907TIP3    H236137   5.306   6.768  14.793 -0.6180  1.6379 -1.3747
 4908TIP3   OH236138   5.932   0.351   4.989  0.2120  0.1888 -0.7336
 4908TIP3    H136139   5.918   0.271   5.040 -0.3372  2.1867  2.5557
 4908TIP3    H236140   5.844   0.384   4.971  0.4207  1.2319  0.0619
 4909TIP3   OH236141   4.910   6.484   3.345 -0.2808  0.3012  0.3955
 4909TIP3    H136142   4.877   6.569   3.318  0.0632  0.1425 -0.5643
 4909TIP3    H236143   4.984   6.467   3.287  0.6109  0.0212  1.5697
 4910TIP3   OH236144   2.876   3.546  13.633  0.3796 -0.4624  0.1885
 4910TIP3    H136145   2.885   3.581  13.722  1.6183  0.7907 -0.3932
 4910TIP3    H236146   2.907   3.456  13.640  0.2746 -0.4366  1.0765
 4911TIP3   OH236147   2.342   3.757   5.449 -0.3194  0.0420 -0.4242
 4911TIP3    H136148   2.406   3.798   5.507  0.7272 -2.0217 -0.0287
 4911TIP3    H236149   2.257   3.777   5.488  0.2252  0.7401  0.4350
 4912TIP3   OH236150   2.879   4.281   0.844  0.3506  0.4168 -0.3700
 4912TIP3    H136151   2.839   4.220   0.905  0.5823 -0.2364 -0.8571
 4912TIP3    H236152   2.953   4.318   0.892  0.1071  0.4456 -0.0135
 4913TIP3   OH236153   4.754   0.981   1.462 -0.3844 -0.1318 -0.3643
 4913TIP3    H136154   4.721   0.960   1.549  0.5863 -1.4235 -0.2828
 4913TIP3    H236155   4.676   0.986   1.407 -0.9120 -0.5155  0.3393
 4914TIP3   OH236156   3.892   6.283   3.314  0.2441 -0.5981  0.3494
 4914TIP3    H136157   3.920   6.272   3.223 -1.8404 -1.1621 -0.3035
 4914TIP3    H236158   3.815   6.340   3.308  0.2853 -0.3562  1.8053
 4915TIP3   OH236159   3.034   6.319  12.856 -0.2735  0.3993 -0.1983
 4915TIP3    H136160   3.058   6.390  12.797  0.3227  1.6592  1.4842
 4915TIP3    H236161   3.106   6.257  12.851 -0.1465  0.5851 -0.6470
 4916TIP3   OH236162   0.406   2.391   4.080  0.1324  0.0208 -0.3201
 4916TIP3    H136163   0.370   2.356   4.161 -0.4069 -1.9914 -1.3632
 4916TIP3    H236164   0.462   2.464   4.108 -0.8573  0.0505  1.7375
 4917TIP3   OH236165   4.736   0.487   5.554 -0.0911  0.0683 -0.6662
 4917TIP3    H136166   4.805   0.478   5.488  0.1708  1.6871 -0.6453
 4917TIP3    H236167   4.680   0.557   5.522 -0.2039  0.5973  0.6163
 4918TIP3   OH236168   0.281   6.556   3.427 -0.0993 -0.0417  0.3096
 4918TIP3    H136169   0.244   6.615   3.361  1.4499 -0.2328 -0.7812
 4918TIP3    H236170   0.218   6.484   3.433 -1.0757  0.7781  0.2826
 4919TIP3   OH236171   4.409   1.847  15.316  0.0193 -0.1779 -0.5305
 4919TIP3    H136172   4.359   1.929  15.322 -1.4664 -1.0997  0.3940
 4919TIP3    H236173   4.342   1.779  15.308  1.1720 -1.4235  0.0284
 4920TIP3   OH236174   0.611   6.471  15.076 -0.4272 -0.1709 -0.4155
 4920TIP3    H136175   0.606   6.567  15.075  0.6991 -0.0487  1.2232
 4920TIP3    H236176   0.655   6.451  15.159  0.6410 -2.0384 -1.3783
 4921TIP3   OH236177   5.844   1.361  16.515 -1.0505  0.5178 -0.1656
 4921TIP3    H136178   5.788   1.347  16.591  0.3703  1.0043  1.0138
 4921TIP3    H236179   5.783   1.373  16.442 -2.4573  0.8987  1.0375
 4922TIP3   OH236180   0.992   0.384   4.302  0.0551  0.0502  0.1531
 4922TIP3    H136181   1.067   0.343   4.345  0.1440 -0.1389 -0.1857
 4922TIP3    H236182   0.979   0.334   4.222  0.1141  0.6276 -0.2216
 4923TIP3   OH236183   5.561   1.074   3.334 -0.3292 -0.4505 -0.3586
 4923TIP3    H136184   5.616   0.997   3.342 -1.1306 -1.0104 -0.1270
 4923TIP3    H236185   5.598   1.136   3.397  0.9702 -0.2142 -1.2962
 4924TIP3   OH236186   3.341   3.751  16.003 -0.3036 -0.3059 -0.2561
 4924TIP3    H136187   3.251   3.720  16.002 -0.0842 -0.9473 -0.5686
 4924TIP3    H236188   3.380   3.710  16.081  0.3431 -1.8851 -1.3701
 4925TIP3   OH236189   4.787   4.639  12.959 -0.1354  0.0168 -0.4743
 4925TIP3    H136190   4.773   4.590  13.040 -1.9128  0.3886 -0.5330
 4925TIP3    H236191   4.771   4.730  12.982 -1.3144  0.0596 -1.3756
 4926TIP3   OH236192   6.309   6.204   2.321 -0.3825  0.2272 -0.2326
 4926TIP3    H136193   6.371   6.167   2.258 -2.1486  0.5884 -2.3313
 4926TIP3    H236194   6.349   6.286   2.349  1.2807 -0.8144  0.5913
 4927TIP3   OH236195   5.851   5.346   1.293 -0.0177  0.1099  0.5725
 4927TIP3    H136196   5.915   5.413   1.320 -1.1211  1.5792 -0.2696
 4927TIP3    H236197   5.780   5.396   1.253 -0.9351 -1.5948 -0.0348
 4928TIP3   OH236198   6.782   5.687   2.952  0.5131  0.3754 -0.4609
 4928TIP3    H136199   6.733   5.624   3.005  0.4750  2.3385  1.9948
 4928TIP3    H236200   6.715   5.743   2.913  0.6651  0.4204 -0.6610
 4929TIP3   OH236201   4.426   6.450  12.265  0.4206 -0.1248 -0.5138
 4929TIP3    H136202   4.393   6.371  12.307  1.7145 -1.9080 -2.6494
 4929TIP3    H236203   4.519   6.453  12.288  0.7484 -0.1535 -1.7582
 4930TIP3   OH236204   5.811   2.205  13.179 -0.4546  0.7393 -0.2596
 4930TIP3    H136205   5.890   2.154  13.200 -1.2704 -0.2368  0.5491
 4930TIP3    H236206   5.841   2.296  13.178  0.6070  0.4218  0.4742
 4931TIP3   OH236207   3.773   6.136  16.979  0.2133 -0.1097  0.5595
 4931TIP3    H136208   3.737   6.091  17.055  0.3327 -0.1750  0.5777
 4931TIP3    H236209   3.700   6.188  16.945  0.0274 -0.4487  0.4340
 4932TIP3   OH236210   3.283   5.254  16.758  0.3305 -0.0132 -0.2210
 4932TIP3    H136211   3.215   5.256  16.691 -0.7144  0.1954  0.8138
 4932TIP3    H236212   3.320   5.166  16.753 -0.0057 -0.1242 -0.7934
 4933TIP3   OH236213   1.403   1.943   1.137  0.7249 -0.1233 -0.2395
 4933TIP3    H136214   1.420   1.898   1.220  0.5751 -1.3879 -0.8649
 4933TIP3    H236215   1.308   1.956   1.137  0.9818  2.1247  0.8681
 4934TIP3   OH236216   5.645   2.623  14.863  0.0274  0.6421  0.0431
 4934TIP3    H136217   5.666   2.627  14.956 -1.2989  0.5406  0.3608
 4934TIP3    H236218   5.673   2.536  14.836 -0.5875  0.2597  0.6146
 4935TIP3   OH236219   2.236   6.070  13.472 -0.6057  0.3446  0.4038
 4935TIP3    H136220   2.264   6.000  13.530 -0.0579 -0.8359 -1.2244
 4935TIP3    H236221   2.308   6.133  13.472  0.3141 -0.6839 -0.6036
 4936TIP3   OH236222   2.250   1.705  13.320  0.2671  0.1363 -0.8021
 4936TIP3    H136223   2.214   1.789  13.348  0.6492 -0.4634  1.6890
 4936TIP3    H236224   2.175   1.655  13.288 -0.0668  1.1271 -1.6041
 4937TIP3   OH236225   0.961   4.641  15.428 -0.3043  0.0658 -0.1581
 4937TIP3    H136226   0.875   4.633  15.386  0.5039 -0.1349 -1.8372
 4937TIP3    H236227   0.995   4.725  15.397  0.2491 -0.0120  0.2261
 4938TIP3   OH236228   0.082   2.903   3.319  0.0418 -0.8467  0.0555
 4938TIP3    H136229   0.116   2.842   3.385  1.9836  1.2972  1.2108
 4938TIP3    H236230   0.126   2.986   3.339 -0.4032  0.2819 -3.0809
 4939TIP3   OH236231   6.073   0.460  13.500 -0.5500 -0.2870 -0.2154
 4939TIP3    H136232   6.024   0.395  13.450 -0.6510 -0.8123  0.5540
 4939TIP3    H236233   6.016   0.483  13.573 -0.0140 -0.2364  0.1890
 4940TIP3   OH236234   4.319   2.327   0.345  0.6218  0.8704  0.3432
 4940TIP3    H136235   4.250   2.279   0.392  0.9584 -0.4738 -0.4815
 4940TIP3    H236236   4.288   2.417   0.342 -0.0698  0.7274  1.8927
 4941TIP3   OH236237   0.588   6.357  10.767  0.5462 -0.1999 -0.0254
 4941TIP3    H136238   0.645   6.296  10.721 -0.6177 -1.5271  0.2435
 4941TIP3    H236239   0.506   6.356  10.718 -0.2840 -0.6763  1.3203
 4942TIP3   OH236240   0.750   1.069   2.261 -0.1647  0.6200  0.0014
 4942TIP3    H136241   0.775   1.032   2.176  0.8157 -2.9728  1.6620
 4942TIP3    H236242   0.655   1.073   2.258 -0.3517 -2.0422 -0.4208
 4943TIP3   OH236243   3.524   5.398  12.059 -0.1797  0.3024  0.5491
 4943TIP3    H136244   3.448   5.355  12.099  0.9003 -2.7138 -0.3631
 4943TIP3    H236245   3.599   5.344  12.086  1.1003  0.6485 -1.9779
 4944TIP3   OH236246   3.177   4.381   2.093 -0.4119 -0.1826  0.4994
 4944TIP3    H136247   3.178   4.441   2.168  0.1342  0.7656 -0.2380
 4944TIP3    H236248   3.148   4.435   2.020 -0.3859 -0.9522 -0.0949
 4945TIP3   OH236249   1.789   6.702  16.236  0.3354  0.0637  0.3324
 4945TIP3    H136250   1.872   6.679  16.278  1.3222  2.0798 -0.4067
 4945TIP3    H236251   1.742   6.753  16.302  0.1706 -0.1185  0.3568
 4946TIP3   OH236252   2.846   6.737  13.096  0.2188  0.4768  0.4624
 4946TIP3    H136253   2.760   6.771  13.118 -1.5307 -1.1464 -3.0548
 4946TIP3    H236254   2.889   6.808  13.048  0.6601  1.0590  1.6701
 4947TIP3   OH236255   4.708   1.655   4.995 -0.6812  0.1290  0.0145
 4947TIP3    H136256   4.700   1.561   4.979 -0.3165 -0.2375  1.7476
 4947TIP3    H236257   4.641   1.673   5.062  0.6340  0.6550  1.2275
 4948TIP3   OH236258   2.773   4.530  11.561  0.3952  0.3609  0.4171
 4948TIP3    H136259   2.774   4.590  11.486  0.9956  0.9716  0.8996
 4948TIP3    H236260   2.820   4.452  11.530 -1.9811 -0.6838 -0.8289
 4949TIP3   OH236261   4.045   1.170  13.852 -0.3418 -0.1978  0.1634
 4949TIP3    H136262   3.974   1.226  13.821  0.6528  0.9618 -0.1125
 4949TIP3    H236263   4.001   1.095  13.891 -1.6843 -0.2635 -1.3713
 4950TIP3   OH236264   0.886   4.940   3.218 -0.0003  0.2386 -0.3418
 4950TIP3    H136265   0.855   4.924   3.307  0.0512 -1.1616 -0.5519
 4950TIP3    H236266   0.979   4.962   3.229  0.3688 -1.3205 -0.1329
 4951TIP3   OH236267   3.958   2.941  14.244  0.0363 -0.5860 -0.3055
 4951TIP3    H136268   4.018   3.004  14.285  1.0531 -1.1223 -0.9409
 4951TIP3    H236269   3.916   2.991  14.173 -0.3953 -0.1739  0.2229
 4952TIP3   OH236270   5.754   4.521   6.039 -0.0629  0.6068  0.3012
 4952TIP3    H136271   5.701   4.441   6.049  0.3471 -0.0909 -2.2225
 4952TIP3    H236272   5.836   4.501   6.085 -0.3272 -0.0527  0.5063
 4953TIP3   OH236273   0.706   5.446   4.801  0.1650 -0.1122 -0.0089
 4953TIP3    H136274   0.792   5.469   4.836  0.1389  0.1562 -0.1195
 4953TIP3    H236275   0.716   5.451   4.706  0.1016 -0.3509 -0.0285
 4954TIP3   OH236276   1.957   3.577   2.857 -0.2438 -0.2315 -0.1120
 4954TIP3    H136277   2.018   3.623   2.915 -0.4308 -0.0935 -0.0240
 4954TIP3    H236278   1.983   3.604   2.769  0.9903 -1.5755 -0.2047
 4955TIP3   OH236279   4.009   0.141  14.291 -0.0288  0.2272  0.1410
 4955TIP3    H136280   4.039   0.085  14.363  2.3790  1.1034 -0.1048
 4955TIP3    H236281   4.080   0.140  14.228 -1.0316  1.5099 -1.0772
 4956TIP3   OH236282   5.038   0.635   5.632  0.2365 -0.1579 -0.4655
 4956TIP3    H136283   5.050   0.586   5.714  0.9637 -0.2105 -0.5943
 4956TIP3    H236284   5.008   0.722   5.661 -0.7779 -0.5763 -0.2223
 4957TIP3   OH236285   6.411   1.995  15.737  0.0154 -0.4996 -0.4871
 4957TIP3    H136286   6.376   2.073  15.695  0.8062  0.8415  1.2173
 4957TIP3    H236287   6.470   2.029  15.805  0.7762 -2.5883 -0.0329
 4958TIP3   OH236288   4.503   5.182  12.251  0.1616 -0.3916  0.0224
 4958TIP3    H136289   4.560   5.251  12.287 -0.7453 -0.3991  1.5589
 4958TIP3    H236290   4.545   5.157  12.169  2.6237 -0.6843  1.2818
 4959TIP3   OH236291   0.437   2.595  14.332  0.6494  0.0291  0.2505
 4959TIP3    H136292   0.354   2.639  14.349 -0.2998 -2.1709  1.7279
 4959TIP3    H236293   0.477   2.646  14.262 -1.8093  1.3219 -0.3259
 4960TIP3   OH236294   3.968   6.348   1.138 -0.0987 -0.2510  0.0112
 4960TIP3    H136295   3.902   6.340   1.068 -0.4278 -2.0828  0.4928
 4960TIP3    H236296   4.029   6.276   1.123  0.1834 -0.2986  1.2462
 4961TIP3   OH236297   2.839   6.328  15.159  0.0842 -0.4773  0.4732
 4961TIP3    H136298   2.752   6.338  15.119  0.7035  1.1594 -0.5788
 4961TIP3    H236299   2.862   6.237  15.145 -1.7628 -1.1660  1.4662
 4962TIP3   OH236300   0.547   0.880   3.178  0.2030  0.3822 -0.6081
 4962TIP3    H136301   0.481   0.830   3.227  1.5584 -2.1720 -1.2187
 4962TIP3    H236302   0.606   0.914   3.246 -0.1142  0.2184 -0.2444
 4963TIP3   OH236303   0.166   3.957   5.823  0.0405 -0.4921 -0.7522
 4963TIP3    H136304   0.234   3.923   5.764  0.0882 -1.0878 -0.3596
 4963TIP3    H236305   0.169   3.899   5.899 -1.5114 -1.0796 -1.1093
 4964TIP3   OH236306   1.512   2.361  12.252 -0.2590 -0.1068  0.3425
 4964TIP3    H136307   1.556   2.303  12.315  0.3824 -0.8796 -0.7863
 4964TIP3    H236308   1.547   2.335  12.167 -0.8350  1.1715 -0.3108
 4965TIP3   OH236309   2.291   0.638   3.792 -0.4465  0.1536  0.3629
 4965TIP3    H136310   2.215   0.695   3.804 -0.2492  0.6493 -0.6350
 4965TIP3    H236311   2.355   0.692   3.745  0.4122 -0.3504  0.9074
 4966TIP3   OH236312   4.050   4.975   5.506  0.0812 -0.8918  0.0606
 4966TIP3    H136313   3.978   5.012   5.454 -0.1771 -2.8894 -1.1055
 4966TIP3    H236314   4.127   4.985   5.450  0.2056 -1.1025  0.1922
 4967TIP3   OH236315   5.256   5.364   4.899  0.9476 -0.0361  0.3679
 4967TIP3    H136316   5.340   5.356   4.945  2.3010  0.3800 -1.8714
 4967TIP3    H236317   5.235   5.274   4.873  2.6554  0.1888 -2.1746
 4968TIP3   OH236318   4.171   5.732   3.855  0.5597  0.2953 -0.1789
 4968TIP3    H136319   4.187   5.656   3.799 -1.0614  0.6050 -1.1029
 4968TIP3    H236320   4.146   5.695   3.939  0.6714 -0.1868 -0.3554
 4969TIP3   OH236321   3.173   3.915  11.231 -0.2324 -0.2476 -0.2116
 4969TIP3    H136322   3.095   3.906  11.175 -1.4686 -1.6603  1.6164
 4969TIP3    H236323   3.137   3.926  11.319  1.6629  1.2997  0.4360
 4970TIP3   OH236324   2.330   6.215   5.390 -0.4287  0.4356  0.8473
 4970TIP3    H136325   2.301   6.304   5.407  0.5718  1.3899 -1.9235
 4970TIP3    H236326   2.252   6.161   5.404 -1.2915  1.8269  1.6548
 4971TIP3   OH236327   6.393   4.866  11.453 -0.3373 -0.6303  0.3829
 4971TIP3    H136328   6.389   4.805  11.380  0.5645 -0.3116  0.0545
 4971TIP3    H236329   6.459   4.829  11.511  0.4864  0.2144  0.0013
 4972TIP3   OH236330   2.582   4.280  12.526 -0.3388 -0.1276  0.8519
 4972TIP3    H136331   2.662   4.228  12.523 -0.9649 -1.1758  1.5843
 4972TIP3    H236332   2.567   4.306  12.435 -0.7267 -2.4000  0.1952
 4973TIP3   OH236333   0.376   2.721  14.895  0.1701 -0.4154  0.4376
 4973TIP3    H136334   0.425   2.753  14.971 -0.1825 -2.2034  1.4725
 4973TIP3    H236335   0.443   2.693  14.833  0.4670  1.4354 -0.1210
 4974TIP3   OH236336   4.020   6.314   1.401 -0.0799 -0.0851 -0.0355
 4974TIP3    H136337   3.996   6.303   1.309 -0.9548 -0.1780  0.1936
 4974TIP3    H236338   4.079   6.389   1.402 -0.6950  0.4174 -0.5762
 4975TIP3   OH236339   6.068   4.495   6.180 -0.5679  0.1245  0.3899
 4975TIP3    H136340   5.986   4.484   6.228 -1.3658  0.5483 -0.8219
 4975TIP3    H236341   6.103   4.578   6.213 -0.1028 -0.5161  1.6016
 4976TIP3   OH236342   6.454   0.878   0.413  0.1359  0.0419 -0.6527
 4976TIP3    H136343   6.519   0.822   0.455 -1.0573 -1.0783 -0.2195
 4976TIP3    H236344   6.503   0.929   0.348  1.8941  1.1764  1.4264
 4977TIP3   OH236345   0.255   2.605   4.247 -0.1963  0.4612  0.3261
 4977TIP3    H136346   0.345   2.574   4.238 -0.3956 -0.1511  0.3553
 4977TIP3    H236347   0.231   2.584   4.337  0.4242  2.8355  1.0946
 4978TIP3   OH236348   1.861   4.345  14.575 -0.3447  0.4921  0.3907
 4978TIP3    H136349   1.899   4.356  14.662 -1.8340  0.8901  1.0161
 4978TIP3    H236350   1.862   4.251  14.560  0.3065  0.4517  0.6440
 4979TIP3   OH236351   0.233   5.604   5.621 -0.0438 -0.4777 -0.0029
 4979TIP3    H136352   0.262   5.671   5.558  0.2500  0.2529  0.8736
 4979TIP3    H236353   0.144   5.582   5.594 -0.5251  1.0209  0.2644
 4980TIP3   OH236354   3.145   2.624  15.871 -0.0813 -0.1119 -0.5257
 4980TIP3    H136355   3.220   2.670  15.908 -0.7923  0.4413  0.2644
 4980TIP3    H236356   3.141   2.652  15.780  3.4333 -3.6534 -2.0754
 4981TIP3   OH236357   4.239   3.234  12.319  0.8765  0.1967 -0.5728
 4981TIP3    H136358   4.292   3.166  12.361  0.2974  0.2893  0.3378
 4981TIP3    H236359   4.222   3.298  12.388  0.0974  0.4770 -1.0039
 4982TIP3   OH236360   3.222   1.447  12.493 -0.0488  0.3893 -0.3172
 4982TIP3    H136361   3.143   1.443  12.548 -0.8391  2.0403 -1.2524
 4982TIP3    H236362   3.270   1.522  12.526  0.4122  0.2664 -0.6986
 4983TIP3   OH236363   2.540   5.220  14.932 -0.0144  0.6112  0.5799
 4983TIP3    H136364   2.597   5.167  14.877 -0.9242 -1.6593  1.7133
 4983TIP3    H236365   2.495   5.279  14.871  1.4333  0.4923 -0.6472
 4984TIP3   OH236366   0.485   0.064   5.289  0.0384 -0.5617 -0.1288
 4984TIP3    H136367   0.390   0.069   5.305  0.2340 -2.2421  1.9552
 4984TIP3    H236368   0.523   0.119   5.357  0.6761 -3.4161  1.9864
 4985TIP3   OH236369   0.219   6.182   6.540  0.2536  0.2106 -0.0046
 4985TIP3    H136370   0.165   6.111   6.575  0.6558  0.0774  0.3523
 4985TIP3    H236371   0.168   6.261   6.556 -0.4286 -0.0451 -0.8696
 4986TIP3   OH236372   3.705   0.323  15.998 -0.2271 -0.1913  0.4885
 4986TIP3    H136373   3.772   0.270  16.042  0.2504  0.3301  0.4111
 4986TIP3    H236374   3.629   0.317  16.055  0.3150  0.2944  1.2870
 4987TIP3   OH236375   2.168   4.555  13.183 -0.0755 -0.6649 -0.1604
 4987TIP3    H136376   2.180   4.642  13.221  3.5250 -0.6627 -0.9768
 4987TIP3    H236377   2.199   4.496  13.251 -0.4271 -1.1799 -0.4421
 4988TIP3   OH236378   1.513   4.629   3.622  0.5456  0.1887 -0.2495
 4988TIP3    H136379   1.448   4.684   3.578  0.5881  0.4027 -0.0466
 4988TIP3    H236380   1.564   4.591   3.551 -0.5794 -0.9678 -0.4802
 4989TIP3   OH236381   0.579   5.247   4.917  0.1209  0.1212  0.2974
 4989TIP3    H136382   0.643   5.176   4.905  0.0933  0.0270  0.7148
 4989TIP3    H236383   0.622   5.324   4.879  0.1201 -0.1278 -0.2287
 4990TIP3   OH236384   1.411   6.261   3.988 -0.0099 -0.4521  0.0808
 4990TIP3    H136385   1.391   6.349   4.019 -1.6246 -1.4978  2.3130
 4990TIP3    H236386   1.326   6.219   3.977  0.7105 -1.7067 -1.1052
 4991TIP3   OH236387   3.976   0.629  16.376 -0.3134  0.1919 -0.6476
 4991TIP3    H136388   4.046   0.653  16.315 -0.4148  0.5779 -0.6115
 4991TIP3    H236389   4.009   0.550  16.420  0.2800  0.6020 -0.3353
 4992TIP3   OH236390   0.669   2.311   3.277 -0.0084 -0.1106 -0.1803
 4992TIP3    H136391   0.658   2.373   3.205 -1.0710  1.4768  1.2693
 4992TIP3    H236392   0.581   2.276   3.292  0.1584 -0.2650  0.4670
 4993TIP3   OH236393   1.212   0.278   1.687 -0.0284 -0.3063  0.8408
 4993TIP3    H136394   1.281   0.212   1.697  0.7820 -0.1494 -2.4614
 4993TIP3    H236395   1.141   0.232   1.642  1.0325  1.1308 -2.6711
 4994TIP3   OH236396   3.546   0.556  16.421  0.2805 -0.5704  0.1671
 4994TIP3    H136397   3.596   0.633  16.393  1.7884 -1.5680  0.0544
 4994TIP3    H236398   3.544   0.562  16.516 -0.4544  0.0969  0.1282
 4995TIP3   OH236399   0.931   3.467   2.010 -0.3651  0.2224  0.4577
 4995TIP3    H136400   0.959   3.395   1.954 -2.5494 -2.3905  2.4537
 4995TIP3    H236401   0.880   3.524   1.951  0.0822 -0.6892 -0.8602
 4996TIP3   OH236402   3.326   0.380   1.317  0.0306  0.1097 -0.4814
 4996TIP3    H136403   3.272   0.444   1.363  1.4133  0.7708  0.2709
 4996TIP3    H236404   3.385   0.432   1.263  1.4939 -0.4607  0.4997
 4997TIP3   OH236405   4.774   6.423   5.362 -0.6276 -0.2112 -0.5203
 4997TIP3    H136406   4.740   6.427   5.273  0.7777 -1.6755 -1.1734
 4997TIP3    H236407   4.800   6.332   5.374  1.2731  0.4207  0.5855
 4998TIP3   OH236408   2.590   1.184  17.124 -0.2559 -0.5325 -0.5011
 4998TIP3    H136409   2.644   1.189  17.203  0.1913  0.0336 -0.8304
 4998TIP3    H236410   2.528   1.256  17.134  0.7643  0.5153 -1.3428
 4999TIP3   OH236411   1.921   5.307  15.766  0.2006  0.1517 -0.1522
 4999TIP3    H136412   1.878   5.270  15.689  1.5058 -1.5035 -0.1517
 4999TIP3    H236413   1.993   5.360  15.729  0.1092  0.3283 -0.0807
 5000TIP3   OH236414   0.160   3.344  15.745  0.0463  0.1460 -0.1336
 5000TIP3    H136415   0.158   3.272  15.682  0.7341  0.5215 -0.6073
 5000TIP3    H236416   0.080   3.393  15.727  0.1026  0.0960 -0.5429
 5001TIP3   OH236417   1.311   3.539   5.839 -0.1133  0.5573  0.4411
 5001TIP3    H136418   1.294   3.505   5.752  0.7105  1.3822 -0.0696
 5001TIP3    H236419   1.385   3.488   5.871  1.1617  1.8107 -0.3490
 5002TIP3   OH236420   3.335   0.968   4.435  0.0905  0.4807 -0.5212
 5002TIP3    H136421   3.396   0.952   4.507 -1.6283 -0.4222  0.8318
 5002TIP3    H236422   3.282   1.042   4.465 -1.6456 -0.8603 -0.1037
 5003TIP3   OH236423   3.857   4.548   4.066 -0.3624  0.1811 -0.1537
 5003TIP3    H136424   3.913   4.564   3.990  1.2492 -2.5631  0.3436
 5003TIP3    H236425   3.786   4.493   4.033 -0.2903 -0.0722  0.1140
 5004TIP3   OH236426   2.669   5.679  10.927  0.1257  0.7364 -0.4072
 5004TIP3    H136427   2.574   5.667  10.917  0.2339 -0.5058 -0.0592
 5004TIP3    H236428   2.706   5.646  10.845  0.4022 -1.1000  0.4104
 5005TIP3   OH236429   1.566   4.276  14.286 -0.0007 -0.1588 -0.1872
 5005TIP3    H136430   1.642   4.326  14.315 -0.1766 -0.1598  0.2738
 5005TIP3    H236431   1.516   4.259  14.365 -0.8408  0.4245 -0.5823
 5006TIP3   OH236432   2.115   4.978   0.725 -0.0701  0.3441 -0.3086
 5006TIP3    H136433   2.034   4.980   0.776  0.0103 -0.5714 -0.1110
 5006TIP3    H236434   2.142   5.069   0.718 -1.3387  0.7054 -0.7403
 5007TIP3   OH236435   1.974   0.690   5.973 -0.4576 -0.0641 -0.1097
 5007TIP3    H136436   2.030   0.644   6.035 -0.8565  0.6816  0.8298
 5007TIP3    H236437   1.892   0.703   6.020 -0.8200  0.3805 -0.8500
 5008TIP3   OH236438   2.458   0.468   5.670 -0.1224  0.2999  0.3286
 5008TIP3    H136439   2.451   0.506   5.583  1.2047  1.6147  0.7511
 5008TIP3    H236440   2.489   0.539   5.726  1.3693 -1.0890  1.3878
 5009TIP3   OH236441   1.665   4.011   4.826 -0.0499  0.2283  0.1891
 5009TIP3    H136442   1.618   3.980   4.904 -2.1369  0.0589 -1.0740
 5009TIP3    H236443   1.641   4.103   4.819  1.8293  0.8189  0.8806
 5010TIP3   OH236444   3.934   3.564   0.183  0.6503 -0.4719 -0.4079
 5010TIP3    H136445   3.885   3.507   0.123 -1.5866  1.4174 -0.5130
 5010TIP3    H236446   3.931   3.650   0.142  2.0236  0.1803  0.8012
 5011TIP3   OH236447   0.243   0.653  15.764  0.1265  0.0127  0.4240
 5011TIP3    H136448   0.168   0.688  15.813 -1.1946  0.1388 -1.5742
 5011TIP3    H236449   0.218   0.564  15.742  2.4741 -1.5786  3.4138
 5012TIP3   OH236450   2.403   4.243  11.280  0.1996  0.2912  0.1686
 5012TIP3    H136451   2.483   4.281  11.317  1.2628 -2.4238  0.9335
 5012TIP3    H236452   2.368   4.311  11.223  2.2036  2.1499  1.0078
 5013TIP3   OH236453   0.236   0.074  16.311 -0.0102 -0.2195  0.1132
 5013TIP3    H136454   0.264   0.061  16.220  0.4393 -0.7209  0.3127
 5013TIP3    H236455   0.180  -0.002  16.329 -1.2294  0.5839 -0.1637
 5014TIP3   OH236456   4.210   2.354  11.722  0.2130  0.2160  1.2229
 5014TIP3    H136457   4.249   2.433  11.685  0.3115 -0.0554  0.7275
 5014TIP3    H236458   4.137   2.333  11.664 -0.5331  0.5807  2.0107
 5015TIP3   OH236459   5.726   1.027   0.827 -0.5205  0.1125 -0.0894
 5015TIP3    H136460   5.671   1.062   0.897  1.0413 -1.1630  1.8825
 5015TIP3    H236461   5.790   0.972   0.872  1.5537  0.4806 -2.3730
 5016TIP3   OH236462   5.486   6.225  15.635  0.4409 -0.4511 -0.5303
 5016TIP3    H136463   5.452   6.144  15.596  1.6255 -1.4402  0.4296
 5016TIP3    H236464   5.543   6.196  15.706  1.9903  1.1925 -1.0232
 5017TIP3   OH236465   5.588   4.748  14.662 -0.2190 -0.0991  0.4541
 5017TIP3    H136466   5.659   4.735  14.599 -0.9044 -1.2732 -0.1136
 5017TIP3    H236467   5.609   4.690  14.735 -0.0937  0.2981  0.7398
 5018TIP3   OH236468   5.119   0.890   0.332  0.0187  0.2911  0.0325
 5018TIP3    H136469   5.135   0.968   0.384  1.9791  0.4697 -0.7487
 5018TIP3    H236470   5.185   0.827   0.361 -1.0079 -0.8002  0.0798
 5019TIP3   OH236471   0.856   5.260   1.989 -0.2557 -0.3692 -0.1570
 5019TIP3    H136472   0.887   5.280   1.901 -1.2444  0.8801 -0.2500
 5019TIP3    H236473   0.761   5.264   1.983 -0.4089 -2.2070  0.5479
 5020TIP3   OH236474   0.275   0.794   1.796  0.0932  0.4651 -0.0126
 5020TIP3    H136475   0.292   0.871   1.742  2.2967  0.4449  0.5634
 5020TIP3    H236476   0.309   0.721   1.746  0.0093  0.1420  0.3931
 5021TIP3   OH236477   6.727   0.710  11.907  0.2991 -0.1884 -0.1383
 5021TIP3    H136478   6.696   0.625  11.874 -1.9632 -0.3662  2.1848
 5021TIP3    H236479   6.815   0.692  11.940 -0.0142 -1.5427 -0.0000
 5022TIP3   OH236480   6.344   5.627  16.102 -0.4823 -0.1690  0.0680
 5022TIP3    H136481   6.313   5.667  16.183  0.0932  1.3680 -0.4300
 5022TIP3    H236482   6.269   5.577  16.069 -0.9126 -0.2961  1.2203
 5023TIP3   OH236483   2.914   4.769   4.324 -0.5636 -0.1957 -0.0966
 5023TIP3    H136484   2.908   4.737   4.234 -0.2627  0.2645 -0.2894
 5023TIP3    H236485   2.951   4.857   4.315 -1.5265  0.2756  0.3967
 5024TIP3   OH236486   1.637   0.868  16.366  0.3850 -0.0305  0.6629
 5024TIP3    H136487   1.630   0.773  16.359  0.5453 -0.0175  0.2731
 5024TIP3    H236488   1.567   0.893  16.426  0.0556 -0.3497  0.4147
 5025TIP3   OH236489   0.195   5.284   4.332  0.0729 -0.2982  0.3442
 5025TIP3    H136490   0.168   5.276   4.241  0.2505  0.5763  0.1997
 5025TIP3    H236491   0.119   5.255   4.383 -0.5207  0.4888 -0.0713
 5026TIP3   OH236492   5.263   0.111  14.914 -0.0638 -0.3467  0.0889
 5026TIP3    H136493   5.327   0.175  14.944  0.2379 -1.0153  0.9091
 5026TIP3    H236494   5.182   0.161  14.901 -0.2060 -0.0114  2.0207
 5027TIP3   OH236495   4.162   0.596  11.882 -0.3603 -0.1204 -0.7021
 5027TIP3    H136496   4.228   0.587  11.812  0.0592 -1.1508 -0.1949
 5027TIP3    H236497   4.166   0.513  11.929  1.6523  1.6259  2.5745
 5028TIP3   OH236498   2.260   4.900  16.628 -0.1268 -0.0579  0.1298
 5028TIP3    H136499   2.306   4.833  16.679 -1.5075 -1.0905  0.0820
 5028TIP3    H236500   2.177   4.912  16.673 -0.2425  1.0223 -0.3469
 5029TIP3   OH236501   3.891   1.773   1.887  0.1675 -0.1246 -0.0705
 5029TIP3    H136502   3.859   1.795   1.799  0.9434  1.1264 -0.0727
 5029TIP3    H236503   3.860   1.684   1.903 -2.7470  0.7334 -0.3234
 5030TIP3   OH236504   1.540   5.730  14.397  0.1084  0.8089 -0.7629
 5030TIP3    H136505   1.468   5.758  14.452  0.3766 -1.2325  0.7231
 5030TIP3    H236506   1.509   5.649  14.355  1.7767 -0.6564  0.6557
 5031TIP3   OH236507   2.596   4.172   0.839  0.1762 -0.2788 -0.3275
 5031TIP3    H136508   2.572   4.219   0.759 -1.0170  0.0935  0.2186
 5031TIP3    H236509   2.597   4.079   0.813  2.0968 -0.0220 -1.3029
 5032TIP3   OH236510   2.719   0.774  10.318 -0.8422  0.6806  0.4458
 5032TIP3    H136511   2.800   0.746  10.362 -0.4976 -0.9048 -1.0988
 5032TIP3    H236512   2.734   0.867  10.298 -0.4329  1.0627  2.3305
 5033TIP3   OH236513   6.574   5.763   2.305  0.2631 -0.0123  0.4714
 5033TIP3    H136514   6.662   5.800   2.294  0.4212 -0.4251  0.3160
 5033TIP3    H236515   6.586   5.669   2.294 -0.2815 -0.0244 -0.0780
 5034TIP3   OH236516   4.749   3.578   2.840  0.2987 -0.0063  0.2497
 5034TIP3    H136517   4.664   3.550   2.874  0.0168 -0.9436 -1.1255
 5034TIP3    H236518   4.785   3.635   2.908 -1.3141  0.2118  0.9675
 5035TIP3   OH236519   0.115   6.692  14.227 -0.2244 -0.1507  0.2375
 5035TIP3    H136520   0.069   6.723  14.304 -0.8757 -1.0851  0.2271
 5035TIP3    H236521   0.168   6.618  14.257 -0.5182 -0.5533 -0.2085
 5036TIP3   OH236522   0.678   4.101  14.149 -0.5132 -0.8650  0.1109
 5036TIP3    H136523   0.666   4.096  14.244  4.0996 -1.5795  0.9150
 5036TIP3    H236524   0.714   4.015  14.126  1.6863  0.4216 -1.5828
 5037TIP3   OH236525   1.956   1.787  11.349  0.3338 -0.4333 -0.1855
 5037TIP3    H136526   1.883   1.833  11.306  1.0026 -0.1969 -1.1070
 5037TIP3    H236527   2.001   1.855  11.398 -0.0171 -0.5645  0.3220
 5038TIP3   OH236528   2.353   2.066  13.187 -0.2691 -0.2488 -0.9061
 5038TIP3    H136529   2.284   2.129  13.208 -2.2076 -2.3660 -0.5366
 5038TIP3    H236530   2.375   2.084  13.096 -1.3258  0.4720 -1.0347
 5039TIP3   OH236531   2.194   1.782  14.525  0.7160 -0.4808 -0.8577
 5039TIP3    H136532   2.252   1.711  14.552  0.4526 -0.7147 -0.9064
 5039TIP3    H236533   2.170   1.825  14.606  0.4650 -0.7652 -0.7818
 5040TIP3   OH236534   2.756   2.623  14.248  0.4322  0.0882 -0.3295
 5040TIP3    H136535   2.849   2.621  14.267  0.0763  0.2482  1.5668
 5040TIP3    H236536   2.728   2.711  14.273 -0.1734  0.1641 -1.2263
 5041TIP3   OH236537   5.834   2.201   0.111  0.2059 -0.1462  0.0754
 5041TIP3    H136538   5.781   2.169   0.037 -0.8675  2.7065 -0.5471
 5041TIP3    H236539   5.922   2.211   0.075 -0.1710  0.6157 -0.6858
 5042TIP3   OH236540   4.843   6.354   3.767 -0.0437 -0.2690 -0.2685
 5042TIP3    H136541   4.749   6.350   3.750 -0.2766 -1.6032  1.1097
 5042TIP3    H236542   4.882   6.368   3.681 -1.4871  0.1781 -0.8827
 5043TIP3   OH236543   4.570   5.757  11.760 -0.4440 -0.1583  0.7421
 5043TIP3    H136544   4.658   5.741  11.727  0.1968 -1.1477  2.8191
 5043TIP3    H236545   4.516   5.693  11.713 -0.3664  1.3058 -1.5079
 5044TIP3   OH236546   3.420   4.523   4.515 -0.4082  0.0394  0.2430
 5044TIP3    H136547   3.368   4.445   4.533 -1.6042  0.6315 -0.5115
 5044TIP3    H236548   3.436   4.521   4.421 -0.0269  0.4491  0.2938
 5045TIP3   OH236549   5.926   0.856  13.396  0.0281  0.0411  0.8384
 5045TIP3    H136550   5.938   0.762  13.388 -0.7069 -0.0452  0.6824
 5045TIP3    H236551   5.863   0.866  13.468 -1.5971  0.2892 -0.5423
 5046TIP3   OH236552   6.322   4.304   2.449  0.0963  0.2614  0.0885
 5046TIP3    H136553   6.281   4.368   2.507 -2.0822 -0.7412 -0.2588
 5046TIP3    H236554   6.351   4.356   2.373 -1.1651  0.9323  0.0408
 5047TIP3   OH236555   1.331   0.608  12.359 -0.4486 -0.0897  0.0242
 5047TIP3    H136556   1.356   0.558  12.281 -1.4118  0.1801 -0.4742
 5047TIP3    H236557   1.240   0.633  12.343 -0.0865  1.5773  0.3914
 5048TIP3   OH236558   0.476   5.530  15.669 -0.2649 -0.4516 -0.2514
 5048TIP3    H136559   0.534   5.581  15.613  0.4344 -0.8494  0.0923
 5048TIP3    H236560   0.395   5.581  15.674  0.3407  0.5039 -0.0907
 5049TIP3   OH236561   4.873   6.488   4.951  0.4497 -0.2914 -0.2788
 5049TIP3    H136562   4.937   6.489   4.880 -0.6315  0.3143 -1.2871
 5049TIP3    H236563   4.855   6.581   4.967  0.7373 -0.4220  0.8563
 5050TIP3   OH236564   6.011   6.144  14.399 -0.8193  0.4136 -0.2111
 5050TIP3    H136565   5.971   6.226  14.370  0.4131  2.0467  2.3526
 5050TIP3    H236566   5.941   6.098  14.445 -1.2080  0.5499 -0.6538
 5051TIP3   OH236567   1.557   0.927  12.722 -0.6208  0.4074 -0.1476
 5051TIP3    H136568   1.563   0.970  12.636 -1.2559  0.4232 -0.1947
 5051TIP3    H236569   1.618   0.854  12.717 -0.2456  0.7327 -0.4158
 5052TIP3   OH236570   6.461   3.305   0.387 -0.0812  0.4383 -0.7209
 5052TIP3    H136571   6.369   3.284   0.405  0.1653 -0.2943 -0.2938
 5052TIP3    H236572   6.478   3.383   0.440 -0.5662  0.8259 -1.1229
 5053TIP3   OH236573   0.443   3.442  15.271 -0.3044  0.1276  0.6167
 5053TIP3    H136574   0.349   3.461  15.269 -0.1414  1.0215  0.8927
 5053TIP3    H236575   0.458   3.404  15.358 -0.3140  0.5556  0.8087
 5054TIP3   OH236576   5.631   5.876  13.039 -0.4691  0.4041 -0.1971
 5054TIP3    H136577   5.660   5.806  12.981  0.8687  1.5214 -0.9315
 5054TIP3    H236578   5.593   5.942  12.981  0.3366  1.2706  0.2278
 5055TIP3   OH236579   5.837   4.268   0.943 -0.1392  0.2838 -0.0042
 5055TIP3    H136580   5.747   4.274   0.910 -0.3269 -0.3292  0.3664
 5055TIP3    H236581   5.838   4.186   0.993  0.9448 -0.3025 -0.9542
 5056TIP3   OH236582   4.496   3.590  12.155 -0.2493 -0.2275  0.4681
 5056TIP3    H136583   4.493   3.553  12.066 -1.2078 -0.4301  0.5724
 5056TIP3    H236584   4.586   3.621  12.165  0.0087 -0.6580 -0.3904
 5057TIP3   OH236585   2.802   5.870   2.936  0.3993  0.1160  0.2439
 5057TIP3    H136586   2.765   5.782   2.951  1.3361 -0.3813 -0.2639
 5057TIP3    H236587   2.896   5.859   2.953  0.5562  0.9663 -0.0591
 5058TIP3   OH236588   5.840   5.224   3.144  0.0235  0.1652  0.6904
 5058TIP3    H136589   5.803   5.248   3.059  0.3817  1.4298  0.8748
 5058TIP3    H236590   5.798   5.283   3.206 -0.7927 -1.2393  1.5237
 5059TIP3   OH236591   2.784   4.748  17.124  0.0855 -0.9253  0.7304
 5059TIP3    H136592   2.845   4.676  17.140 -0.9997 -1.8665  0.8101
 5059TIP3    H236593   2.709   4.727  17.180 -1.2598 -1.0285 -1.0257
 5060TIP3   OH236594   5.717   5.000  13.954  0.3100  0.4514  0.0715
 5060TIP3    H136595   5.657   4.961  14.019  0.3438  2.2023  1.2432
 5060TIP3    H236596   5.780   4.931  13.935 -0.7058 -0.6734  0.6026
 5061TIP3   OH236597   4.144   5.528   2.189 -0.3683 -0.3368 -0.3976
 5061TIP3    H136598   4.215   5.464   2.184 -0.6588 -0.5608 -1.8639
 5061TIP3    H236599   4.067   5.476   2.213  0.2178  0.1501  3.1229
 5062TIP3   OH236600   1.381   1.806   2.034  0.6061  0.1988 -0.2202
 5062TIP3    H136601   1.321   1.874   2.004  0.0057 -0.2931 -0.1582
 5062TIP3    H236602   1.456   1.854   2.069 -0.8851  0.9614  2.1779
 5063TIP3   OH236603   4.349   0.980   6.453  0.1765 -0.2919  0.0642
 5063TIP3    H136604   4.425   0.958   6.400  0.8808  1.5628  0.2453
 5063TIP3    H236605   4.382   0.983   6.543  0.0070  0.8871  0.1058
 5064TIP3   OH236606   6.282   0.944  15.229 -0.1338  0.3885  0.5334
 5064TIP3    H136607   6.201   0.953  15.279  0.1975  1.0852  0.9700
 5064TIP3    H236608   6.271   1.006  15.156 -0.7061 -0.7797 -0.4087
 5065TIP3   OH236609   0.028   0.438   6.028 -0.1931 -0.1993 -0.4552
 5065TIP3    H136610  -0.053   0.490   6.028  0.8288  1.4840 -0.0008
 5065TIP3    H236611   0.033   0.402   6.117 -1.1731 -1.5446 -0.9291
 5066TIP3   OH236612   0.361   2.111   5.629  0.1571  0.1676 -0.8239
 5066TIP3    H136613   0.350   2.148   5.541 -0.1441 -1.4147 -1.4861
 5066TIP3    H236614   0.293   2.154   5.681 -0.3863  0.3342 -1.6415
 5067TIP3   OH236615   3.442   4.396   1.052  0.0828  0.6112 -0.4125
 5067TIP3    H136616   3.491   4.463   1.100  0.1338  0.5924 -0.4379
 5067TIP3    H236617   3.373   4.369   1.112  1.0405 -0.4782  0.2371
 5068TIP3   OH236618   1.852   1.419   3.564 -0.9247  0.0757  0.1048
 5068TIP3    H136619   1.925   1.358   3.572 -0.6886 -0.3249 -3.5098
 5068TIP3    H236620   1.881   1.497   3.612  1.0898 -0.7063  0.2465
 5069TIP3   OH236621   4.522   1.622   1.076 -0.1936 -0.4050 -0.5024
 5069TIP3    H136622   4.435   1.662   1.072  0.2721  0.6916 -0.0944
 5069TIP3    H236623   4.548   1.612   0.984 -2.1808 -4.1114 -0.8275
 5070TIP3   OH236624   0.292   0.649   0.682  0.1100 -0.1411  0.8145
 5070TIP3    H136625   0.334   0.671   0.599  1.8868 -0.0526  1.6993
 5070TIP3    H236626   0.214   0.705   0.685 -0.9524 -1.3713 -1.5337
 5071TIP3   OH236627   0.152   1.708  14.461  0.0788  0.1212  0.6077
 5071TIP3    H136628   0.058   1.717  14.446  0.6268  2.5646 -2.3774
 5071TIP3    H236629   0.173   1.780  14.521  0.1975  0.3763  0.2651
 5072TIP3   OH236630   5.248   5.712   2.061  0.1560  0.0524 -0.0181
 5072TIP3    H136631   5.221   5.666   2.140  1.7344  1.5914  1.5078
 5072TIP3    H236632   5.183   5.782   2.050 -0.0841 -0.1840 -0.1097
 5073TIP3   OH236633   1.058   4.709  14.690  0.0847  0.8577  0.8530
 5073TIP3    H136634   1.145   4.691  14.726 -0.3071 -0.3076  1.2518
 5073TIP3    H236635   0.997   4.676  14.756 -0.6580  1.1040  0.3011
 5074TIP3   OH236636   5.356   6.002   1.863 -0.4174  0.2086  0.5228
 5074TIP3    H136637   5.418   5.940   1.902 -1.5421  0.0582  2.1930
 5074TIP3    H236638   5.406   6.083   1.853  1.3732 -1.1108 -2.6164
 5075TIP3   OH236639   3.148   3.154  14.507 -0.2920  0.1363  0.2608
 5075TIP3    H136640   3.063   3.114  14.493 -1.0218  1.6901  0.1221
 5075TIP3    H236641   3.131   3.232  14.559  1.1450  0.0805  0.8841
 5076TIP3   OH236642   4.813   1.007   4.489 -0.6614  0.0027 -0.4975
 5076TIP3    H136643   4.719   1.003   4.471 -0.6049 -2.9936 -0.5448
 5076TIP3    H236644   4.853   0.957   4.418  0.8684  0.1161  0.2370
 5077TIP3   OH236645   5.680   3.774   0.457  0.1607  0.6285 -0.5275
 5077TIP3    H136646   5.749   3.835   0.484 -1.1714  0.8002  2.9576
 5077TIP3    H236647   5.607   3.830   0.432  0.3640  0.4080 -1.7183
 5078TIP3   OH236648   1.460   6.130  16.766 -0.1163 -0.0522  0.5616
 5078TIP3    H136649   1.368   6.120  16.791 -0.9940  2.1669 -1.3338
 5078TIP3    H236650   1.504   6.054  16.804 -2.4084 -0.3376  2.9245
 5079TIP3   OH236651   3.595   0.032   2.849 -0.0593 -0.4493 -0.1568
 5079TIP3    H136652   3.595   0.121   2.884 -0.4638 -0.9627  1.2117
 5079TIP3    H236653   3.503   0.012   2.835 -0.1303 -1.3224  1.3870
 5080TIP3   OH236654   3.184   2.228  13.479 -0.0963  0.0978 -0.9745
 5080TIP3    H136655   3.175   2.319  13.506  0.5179 -0.1272  0.0402
 5080TIP3    H236656   3.195   2.179  13.560 -0.1349 -0.8488 -1.5189
 5081TIP3   OH236657   2.934   1.987  13.769  0.0701 -0.1813 -0.1910
 5081TIP3    H136658   3.018   1.945  13.791  0.1645  0.6904  1.2734
 5081TIP3    H236659   2.892   2.001  13.854 -2.6662 -2.7189 -0.9491
 5082TIP3   OH236660   3.204   2.786   4.065  0.8762 -0.2458 -0.7337
 5082TIP3    H136661   3.198   2.834   4.148 -1.2272  2.6747 -2.4077
 5082TIP3    H236662   3.281   2.823   4.021 -0.4833  1.4120 -1.8296
 5083TIP3   OH236663   1.130   0.193   0.185  0.3962 -0.1319 -0.3516
 5083TIP3    H136664   1.180   0.273   0.169  0.0769  0.0875 -0.2403
 5083TIP3    H236665   1.144   0.174   0.278  2.4162 -1.5169 -0.8539
 5084TIP3   OH236666   3.473   3.557   2.331  0.0541 -0.2041 -0.2437
 5084TIP3    H136667   3.526   3.537   2.254 -0.9172 -1.5951 -0.5800
 5084TIP3    H236668   3.409   3.621   2.300  1.0498  0.9546 -0.0036
 5085TIP3   OH236669   3.149   6.178   4.969  0.4569 -0.4093 -0.5667
 5085TIP3    H136670   3.227   6.135   4.936  0.0190  0.1631 -2.4359
 5085TIP3    H236671   3.082   6.109   4.971  0.3365 -0.3209 -1.4356
 5086TIP3   OH236672   4.456   2.777   5.401  0.0154  1.1475  0.1437
 5086TIP3    H136673   4.533   2.742   5.355  0.5878  0.3244  1.6434
 5086TIP3    H236674   4.473   2.871   5.409  0.2505  1.1790 -0.6695
 5087TIP3   OH236675   3.462   3.559  13.383 -0.3689 -0.2016 -0.1691
 5087TIP3    H136676   3.487   3.508  13.306 -1.2284  0.0860 -0.6561
 5087TIP3    H236677   3.542   3.565  13.435 -0.3756 -2.6045  0.2473
 5088TIP3   OH236678   3.101   4.147  13.443  0.7086 -0.3128  0.4415
 5088TIP3    H136679   3.126   4.238  13.457  1.5874 -0.4200 -0.3210
 5088TIP3    H236680   3.173   4.110  13.392  0.1733 -1.3302  0.3974
 5089TIP3   OH236681   5.427   5.755  14.616 -0.4731  0.4355 -0.0008
 5089TIP3    H136682   5.446   5.769  14.523 -1.2629 -0.5353 -0.3263
 5089TIP3    H236683   5.336   5.782  14.626 -0.8227 -0.7489  0.1748
 5090TIP3   OH236684   2.863   0.625  12.638  0.2548  0.5016  0.0799
 5090TIP3    H136685   2.910   0.646  12.557 -1.1000  1.4523 -0.5029
 5090TIP3    H236686   2.920   0.563  12.684  1.5920  0.8549 -1.0422
 5091TIP3   OH236687   2.052   3.014   4.796 -0.3624 -0.2618 -0.4492
 5091TIP3    H136688   2.099   2.939   4.759 -2.3883 -1.6294 -0.3619
 5091TIP3    H236689   2.003   3.050   4.723  0.5748  1.0214 -0.4813
 5092TIP3   OH236690   4.525   5.976   1.189 -0.0022 -0.3167  0.1060
 5092TIP3    H136691   4.543   5.883   1.202 -2.4743 -1.0062 -0.7288
 5092TIP3    H236692   4.436   5.978   1.153  1.8255  2.0044 -5.3094
 5093TIP3   OH236693   5.642   1.419  16.330  0.4430 -0.6104  0.5995
 5093TIP3    H136694   5.581   1.405  16.257  1.3090  0.0989 -0.2891
 5093TIP3    H236695   5.661   1.513  16.327  2.1154 -0.9364  0.4303
 5094TIP3   OH236696   5.608   4.305  15.648 -0.8558  0.7413 -0.2689
 5094TIP3    H136697   5.612   4.375  15.583  0.7557  0.6727 -0.3002
 5094TIP3    H236698   5.651   4.342  15.726 -0.9148  0.1418  0.0534
 5095TIP3   OH236699   0.263   4.443  15.690  0.5602  0.5481  0.1647
 5095TIP3    H136700   0.209   4.489  15.755  0.2708 -0.8972  0.9848
 5095TIP3    H236701   0.353   4.459  15.718  0.6324  2.8900 -1.1519
 5096TIP3   OH236702   1.046   2.323  13.143 -0.5020  0.1217 -0.1879
 5096TIP3    H136703   1.009   2.266  13.211  0.2903  0.0350  0.1770
 5096TIP3    H236704   1.119   2.273  13.106 -0.1001  0.7021 -0.1898
 5097TIP3   OH236705   3.795   1.467   3.605  0.3788  0.3110  0.2622
 5097TIP3    H136706   3.782   1.498   3.515  1.9487  3.6665  1.0479
 5097TIP3    H236707   3.717   1.496   3.652  0.4602  0.3439  0.3767
 5098TIP3   OH236708   0.407   1.522  11.347  0.2507 -0.0093 -0.2159
 5098TIP3    H136709   0.367   1.442  11.310 -0.2258  0.0752  0.1113
 5098TIP3    H236710   0.459   1.557  11.275  0.6373 -0.7302 -0.2999
 5099TIP3   OH236711   6.196   4.066  12.453 -0.4288 -0.0168  0.1247
 5099TIP3    H136712   6.116   4.014  12.453  0.7276 -1.9061  0.5525
 5099TIP3    H236713   6.227   4.060  12.544 -0.3599  1.6436  0.2403
 5100TIP3   OH236714   5.429   1.115  13.971 -0.3083  0.3014 -0.3485
 5100TIP3    H136715   5.343   1.111  13.929 -0.2731 -3.0362 -0.3272
 5100TIP3    H236716   5.415   1.080  14.059  0.8075  1.3081  0.2682
 5101TIP3   OH236717   4.701   4.724  11.551  0.5195  0.0044 -0.1684
 5101TIP3    H136718   4.692   4.708  11.645  0.1285 -1.4943 -0.4395
 5101TIP3    H236719   4.633   4.789  11.531 -0.6804 -1.0864  0.2499
 5102TIP3   OH236720   0.067   5.505  16.392  0.3144  0.3581 -0.2518
 5102TIP3    H136721   0.089   5.541  16.478  0.7736  0.6026 -0.4705
 5102TIP3    H236722  -0.019   5.542  16.372  0.1044  0.1219  0.1992
 5103TIP3   OH236723   4.291   3.704   0.555 -0.0373  0.4023 -0.5341
 5103TIP3    H136724   4.215   3.664   0.511  0.2349  0.1186 -0.7541
 5103TIP3    H236725   4.366   3.681   0.500  0.4567 -0.8016  0.5742
 5104TIP3   OH236726   4.515   0.618  16.826 -0.3015  0.6499 -0.5680
 5104TIP3    H136727   4.581   0.557  16.857 -1.1697  0.4279  0.9996
 5104TIP3    H236728   4.505   0.681  16.898 -1.4300  0.9545 -0.9626
 5105TIP3   OH236729   5.514   3.744   1.783 -0.1438 -0.3927  0.0040
 5105TIP3    H136730   5.470   3.806   1.725  1.0863  0.1306 -0.3990
 5105TIP3    H236731   5.588   3.712   1.731  0.2352 -0.8742  0.8366
 5106TIP3   OH236732   2.963   4.653  14.534  0.2269  0.2956  0.7362
 5106TIP3    H136733   2.917   4.657  14.450  2.1328  0.3231 -0.3415
 5106TIP3    H236734   3.052   4.680  14.514  0.7077  0.3651  2.8025
 5107TIP3   OH236735   4.036   1.412  12.987 -0.1390 -0.0118  0.1353
 5107TIP3    H136736   4.004   1.475  13.051  0.3640  0.5986 -0.2021
 5107TIP3    H236737   4.122   1.445  12.962  0.0992 -0.8014 -0.0990
 5108TIP3   OH236738   5.793   0.616  11.152  0.3993 -0.4931  0.4888
 5108TIP3    H136739   5.812   0.686  11.089 -0.8044 -2.6760 -2.5580
 5108TIP3    H236740   5.706   0.636  11.185  0.7078  0.2412  0.8953
 5109TIP3   OH236741   2.037   1.988  17.135  0.5332 -0.4387  0.0449
 5109TIP3    H136742   2.029   1.905  17.181 -1.1528 -0.1657  0.3142
 5109TIP3    H236743   1.954   1.998  17.089  0.6896  1.1038  0.0385
 5110TIP3   OH236744   4.356   1.456   1.998  0.5797  0.6149 -0.0601
 5110TIP3    H136745   4.398   1.447   2.083 -0.4828  0.8598  0.5067
 5110TIP3    H236746   4.408   1.401   1.939  0.2396 -1.0657  1.1356
 5111TIP3   OH236747   6.278   1.245   1.206  0.4433  0.3492 -0.1595
 5111TIP3    H136748   6.279   1.278   1.296 -0.9140 -1.9125  0.7956
 5111TIP3    H236749   6.291   1.150   1.216 -0.1116 -0.0093 -2.3108
 5112TIP3   OH236750   6.326   1.590   4.933 -0.0450 -0.2635 -0.4981
 5112TIP3    H136751   6.270   1.652   4.980  0.2085 -0.1369 -0.3593
 5112TIP3    H236752   6.338   1.629   4.847  0.3334  0.0149 -0.3219
 5113TIP3   OH236753   6.484   2.943   0.056  0.1693 -0.1462  0.2044
 5113TIP3    H136754   6.470   2.985   0.141  0.0901 -0.5810  0.4071
 5113TIP3    H236755   6.573   2.908   0.061 -0.4393 -1.6987  0.7745
 5114TIP3   OH236756   2.667   5.837  17.214 -0.3798 -0.3515  0.0371
 5114TIP3    H136757   2.631   5.897  17.280  0.3058  0.1241 -0.0064
 5114TIP3    H236758   2.753   5.814  17.248  0.3063  0.5144 -1.0478
 5115TIP3   OH236759   3.889   4.328  15.045 -0.1485  0.1917  0.5806
 5115TIP3    H136760   3.966   4.271  15.040 -1.0387 -1.0093  0.1925
 5115TIP3    H236761   3.872   4.353  14.954 -0.5095  0.0286  0.6003
 5116TIP3   OH236762   2.769   0.512  11.973  0.0498 -0.0529  0.6029
 5116TIP3    H136763   2.795   0.596  11.936 -2.1307  0.1701 -0.6544
 5116TIP3    H236764   2.701   0.534  12.037  0.0365 -0.7928  0.8486
 5117TIP3   OH236765   6.505   0.362  14.056  0.1026 -0.0642  0.7086
 5117TIP3    H136766   6.484   0.426  14.124 -0.1387  2.0226 -1.2130
 5117TIP3    H236767   6.435   0.371  13.992  1.4816 -0.3227 -0.9095
 5118TIP3   OH236768   3.825   1.334   1.580 -0.0481 -0.8698  0.1681
 5118TIP3    H136769   3.777   1.279   1.517  0.8096 -0.5356 -0.8199
 5118TIP3    H236770   3.822   1.421   1.542 -0.4992 -0.4274  1.2005
 5119TIP3   OH236771   5.721   3.297   5.794 -0.0778 -0.1223  0.1583
 5119TIP3    H136772   5.701   3.334   5.880  0.5349 -2.0854  1.2024
 5119TIP3    H236773   5.816   3.286   5.795 -0.0851 -0.2742 -0.7236
 5120TIP3   OH236774   4.296   0.129   2.801 -0.0598 -0.1725 -0.4885
 5120TIP3    H136775   4.312   0.172   2.885  0.7006 -0.5294 -0.4408
 5120TIP3    H236776   4.282   0.201   2.739 -1.3847  0.0854  0.0718
 5121TIP3   OH236777   5.629   6.199  17.246 -0.6072  0.1733 -0.3194
 5121TIP3    H136778   5.710   6.238  17.212  0.6861 -0.1164  2.2260
 5121TIP3    H236779   5.648   6.105  17.250 -0.9112  0.1456  0.6467
 5122TIP3   OH236780   1.401   2.483   1.693 -0.0293 -0.2641 -0.9645
 5122TIP3    H136781   1.324   2.459   1.746  0.8955 -2.0715 -0.3303
 5122TIP3    H236782   1.370   2.479   1.603 -0.3257 -2.8131 -0.8441
 5123TIP3   OH236783   6.705   6.404  15.897  0.3190  0.0841  0.3363
 5123TIP3    H136784   6.698   6.418  15.991  0.6356 -2.2263  0.7683
 5123TIP3    H236785   6.784   6.351  15.887 -0.7911 -1.4058 -0.9931
 5124TIP3   OH236786   3.778   3.250  16.328  0.6251 -0.2840  0.2285
 5124TIP3    H136787   3.844   3.182  16.336  1.6688  0.7088  0.2938
 5124TIP3    H236788   3.810   3.307  16.258  1.5049  1.9753  2.3094
 5125TIP3   OH236789   3.107   2.031  13.082 -0.1422 -0.2293  0.1502
 5125TIP3    H136790   3.035   1.974  13.057 -0.7777  0.6126  0.0010
 5125TIP3    H236791   3.163   1.977  13.137 -1.5920 -0.5262  1.4010
 5126TIP3   OH236792   6.358   5.808   4.453  0.1285  0.2410  0.1351
 5126TIP3    H136793   6.446   5.819   4.417 -0.6050  0.8516 -1.5720
 5126TIP3    H236794   6.372   5.786   4.545  2.0630 -0.1037 -0.2106
 5127TIP3   OH236795   5.059   2.873   0.887  0.4722  0.1553 -0.4628
 5127TIP3    H136796   5.064   2.782   0.916 -0.4736 -0.3284 -1.6932
 5127TIP3    H236797   5.094   2.872   0.798  0.2944  0.9647 -0.5552
 5128TIP3   OH236798   2.421   6.497   1.084 -0.1203 -0.4488 -0.3440
 5128TIP3    H136799   2.486   6.564   1.061 -1.7203  1.1437 -0.4915
 5128TIP3    H236800   2.440   6.475   1.175  1.3056 -0.8550 -0.7197
 5129TIP3   OH236801   5.095   2.283   3.272  0.4265 -0.3742 -0.2246
 5129TIP3    H136802   5.090   2.302   3.179 -0.5504 -0.2990 -0.1651
 5129TIP3    H236803   5.086   2.368   3.314 -0.6926 -0.5822 -0.0303
 5130TIP3   OH236804   2.998   6.154   1.623 -0.0020  0.4092 -0.0779
 5130TIP3    H136805   2.906   6.129   1.629 -0.1987  1.0250 -0.4466
 5130TIP3    H236806   3.007   6.194   1.537  0.1309  2.1974  0.7188
 5131TIP3   OH236807   0.804   5.605   2.655 -0.2322  0.3773 -0.0922
 5131TIP3    H136808   0.714   5.638   2.666 -0.5043 -0.1081 -0.7817
 5131TIP3    H236809   0.835   5.590   2.744 -1.3743 -0.8316  0.1408
 5132TIP3   OH236810   2.522   2.286   4.488 -0.5708  0.1883  0.0986
 5132TIP3    H136811   2.534   2.381   4.493  1.0955 -0.0069  0.2812
 5132TIP3    H236812   2.487   2.271   4.400  0.0278  0.9061 -0.2782
 5133TIP3   OH236813   5.572   5.394   4.688 -0.2202 -0.5064  0.0693
 5133TIP3    H136814   5.632   5.339   4.739 -0.1822 -0.3954  0.1453
 5133TIP3    H236815   5.550   5.466   4.747  0.5130  0.0959 -0.3731
 5134TIP3   OH236816   5.619   3.386   0.786 -0.4566 -0.1694 -0.0373
 5134TIP3    H136817   5.679   3.402   0.859 -0.1350 -0.4111 -0.2440
 5134TIP3    H236818   5.648   3.447   0.718  0.9668 -1.7875 -0.9394
 5135TIP3   OH236819   2.793   4.230   2.937 -0.5079  0.2028 -0.0732
 5135TIP3    H136820   2.782   4.136   2.953 -0.9198  0.1558 -0.5897
 5135TIP3    H236821   2.866   4.236   2.876 -1.0311  0.1530 -0.7145
 5136TIP3   OH236822   4.547   2.095   6.103  0.0705 -0.7282  0.3383
 5136TIP3    H136823   4.465   2.099   6.152  0.1391 -0.0914  0.4123
 5136TIP3    H236824   4.609   2.055   6.164  0.4219  0.9993  1.1895
 5137TIP3   OH236825   0.322   1.649   3.877 -0.6272 -0.1633  0.3537
 5137TIP3    H136826   0.296   1.696   3.797 -0.6601  0.2938  0.6334
 5137TIP3    H236827   0.369   1.572   3.844 -1.9108 -0.7483 -0.1431
 5138TIP3   OH236828   4.726   4.801   1.852  0.1671  0.3748 -0.3592
 5138TIP3    H136829   4.745   4.742   1.924 -1.6939  0.7511  0.4829
 5138TIP3    H236830   4.717   4.887   1.893 -1.3024  0.5274 -0.9657
 5139TIP3   OH236831   0.040   1.373  13.324 -0.2474 -0.3040  0.3674
 5139TIP3    H136832  -0.030   1.396  13.263  0.7604 -0.5678 -0.9485
 5139TIP3    H236833   0.056   1.452  13.374 -0.2944  0.3078 -0.5610
 5140TIP3   OH236834   0.794   1.583  14.428 -0.6780 -0.4841 -0.3922
 5140TIP3    H136835   0.799   1.488  14.437 -0.4143 -0.5895 -1.5168
 5140TIP3    H236836   0.763   1.598  14.338 -0.7901  0.4912 -0.2089
 5141TIP3   OH236837   0.023   2.952  13.110  0.5290  0.0217  0.4921
 5141TIP3    H136838   0.059   2.911  13.189  0.1726 -0.3688  0.4509
 5141TIP3    H236839   0.058   2.901  13.038 -0.0919 -0.3551  0.4510
 5142TIP3   OH236840   1.572   0.722   2.117  0.4452 -0.1694  0.2574
 5142TIP3    H136841   1.641   0.657   2.132  1.1077  0.6412  0.7954
 5142TIP3    H236842   1.565   0.770   2.199 -0.3807  0.1350  0.0271
 5143TIP3   OH236843   0.699   0.245  14.434 -0.3718  0.3407  0.1921
 5143TIP3    H136844   0.759   0.172  14.448 -1.6758 -1.2152 -1.8730
 5143TIP3    H236845   0.753   0.323  14.450  1.9214 -0.9958 -0.5032
 5144TIP3   OH236846   3.826   5.660  11.799 -0.2005  0.4208 -0.3991
 5144TIP3    H136847   3.788   5.747  11.789  0.1830  0.7676  0.9808
 5144TIP3    H236848   3.751   5.603  11.818 -0.1491  1.0438  1.9846
 5145TIP3   OH236849   1.869   6.469  11.180 -0.0807 -0.2764 -0.0560
 5145TIP3    H136850   1.836   6.454  11.091 -0.5118 -1.5623  0.2944
 5145TIP3    H236851   1.871   6.381  11.219 -0.4913  0.3479  1.4140
 5146TIP3   OH236852   0.553   5.856  12.144  0.2514  0.2176  0.2878
 5146TIP3    H136853   0.638   5.818  12.165  0.2972  1.3853  2.5448
 5146TIP3    H236854   0.491   5.808  12.198 -0.3183  0.4028 -0.1859
 5147TIP3   OH236855   2.338   5.416   1.480  0.0380 -0.1575  0.1209
 5147TIP3    H136856   2.299   5.471   1.548  1.3248  1.3212 -0.2933
 5147TIP3    H236857   2.300   5.448   1.398  1.0072  0.3309 -0.1477
 5148TIP3   OH236858   5.311   1.900  15.943  0.1909 -1.0419 -0.2808
 5148TIP3    H136859   5.312   1.932  16.033 -0.8013 -1.4896 -0.0946
 5148TIP3    H236860   5.400   1.866  15.928  0.3525 -0.9858  0.5366
 5149TIP3   OH236861   5.097   3.976   4.662 -0.4855 -0.9051  0.0559
 5149TIP3    H136862   5.143   4.060   4.669  1.2120 -1.6526 -1.3186
 5149TIP3    H236863   5.087   3.948   4.753  1.1557 -0.3262  0.4653
 5150TIP3   OH236864   6.633   1.287  14.030 -0.2281  0.1464  0.4495
 5150TIP3    H136865   6.564   1.221  14.035 -2.7283  2.5571  0.3588
 5150TIP3    H236866   6.625   1.323  13.941  0.8528  0.7621  0.5931
 5151TIP3   OH236867   0.035   4.255   5.656 -0.5598 -0.3227 -0.3679
 5151TIP3    H136868   0.117   4.297   5.628 -1.2877  0.6880 -1.0688
 5151TIP3    H236869   0.047   4.163   5.633  0.5083 -0.2577 -0.1495
 5152TIP3   OH236870   5.574   5.407   3.977  0.0506  0.1379 -0.0532
 5152TIP3    H136871   5.536   5.435   4.060 -0.5934  0.2103 -0.3601
 5152TIP3    H236872   5.611   5.321   3.994 -3.1725 -1.4711 -0.5124
 5153TIP3   OH236873   2.028   2.196   6.013 -0.0415 -0.4649 -0.2742
 5153TIP3    H136874   1.964   2.250   6.059  0.2628  1.9080 -2.4434
 5153TIP3    H236875   2.105   2.196   6.070 -0.5521  0.1464  0.4356
 5154TIP3   OH236876   1.905   2.001  11.709 -0.1616 -0.0260 -0.5073
 5154TIP3    H136877   1.918   1.911  11.679  1.0354 -0.4776  1.1933
 5154TIP3    H236878   1.983   2.020  11.761 -0.1008  2.2322 -1.3275
 5155TIP3   OH236879   3.510   3.696  15.763 -0.0037 -0.0528 -0.2232
 5155TIP3    H136880   3.489   3.606  15.735  4.0133 -1.3381  0.2591
 5155TIP3    H236881   3.448   3.714  15.834  0.0985 -3.1821  0.8243
 5156TIP3   OH236882   1.526   6.541   0.565  0.4077 -0.0677 -0.3453
 5156TIP3    H136883   1.448   6.499   0.599  0.7816  0.4451  1.2296
 5156TIP3    H236884   1.591   6.471   0.559  0.7384  0.0421  1.3550
 5157TIP3   OH236885   3.283   1.975  16.440  0.5675  0.1727 -0.0146
 5157TIP3    H136886   3.208   2.028  16.466  0.2130 -0.1376 -0.3975
 5157TIP3    H236887   3.357   2.014  16.487 -0.2551 -1.2810  2.7385
 5158TIP3   OH236888   4.137   4.586   2.901 -0.1053  0.2916  0.4642
 5158TIP3    H136889   4.042   4.585   2.895 -0.0150  1.4262 -2.3002
 5158TIP3    H236890   4.155   4.638   2.980 -1.7396 -0.1525  1.1746
 5159TIP3   OH236891   2.559   5.461  10.528 -0.7027 -0.0599  0.5898
 5159TIP3    H136892   2.584   5.411  10.605  0.0248  1.1889  1.1976
 5159TIP3    H236893   2.614   5.539  10.531 -0.5728 -0.0336 -1.2693
 5160TIP3   OH236894   4.110   3.293  17.236 -0.3556 -0.3503  0.0436
 5160TIP3    H136895   4.059   3.234  17.181 -1.9057  0.8802  0.0832
 5160TIP3    H236896   4.048   3.323  17.303  0.0291  2.1154 -0.6041
 5161TIP3   OH236897   6.271   4.317   5.376 -0.2167 -0.0431  0.2440
 5161TIP3    H136898   6.181   4.310   5.343 -0.4782 -3.9783  1.2492
 5161TIP3    H236899   6.324   4.270   5.311  0.7386  0.2396  0.7985
 5162TIP3   OH236900   0.273   3.215  10.543  0.2515 -0.1776  0.0236
 5162TIP3    H136901   0.321   3.297  10.536  0.8340 -0.3931  1.2797
 5162TIP3    H236902   0.296   3.168  10.462 -0.8508  1.2418 -1.1809
 5163TIP3   OH236903   6.541   2.236  11.613 -0.2350 -0.0293 -0.1863
 5163TIP3    H136904   6.520   2.146  11.636 -1.9143  0.0631 -1.2424
 5163TIP3    H236905   6.497   2.251  11.529 -1.0650  2.1513  0.5655
 5164TIP3   OH236906   0.587   1.721   3.938 -0.6884 -0.0239 -0.1832
 5164TIP3    H136907   0.626   1.702   4.024 -0.6806 -0.4849 -0.2876
 5164TIP3    H236908   0.494   1.705   3.949 -0.5595 -1.0436 -0.5262
 5165TIP3   OH236909   2.477   2.419  11.202  0.5568 -0.1398  0.3353
 5165TIP3    H136910   2.490   2.325  11.190 -0.6068 -0.3264  0.4197
 5165TIP3    H236911   2.565   2.454  11.213  1.0158 -1.2009  0.1777
 5166TIP3   OH236912   2.452   0.629   3.239 -0.3045  0.2489 -0.2761
 5166TIP3    H136913   2.451   0.613   3.145  0.1513 -1.8953  0.0255
 5166TIP3    H236914   2.542   0.609   3.266 -0.0635  2.1219  0.4505
 5167TIP3   OH236915   3.848   3.072   1.076  0.2824  0.1157  0.3370
 5167TIP3    H136916   3.832   2.980   1.057  1.1445 -0.0107  0.1511
 5167TIP3    H236917   3.866   3.112   0.991 -3.1263  1.1654 -0.0290
 5168TIP3   OH236918   0.334   6.769   5.981  0.7034 -0.0801  1.0329
 5168TIP3    H136919   0.307   6.683   6.013 -2.4620  0.5319  0.3685
 5168TIP3    H236920   0.314   6.767   5.888  1.3062  1.1584  0.8571
 5169TIP3   OH236921   1.225   3.695   0.185  0.0529 -0.1796  0.1415
 5169TIP3    H136922   1.310   3.740   0.177 -0.1586  0.1977  0.0179
 5169TIP3    H236923   1.249   3.604   0.204  0.4878  0.0449  0.7447
 5170TIP3   OH236924   3.704   4.176   1.821  1.0819 -0.8336  0.1219
 5170TIP3    H136925   3.623   4.125   1.824  0.6143 -0.1409 -0.4529
 5170TIP3    H236926   3.728   4.178   1.728  0.5855  0.7582  0.0074
 5171TIP3   OH236927   0.855   6.761  15.693 -0.1602 -0.0216 -0.2053
 5171TIP3    H136928   0.774   6.717  15.721  0.8253 -2.3576 -0.8185
 5171TIP3    H236929   0.838   6.785  15.602 -0.4303  0.2258 -0.0948
 5172TIP3   OH236930   1.794   2.150  13.802 -0.1979 -0.2057 -0.0008
 5172TIP3    H136931   1.867   2.132  13.743 -0.6689  1.0672 -1.0145
 5172TIP3    H236932   1.822   2.116  13.887  2.7562  2.6334  0.3235
 5173TIP3   OH236933   2.490   1.826  14.212 -0.2828  0.2476 -0.3771
 5173TIP3    H136934   2.455   1.913  14.229  0.0684  0.4321 -0.5815
 5173TIP3    H236935   2.462   1.806  14.122 -1.4742 -0.4002  0.1085
 5174TIP3   OH236936   4.251   0.780  12.512  0.0568 -0.5121 -0.1241
 5174TIP3    H136937   4.213   0.825  12.437  1.6524  0.3224 -0.4841
 5174TIP3    H236938   4.190   0.797  12.584 -1.2756 -0.9741 -1.1185
 5175TIP3   OH236939   5.994   0.749  10.786 -0.5702 -0.5017 -0.3248
 5175TIP3    H136940   5.908   0.743  10.829 -0.8636 -1.1495 -0.9724
 5175TIP3    H236941   6.016   0.658  10.765  0.5813 -0.4083  0.4013
 5176TIP3   OH236942   2.496   1.487   4.349  0.0846 -0.3301 -0.2996
 5176TIP3    H136943   2.460   1.575   4.332 -0.4768 -0.2529  1.1057
 5176TIP3    H236944   2.563   1.501   4.416  0.9947 -0.8080 -1.0942
 5177TIP3   OH236945   4.815   4.156   2.457 -0.6122  0.0303 -0.0770
 5177TIP3    H136946   4.804   4.160   2.362  0.0548 -1.6590 -0.2592
 5177TIP3    H236947   4.782   4.069   2.481 -0.3244  0.2502  1.1753
 5178TIP3   OH236948   1.408   5.907   6.449 -0.1368 -0.0710  0.2839
 5178TIP3    H136949   1.415   5.885   6.356  1.0284  0.2566  0.2753
 5178TIP3    H236950   1.362   5.833   6.488  1.2919 -1.2747 -0.2044
 5179TIP3   OH236951   1.838   0.940  16.546 -0.3567 -0.0458 -0.1686
 5179TIP3    H136952   1.903   0.884  16.505 -0.5600 -0.4888  0.1077
 5179TIP3    H236953   1.765   0.943  16.483 -0.5604 -0.5152  0.0379
 5180TIP3   OH236954   3.078   2.298  16.944 -0.6617  0.7595 -0.9156
 5180TIP3    H136955   3.139   2.278  17.016 -1.7484  1.4584  0.2406
 5180TIP3    H236956   3.123   2.266  16.866  0.2777 -0.6731  0.1385
 5181TIP3   OH236957   2.201   2.839  11.586  0.1273 -0.8022 -0.1511
 5181TIP3    H136958   2.247   2.793  11.656  0.4118 -1.8050 -0.9689
 5181TIP3    H236959   2.267   2.849  11.517  0.0734  0.8530 -0.0060
 5182TIP3   OH236960   2.497   0.148  10.833  0.5428 -0.3348 -0.0072
 5182TIP3    H136961   2.502   0.068  10.781  1.0923 -1.0220  1.0595
 5182TIP3    H236962   2.572   0.200  10.803 -0.8205  0.6441 -1.9874
 5183TIP3   OH236963   0.937   1.308  16.268  0.8397  0.7524 -0.3604
 5183TIP3    H136964   0.994   1.261  16.208  0.2097 -0.2439 -0.1970
 5183TIP3    H236965   0.849   1.297  16.233  0.6204  1.4017 -0.0484
 5184TIP3   OH236966   1.482   5.532   2.467  0.2507  0.0585  0.5720
 5184TIP3    H136967   1.499   5.596   2.398  2.5017  0.1311  1.0903
 5184TIP3    H236968   1.481   5.584   2.548 -2.3270 -0.0282  0.6724
 5185TIP3   OH236969   2.350   2.868   6.443  0.4264 -0.3332 -0.2480
 5185TIP3    H136970   2.256   2.882   6.454  0.4779  0.2772 -0.5789
 5185TIP3    H236971   2.368   2.790   6.496 -0.0427  0.2663  0.8406
 5186TIP3   OH236972   2.121   1.970   5.449 -0.1849 -0.3764  0.0399
 5186TIP3    H136973   2.139   1.914   5.373  0.0841 -0.2319 -0.0039
 5186TIP3    H236974   2.030   1.997   5.438 -0.7159 -1.7898  0.6948
 5187TIP3   OH236975   0.631   2.724   5.476  0.3462  0.7627 -0.5895
 5187TIP3    H136976   0.633   2.708   5.570  2.7506 -0.0519 -0.7064
 5187TIP3    H236977   0.538   2.726   5.453 -0.2768  0.8113  1.7490
 5188TIP3   OH236978   0.795   0.314  12.096 -0.2256 -0.3550 -0.4843
 5188TIP3    H136979   0.827   0.372  12.165  0.5387 -1.4652  0.1076
 5188TIP3    H236980   0.777   0.374  12.023 -0.9000  0.8138  0.5982
 5189TIP3   OH236981   5.955   2.554  12.172  0.1794 -0.6231 -0.2234
 5189TIP3    H136982   5.875   2.505  12.193  0.3986 -0.7431  0.3600
 5189TIP3    H236983   5.969   2.611  12.247  0.4690 -0.3778 -0.4617
 5190TIP3   OH236984   0.345   6.036   5.378  0.3082  1.1074  0.3625
 5190TIP3    H136985   0.313   6.069   5.294  1.4210  1.1184 -0.0656
 5190TIP3    H236986   0.268   6.039   5.435 -0.3175  1.6670 -0.4812
 5191TIP3   OH236987   3.969   5.663   5.612  0.3971 -0.2853 -0.2168
 5191TIP3    H136988   4.028   5.602   5.657 -0.4035 -0.8514  0.0983
 5191TIP3    H236989   4.018   5.745   5.607  0.6946 -0.3373  1.3112
 5192TIP3   OH236990   4.039   3.329   4.106  0.9126 -0.3791  0.2089
 5192TIP3    H136991   4.032   3.238   4.134  1.0735 -0.3002  0.5128
 5192TIP3    H236992   4.027   3.380   4.186 -0.8226 -0.0701 -0.1942
 5193TIP3   OH236993   4.906   2.065  15.278  0.1268 -0.2444 -0.6146
 5193TIP3    H136994   4.957   2.101  15.351 -0.9628  1.2491 -0.5665
 5193TIP3    H236995   4.844   2.006  15.320  1.1867 -1.4103 -0.6009
 5194TIP3   OH236996   2.162   6.375  16.140 -0.2188 -0.0416  0.1306
 5194TIP3    H136997   2.198   6.444  16.197 -0.7246 -0.5931  1.1556
 5194TIP3    H236998   2.226   6.366  16.070  0.4454  0.6502  0.6288
 5195TIP3   OH236999   1.866   6.457   6.322  0.4636  0.2015  0.3532
 5195TIP3    H137000   1.894   6.369   6.347  0.9302  0.5172  0.9592
 5195TIP3    H237001   1.948   6.508   6.317  0.0377  1.1280  2.0786
 5196TIP3   OH237002   2.615   2.471  13.574 -0.1174  0.2028 -0.3811
 5196TIP3    H137003   2.595   2.379  13.591  0.2777 -0.1716 -1.7772
 5196TIP3    H237004   2.532   2.517  13.591 -0.5044 -0.4973 -0.3309
 5197TIP3   OH237005   5.116   4.360  11.322 -0.3457 -0.2709  0.4755
 5197TIP3    H137006   5.145   4.387  11.235 -0.0887  0.1827  0.6997
 5197TIP3    H237007   5.136   4.434  11.378  0.5484 -0.9933  1.1414
 5198TIP3   OH237008   5.084   2.127   0.494 -0.6760  0.1979 -0.0777
 5198TIP3    H137009   5.015   2.067   0.465 -0.2935  0.4374 -1.5760
 5198TIP3    H237010   5.142   2.073   0.548 -2.3256  0.1301  1.7171
 5199TIP3   OH237011   4.363   1.700   3.930  0.5814 -0.5072  0.1327
 5199TIP3    H137012   4.371   1.791   3.957 -1.1445  0.0839 -1.1639
 5199TIP3    H237013   4.281   1.670   3.969 -0.0295 -0.7677 -1.2910
 5200TIP3   OH237014   6.458   2.215   1.205  0.4212  0.6445  0.0310
 5200TIP3    H137015   6.439   2.267   1.128 -1.3874 -0.8505 -0.6160
 5200TIP3    H237016   6.481   2.129   1.171  1.0902  0.3610  1.1314
 5201TIP3   OH237017   6.671   2.613   2.921 -0.2343  0.4099  0.0023
 5201TIP3    H137018   6.659   2.518   2.914  0.8322  0.3779 -2.3313
 5201TIP3    H237019   6.729   2.624   2.997 -0.3830 -0.7944  0.3150
 5202TIP3   OH237020   0.363   4.820  15.962  0.2076 -0.0408 -0.2852
 5202TIP3    H137021   0.353   4.832  16.057  1.4100  0.4201 -0.2049
 5202TIP3    H237022   0.434   4.879  15.937 -0.7319  0.5612 -1.6459
 5203TIP3   OH237023   1.337   1.223   2.006 -0.1395  0.1515 -0.7345
 5203TIP3    H137024   1.391   1.265   1.940  0.0199  1.0969 -0.0157
 5203TIP3    H237025   1.265   1.285   2.022 -1.1211 -0.8151 -1.2397
 5204TIP3   OH237026   0.250   6.399   0.438 -0.4520  0.0023 -0.4721
 5204TIP3    H137027   0.304   6.399   0.517  0.0527  0.6478 -0.7974
 5204TIP3    H237028   0.261   6.312   0.401 -1.7651 -0.7664  0.8586
 5205TIP3   OH237029   1.091   6.331  14.679 -0.2072 -0.0288  0.4589
 5205TIP3    H137030   1.008   6.330  14.632 -0.4987  1.7566  0.8608
 5205TIP3    H237031   1.073   6.378  14.760  0.5206 -2.1894  1.9610
 5206TIP3   OH237032   6.108   5.061   0.160 -0.1315 -0.2540  0.5270
 5206TIP3    H137033   6.104   5.072   0.255 -1.3395 -0.1611  0.4769
 5206TIP3    H237034   6.117   5.150   0.126 -1.3395 -0.1289  0.4965
 5207TIP3   OH237035   1.890   4.123  12.167  0.0623  0.0055  0.0660
 5207TIP3    H137036   1.973   4.131  12.213  0.8934  1.1195 -1.4979
 5207TIP3    H237037   1.824   4.123  12.236  1.3677 -1.5873  1.3843
 5208TIP3   OH237038   2.264   3.704  12.606  0.2614  0.2538 -0.0786
 5208TIP3    H137039   2.346   3.693  12.654 -1.2754 -1.4168  2.3738
 5208TIP3    H237040   2.270   3.638  12.536  1.1242  0.3724 -0.1333
 5209TIP3   OH237041   2.642   2.193   0.225  0.2450 -0.2240 -0.0444
 5209TIP3    H137042   2.583   2.119   0.240  1.5904 -1.5491 -1.0143
 5209TIP3    H237043   2.625   2.219   0.134 -1.8051  2.1962  0.9098
 5210TIP3   OH237044   0.547   5.048  16.127  0.0970  0.1952  0.6010
 5210TIP3    H137045   0.491   5.079  16.056 -0.8600 -0.6308  0.9656
 5210TIP3    H237046   0.514   5.094  16.205 -0.2905 -0.5122  0.8689
 5211TIP3   OH237047   5.629   5.782  16.266  0.2257 -0.1151  0.4955
 5211TIP3    H137048   5.716   5.804  16.235 -0.0313  0.3477  0.0839
 5211TIP3    H237049   5.643   5.730  16.345  0.8643  0.1189  0.5355
 5212TIP3   OH237050   4.599   5.172  14.925  0.1377  0.3789  0.0260
 5212TIP3    H137051   4.617   5.079  14.941  0.6795  0.5489  0.4150
 5212TIP3    H237052   4.503   5.177  14.922  0.0916 -0.5063 -1.8733
 5213TIP3   OH237053   5.884   3.835   4.617  0.4988  0.2104  0.0526
 5213TIP3    H137054   5.871   3.740   4.619  1.5276  0.0691  0.5779
 5213TIP3    H237055   5.891   3.860   4.709 -0.5978  0.9300 -0.0424
 5214TIP3   OH237056   6.297   3.367  14.789 -0.6578 -0.1745 -0.1328
 5214TIP3    H137057   6.305   3.291  14.731 -0.3167 -1.2550  1.2898
 5214TIP3    H237058   6.205   3.369  14.813 -0.4227 -0.9622  0.8841
 5215TIP3   OH237059   0.999   0.925  15.418  0.6813  0.2895 -0.6352
 5215TIP3    H137060   0.928   0.964  15.470  0.6100  1.1108 -1.3374
 5215TIP3    H237061   1.045   0.868  15.480  0.2852  0.8529  0.1943
 5216TIP3   OH237062   0.200   6.309   3.848 -0.2728 -0.3416  0.0780
 5216TIP3    H137063   0.154   6.239   3.802  1.3109 -0.6541 -1.0996
 5216TIP3    H237064   0.180   6.388   3.797  0.9404 -0.5783 -0.7994
 5217TIP3   OH237065   0.454   4.890   5.059 -0.2352  0.4156 -0.1920
 5217TIP3    H137066   0.521   4.863   5.121  0.6064  0.8770 -0.8771
 5217TIP3    H237067   0.502   4.929   4.986 -1.2481  0.8453 -0.6649
 5218TIP3   OH237068   1.673   6.305  15.876 -0.0958 -0.2527  0.3137
 5218TIP3    H137069   1.711   6.223  15.908 -0.8150 -0.5239  0.4758
 5218TIP3    H237070   1.689   6.368  15.946  0.3296 -0.2842  0.2491
 5219TIP3   OH237071   6.225   5.081   1.458 -0.3121 -0.9103 -0.1635
 5219TIP3    H137072   6.267   4.995   1.460  0.2428 -0.6461 -0.1607
 5219TIP3    H237073   6.281   5.136   1.513 -0.2992 -0.3863 -0.6893
 5220TIP3   OH237074   3.121   4.247  14.513 -0.3726  0.2479  0.1687
 5220TIP3    H137075   3.153   4.326  14.557  0.8608 -0.3726  0.4222
 5220TIP3    H237076   3.128   4.178  14.579 -3.7945  0.3280  0.7990
 5221TIP3   OH237077   0.110   1.689   4.381  0.0092 -0.4305  0.8584
 5221TIP3    H137078   0.128   1.749   4.454 -1.0972 -0.6450  1.3292
 5221TIP3    H237079   0.035   1.728   4.336  0.0411 -0.8390  0.4413
 5222TIP3   OH237080   3.109   6.190   1.135 -0.3711  0.0605 -0.0812
 5222TIP3    H137081   3.108   6.190   1.040 -0.2849  2.4188 -0.1374
 5222TIP3    H237082   3.081   6.102   1.159  0.9454 -1.0385 -2.2572
 5223TIP3   OH237083   0.446   6.152  17.246  0.5948 -0.0861 -0.0134
 5223TIP3    H137084   0.540   6.152  17.264  0.5069  2.1925  0.7539
 5223TIP3    H237085   0.407   6.099  17.316  1.1499  0.4665  0.7223
 5224TIP3   OH237086   0.017   3.039  16.032  0.0952  0.0023 -0.1228
 5224TIP3    H137087   0.012   2.969  16.098 -2.4536  0.6250  0.4658
 5224TIP3    H237088   0.064   3.109  16.075  1.2565 -0.7447 -0.1402
 5225TIP3   OH237089   2.020   0.785  12.925  0.2162  0.1638  0.1023
 5225TIP3    H137090   2.078   0.816  12.994  0.0197  0.0498  0.3192
 5225TIP3    H237091   2.034   0.846  12.852 -0.1176  0.7252  0.5020
 5226TIP3   OH237092   1.805   3.926  15.599 -0.3603 -0.2034 -0.3755
 5226TIP3    H137093   1.731   3.965  15.553 -0.1709  0.4341 -0.1358
 5226TIP3    H237094   1.877   3.988  15.586  0.0459 -0.6588 -0.3263
 5227TIP3   OH237095   2.633   3.707   6.747  0.7292 -0.4548  0.1056
 5227TIP3    H137096   2.636   3.636   6.812  0.0395  1.5589  2.4979
 5227TIP3    H237097   2.569   3.676   6.683 -0.7012 -1.4323  1.8806
 5228TIP3   OH237098   3.866   6.228   5.812  1.0167  0.0510 -0.2610
 5228TIP3    H137099   3.866   6.283   5.734 -0.8281  1.1841  0.4807
 5228TIP3    H237100   3.953   6.241   5.850  0.5572  2.7684  0.0577
 5229TIP3   OH237101   3.788   2.816   0.967 -0.0368  0.6092  0.6457
 5229TIP3    H137102   3.758   2.726   0.953 -1.4210  0.8867  1.6135
 5229TIP3    H237103   3.842   2.835   0.890  0.0959 -0.9621  0.3135
 5230TIP3   OH237104   1.839   2.265   1.324 -0.1136 -0.7212  0.4967
 5230TIP3    H137105   1.906   2.299   1.264 -3.8245  1.4362 -2.9812
 5230TIP3    H237106   1.833   2.172   1.303  1.8391 -1.0301  1.0822
 5231TIP3   OH237107   2.191   6.055  14.500  0.1371 -0.0155  0.2836
 5231TIP3    H137108   2.236   6.021  14.423  0.2795 -1.5213  1.0046
 5231TIP3    H237109   2.255   6.050  14.571 -0.2237  0.6454  0.6709
 5232TIP3   OH237110   6.004   5.794   1.675  0.2542 -0.3101 -0.2009
 5232TIP3    H137111   5.977   5.706   1.699  1.2703 -0.7474 -0.6232
 5232TIP3    H237112   5.974   5.849   1.747  0.6184 -1.1608  0.6164
 5233TIP3   OH237113   6.324   0.182  13.239 -0.1379 -0.0437 -0.4547
 5233TIP3    H137114   6.323   0.142  13.152 -0.2815  1.0630 -0.9803
 5233TIP3    H237115   6.396   0.244  13.236  1.0711 -1.3178  0.8608
 5234TIP3   OH237116   2.560   5.717   1.689  0.2400  0.1878 -0.6639
 5234TIP3    H137117   2.571   5.800   1.642  0.4128 -0.9874 -2.8735
 5234TIP3    H237118   2.469   5.692   1.673 -0.4031  0.8393  1.6513
 5235TIP3   OH237119   5.151   2.732  16.536 -0.1376 -0.6488 -0.1559
 5235TIP3    H137120   5.148   2.794  16.609 -0.3195 -2.0022  1.0251
 5235TIP3    H237121   5.212   2.771  16.474 -2.0594  1.8815 -0.5819
 5236TIP3   OH237122   2.648   0.173   5.000 -0.1114 -0.1279 -0.1580
 5236TIP3    H137123   2.597   0.137   4.928  1.0032  0.5621 -1.3368
 5236TIP3    H237124   2.607   0.257   5.019 -0.3449 -0.2640 -0.0659
 5237TIP3   OH237125   1.676   5.295  12.085 -0.0707 -0.3341  0.0881
 5237TIP3    H137126   1.668   5.200  12.075  0.2117 -0.6049  2.0188
 5237TIP3    H237127   1.593   5.322  12.125  0.8705 -0.2146  2.0638
 5238TIP3   OH237128   4.744   2.331  15.516  0.2636 -0.4888 -0.0236
 5238TIP3    H137129   4.775   2.350  15.605 -0.8754 -0.6598  0.4194
 5238TIP3    H237130   4.763   2.238  15.504  3.1437  0.1360 -1.1045
 5239TIP3   OH237131   3.650   3.596  12.186  0.2936 -0.5519  0.2358
 5239TIP3    H137132   3.616   3.532  12.249 -0.4556  0.2522  0.6713
 5239TIP3    H237133   3.745   3.582  12.187  0.5297  0.5997  2.8901
 5240TIP3   OH237134   0.916   2.845   1.983  0.1048 -0.3598 -0.4714
 5240TIP3    H137135   0.834   2.886   2.006  0.6592  1.3071 -1.3153
 5240TIP3    H237136   0.983   2.894   2.030  0.7351 -0.7284 -0.9512
 5241TIP3   OH237137   2.227   4.529   3.790 -0.1231 -0.3572  0.3108
 5241TIP3    H137138   2.228   4.624   3.800  0.7272 -0.2926 -0.3276
 5241TIP3    H237139   2.249   4.514   3.698 -2.2258 -1.1139 -0.1248
 5242TIP3   OH237140   0.411   6.333   1.106 -0.3744  0.2581  0.1210
 5242TIP3    H137141   0.382   6.324   1.197 -0.7963 -0.2594 -0.0642
 5242TIP3    H237142   0.408   6.427   1.089 -1.4214  0.2552  0.2753
 5243TIP3   OH237143   2.185   2.108   4.633 -0.2546  0.6596 -0.5190
 5243TIP3    H137144   2.275   2.078   4.619 -0.0922  0.4953  0.7626
 5243TIP3    H237145   2.155   2.057   4.708 -1.7703 -0.0053 -1.5301
 5244TIP3   OH237146   5.160   6.692  12.791  0.0144  0.1139 -0.3202
 5244TIP3    H137147   5.116   6.647  12.719 -2.9870  1.3421  0.5903
 5244TIP3    H237148   5.199   6.770  12.751 -0.4131  0.0721 -0.8271
 5245TIP3   OH237149   6.532   4.522  10.669 -0.6752  0.6425  0.0835
 5245TIP3    H137150   6.449   4.559  10.702 -0.2186  0.0970  1.9906
 5245TIP3    H237151   6.573   4.484  10.747  0.2677 -1.2273 -1.2422
 5246TIP3   OH237152   3.582   6.200  16.788  0.3393 -0.1121 -0.4245
 5246TIP3    H137153   3.562   6.268  16.724 -0.6400 -2.0713 -2.3309
 5246TIP3    H237154   3.657   6.154  16.751 -0.0800 -1.1282 -0.0313
 5247TIP3   OH237155   1.565   5.825   4.072 -0.1996 -0.5310  0.1886
 5247TIP3    H137156   1.530   5.913   4.087 -1.1022 -1.0292  1.1502
 5247TIP3    H237157   1.611   5.831   3.988 -2.3423  0.2676 -1.0356
 5248TIP3   OH237158   2.943   1.104  14.283  0.2234 -0.5308 -0.7055
 5248TIP3    H137159   2.885   1.180  14.283  0.4837 -0.3152  0.2537
 5248TIP3    H237160   2.898   1.040  14.228 -0.1314  0.2149 -1.3074
 5249TIP3   OH237161   5.724   3.614  13.375  0.5579 -0.5215  0.2513
 5249TIP3    H137162   5.644   3.605  13.426  0.6162 -1.0871  0.2480
 5249TIP3    H237163   5.776   3.537  13.398  1.5501  0.3498  1.0378
 5250TIP3   OH237164   3.378   0.628  10.283 -0.1646  0.1328  0.5223
 5250TIP3    H137165   3.371   0.719  10.254  0.1465 -0.3870 -1.2778
 5250TIP3    H237166   3.423   0.634  10.368  2.8804  1.4810 -1.0272
 5251TIP3   OH237167   2.624   5.722   4.901 -0.3495  0.0587  0.2395
 5251TIP3    H137168   2.639   5.809   4.936  0.4130  0.1355 -0.2652
 5251TIP3    H237169   2.611   5.735   4.807 -2.9293 -0.0865  0.5168
 5252TIP3   OH237170   6.502   6.487  13.616 -0.5158  0.0060  0.0118
 5252TIP3    H137171   6.563   6.415  13.600  0.4867  0.3953  1.7337
 5252TIP3    H237172   6.559   6.562  13.634 -1.5155  0.6460  0.5906
 5253TIP3   OH237173   1.648   1.492   0.457  0.9654  0.1734 -0.0668
 5253TIP3    H137174   1.701   1.449   0.390  0.3534  1.7338 -1.6116
 5253TIP3    H237175   1.635   1.424   0.523 -0.2062 -2.1851 -2.5142
 5254TIP3   OH237176   6.705   4.514  14.372  0.4456  0.1408 -0.1704
 5254TIP3    H137177   6.643   4.488  14.304  1.0046 -2.2273  0.1324
 5254TIP3    H237178   6.651   4.530  14.449 -0.0027  0.8916 -0.6257
 5255TIP3   OH237179   4.293   0.078  15.968  0.2558 -0.5162 -0.3048
 5255TIP3    H137180   4.289   0.003  16.027  1.9503 -1.1058 -0.8945
 5255TIP3    H237181   4.248   0.149  16.015 -0.3320 -1.5650  0.7461
 5256TIP3   OH237182   6.103   0.689   1.226  0.0804  0.0960  0.0816
 5256TIP3    H137183   6.183   0.709   1.178  1.1127  0.4634  1.8775
 5256TIP3    H237184   6.128   0.621   1.288 -0.8232  0.6731  1.1190
 5257TIP3   OH237185   1.189   2.287   5.282 -0.3846  0.3583  0.0369
 5257TIP3    H137186   1.178   2.382   5.272  0.4625  0.3630 -1.1100
 5257TIP3    H237187   1.107   2.257   5.319 -0.9177  1.4585 -0.2044
 5258TIP3   OH237188   5.331   4.874  14.259  0.3856 -0.4628  0.0316
 5258TIP3    H137189   5.350   4.799  14.315  0.4235  0.1008  0.7814
 5258TIP3    H237190   5.271   4.928  14.309  0.3807  0.0282 -0.4875
 5259TIP3   OH237191   2.619   3.632   3.898  0.4067 -0.0450 -0.5127
 5259TIP3    H137192   2.709   3.613   3.927  1.0489  1.9291 -1.0455
 5259TIP3    H237193   2.630   3.675   3.813 -1.0527  0.1421 -0.6258
 5260TIP3   OH237194   2.061   0.415   1.442  0.0432 -0.4343  0.3793
 5260TIP3    H137195   2.103   0.402   1.527  1.3756 -1.4966 -0.4243
 5260TIP3    H237196   2.129   0.452   1.386 -1.7114  3.8296  0.6251
 5261TIP3   OH237197   0.052   3.243  16.703  0.7636 -0.4170 -0.0691
 5261TIP3    H137198   0.120   3.298  16.664  0.6948 -0.0538  0.3134
 5261TIP3    H237199  -0.007   3.223  16.630  1.9057 -1.7305 -0.6753
 5262TIP3   OH237200   2.432   4.055  17.121 -0.2184 -0.0812 -0.3696
 5262TIP3    H137201   2.485   4.104  17.184  0.5830 -1.2372 -0.0997
 5262TIP3    H237202   2.344   4.055  17.158 -0.2224  1.0561 -0.3384
 5263TIP3   OH237203   3.773   6.192  12.048 -0.2719 -0.0539  0.2308
 5263TIP3    H137204   3.816   6.187  11.963  1.1885  2.6051  0.7031
 5263TIP3    H237205   3.840   6.166  12.111  0.0466  1.9227  0.8013
 5264TIP3   OH237206   0.083   0.671  14.030  0.1757  0.3611  0.0328
 5264TIP3    H137207   0.053   0.748  13.983  0.5943  0.6265  0.1968
 5264TIP3    H237208   0.143   0.705  14.096  0.8105 -0.1573 -0.2680
 5265TIP3   OH237209   4.094   3.153   1.208 -0.3245 -0.2441  0.1207
 5265TIP3    H137210   3.999   3.141   1.198 -0.6933  1.3309  1.3320
 5265TIP3    H237211   4.112   3.124   1.298  0.3611 -0.6081 -0.1301
 5266TIP3   OH237212   5.327   1.183   2.902  0.5656  0.5541  0.0222
 5266TIP3    H137213   5.331   1.253   2.837  1.2047  0.3987 -0.1067
 5266TIP3    H237214   5.402   1.197   2.959  1.6483 -0.9470 -0.9603
 5267TIP3   OH237215   1.614   4.287   0.962  0.6575  0.6876  0.1691
 5267TIP3    H137216   1.540   4.238   0.998  1.1708  0.1217  0.4751
 5267TIP3    H237217   1.667   4.221   0.917  1.3063  0.9703  0.4999
 5268TIP3   OH237218   5.545   6.289  13.180  0.5143 -0.2527  0.1309
 5268TIP3    H137219   5.570   6.274  13.089 -0.2269  1.6937 -0.4514
 5268TIP3    H237220   5.588   6.371  13.204  0.7310 -0.7505  1.5641
 5269TIP3   OH237221   3.207   3.679   3.948  0.1775  0.1033  0.2514
 5269TIP3    H137222   3.221   3.773   3.940  0.2813  0.0764  0.1111
 5269TIP3    H237223   3.113   3.670   3.965  0.1878  0.2372  0.3750
 5270TIP3   OH237224   2.893   5.976  13.307  0.1748  0.3168 -0.0161
 5270TIP3    H137225   2.962   6.042  13.315  1.5503 -0.8837 -1.2940
 5270TIP3    H237226   2.853   5.995  13.222  0.0388 -0.0121 -0.0247
 5271TIP3   OH237227   0.653   3.451  11.681  0.2076  0.2607  0.2699
 5271TIP3    H137228   0.733   3.415  11.642  0.7613  0.6330  1.0222
 5271TIP3    H237229   0.664   3.546  11.673 -1.6617  0.3312 -2.5528
 5272TIP3   OH237230   4.981   6.131   3.823  0.0333  0.2706 -0.9061
 5272TIP3    H137231   5.073   6.142   3.796  0.8916 -0.0445  1.5799
 5272TIP3    H237232   4.940   6.215   3.806  1.2520  0.9616 -0.5639
 5273TIP3   OH237233   5.769   4.836  15.941  0.2260  0.3241 -0.0670
 5273TIP3    H137234   5.798   4.751  15.907 -0.0408  0.7556 -1.4726
 5273TIP3    H237235   5.811   4.900  15.883 -1.0899  1.0739 -0.2418
 5274TIP3   OH237236   1.894   0.898  13.505 -0.2030  0.0007 -0.2401
 5274TIP3    H137237   1.858   0.849  13.580 -3.7652 -1.4701 -2.6376
 5274TIP3    H237238   1.986   0.875  13.503 -0.6788 -2.4995  1.8100
 5275TIP3   OH237239   4.223   6.521   5.753 -0.1354  0.2520 -0.0367
 5275TIP3    H137240   4.256   6.503   5.841  1.0483 -2.2841 -0.9150
 5275TIP3    H237241   4.138   6.478   5.751  0.8653 -1.7910 -0.8160
 5276TIP3   OH237242   1.018   3.348  14.666 -0.0380  0.9688 -0.2994
 5276TIP3    H137243   0.938   3.401  14.669  0.4635  1.7730 -0.8357
 5276TIP3    H237244   0.990   3.261  14.695 -0.3916  2.0641  3.0122
 5277TIP3   OH237245   5.409   5.332   0.425  0.2175  0.4365 -0.4741
 5277TIP3    H137246   5.345   5.331   0.354  0.3225 -0.1162 -0.5638
 5277TIP3    H237247   5.396   5.417   0.467 -1.5168 -0.1865  0.3541
 5278TIP3   OH237248   3.890   0.923   1.860  0.1255 -0.1086 -0.1824
 5278TIP3    H137249   3.848   0.980   1.796 -0.5520  0.0507  0.3966
 5278TIP3    H237250   3.914   0.981   1.932  1.2745 -0.2087 -0.4517
 5279TIP3   OH237251   4.759   4.831   6.406 -0.7098 -0.6693  1.0143
 5279TIP3    H137252   4.721   4.770   6.343 -0.8744  1.1131 -0.6996
 5279TIP3    H237253   4.844   4.794   6.427 -1.0525 -1.7920  0.4882
 5280TIP3   OH237254   1.629   0.792  15.105  0.5053 -0.2309  0.8183
 5280TIP3    H137255   1.617   0.728  15.036  0.7291  0.3403  0.2399
 5280TIP3    H237256   1.540   0.820  15.128  0.2552 -2.1027  2.4100
 5281TIP3   OH237257   1.410   0.394  15.499  0.5460 -0.2505  0.0254
 5281TIP3    H137258   1.462   0.406  15.420  1.1409 -3.5015 -0.2222
 5281TIP3    H237259   1.407   0.299  15.512 -0.0840  0.1067  3.5703
 5282TIP3   OH237260   4.257   0.080  11.273  0.0458  0.5360  0.0737
 5282TIP3    H137261   4.226   0.138  11.203 -0.1996  0.1363 -0.1481
 5282TIP3    H237262   4.323   0.132  11.320 -0.2701  1.0450 -0.0406
 5283TIP3   OH237263   6.204   5.890   4.862 -0.5045  0.4539 -0.9019
 5283TIP3    H137264   6.142   5.878   4.933 -1.6212 -0.4977 -1.9933
 5283TIP3    H237265   6.290   5.877   4.902 -1.1978 -2.2125 -0.1122
 5284TIP3   OH237266   1.239   0.332   5.015 -0.0098  0.3230  0.0565
 5284TIP3    H137267   1.150   0.344   4.983  0.2852 -0.7068 -1.2159
 5284TIP3    H237268   1.229   0.294   5.102 -0.8029  0.1602 -0.1020
 5285TIP3   OH237269   2.313   5.141  13.652  0.1257 -0.1148  0.3758
 5285TIP3    H137270   2.332   5.149  13.558 -1.4561 -1.8059 -0.1444
 5285TIP3    H237271   2.228   5.097  13.656  0.3299 -0.4307  2.6243
 5286TIP3   OH237272   1.688   3.670  11.982  0.3091  0.6339 -0.0079
 5286TIP3    H137273   1.639   3.689  12.062  0.5012 -1.6324  0.7376
 5286TIP3    H237274   1.690   3.752  11.934 -2.2005  1.3690  1.0127
 5287TIP3   OH237275   1.448   4.619   5.375 -0.1358  0.2011  0.6147
 5287TIP3    H137276   1.501   4.539   5.384 -0.8510 -0.3791 -0.1539
 5287TIP3    H237277   1.455   4.661   5.461 -0.6303 -1.2533  1.4103
 5288TIP3   OH237278   4.125   2.358   2.797  0.1569 -0.1415  0.1628
 5288TIP3    H137279   4.050   2.403   2.759  0.0030 -1.7859 -1.6321
 5288TIP3    H237280   4.195   2.369   2.732  0.5945 -1.0981  0.4482
 5289TIP3   OH237281   5.161   6.352   4.372  0.1806  0.1347 -0.1572
 5289TIP3    H137282   5.149   6.296   4.295  1.2986  0.8393 -0.8680
 5289TIP3    H237283   5.112   6.307   4.442  0.9179 -1.6465 -0.7370
 5290TIP3   OH237284   1.263   2.472  11.266  0.5546  0.0429 -0.4768
 5290TIP3    H137285   1.206   2.401  11.235 -2.3584  0.0581  3.9647
 5290TIP3    H237286   1.317   2.431  11.334 -0.7491  1.7656  1.7425
 5291TIP3   OH237287   4.432   6.322  10.337  0.0338  0.0549 -0.6220
 5291TIP3    H137288   4.458   6.349  10.426  2.1622 -1.7471 -0.5958
 5291TIP3    H237289   4.512   6.285  10.300 -1.5569 -2.0211 -2.2033
 5292TIP3   OH237290   4.801   4.674  14.265 -0.4109  0.3957  0.2511
 5292TIP3    H137291   4.883   4.657  14.311 -0.1701  0.6335 -0.0793
 5292TIP3    H237292   4.749   4.727  14.326 -0.6449 -0.4308  0.7746
 5293TIP3   OH237293   4.097   5.178   5.195 -1.1092 -0.3501 -0.1920
 5293TIP3    H137294   4.139   5.207   5.114 -1.3346  0.0335 -0.1701
 5293TIP3    H237295   4.030   5.116   5.167 -0.4817 -1.0287 -0.2228
 5294TIP3   OH237296   5.178   0.915   4.079  0.1255 -0.0653 -0.0895
 5294TIP3    H137297   5.157   1.001   4.115  0.0417  0.0139 -0.3242
 5294TIP3    H237298   5.259   0.930   4.030  0.9388 -0.4425  1.1051
 5295TIP3   OH237299   1.829   0.906   2.214  0.2265 -0.0966  0.1426
 5295TIP3    H137300   1.815   0.849   2.138  0.6588 -0.6238  0.4550
 5295TIP3    H237301   1.749   0.896   2.266 -0.0943  0.3049 -0.2596
 5296TIP3   OH237302   3.322   3.475  16.488  0.6417 -0.1291  0.3882
 5296TIP3    H137303   3.258   3.446  16.553  1.0260  0.0496  0.8451
 5296TIP3    H237304   3.270   3.496  16.411  0.2860 -1.5277  0.2102
 5297TIP3   OH237305   5.819   3.633  15.434 -0.0528  0.0826  0.0564
 5297TIP3    H137306   5.848   3.668  15.518 -0.9569 -0.7115  0.7298
 5297TIP3    H237307   5.794   3.711  15.383  1.8926  0.6784 -0.0601
 5298TIP3   OH237308   4.263   1.945   5.399 -0.2070 -0.3856  0.0143
 5298TIP3    H137309   4.347   1.916   5.434 -0.1459 -0.0885  0.1168
 5298TIP3    H237310   4.219   1.865   5.372 -0.3931 -0.6410  1.0686
 5299TIP3   OH237311   1.695   3.961  13.822 -0.1805  0.0144 -0.5465
 5299TIP3    H137312   1.648   3.999  13.748 -0.7102  0.1654 -0.1367
 5299TIP3    H237313   1.631   3.905  13.865 -0.1816  0.7128  0.3830
 5300TIP3   OH237314   0.030   6.187  14.119  0.7871 -0.2519  0.1779
 5300TIP3    H137315   0.043   6.179  14.214  1.3415 -2.0912 -0.0036
 5300TIP3    H237316   0.049   6.099  14.086 -0.5411  0.0609 -1.5131
 5301TIP3   OH237317   3.771   4.818   0.309 -0.4011 -0.2194 -0.3095
 5301TIP3    H137318   3.733   4.784   0.228 -0.5459 -1.6938  0.3509
 5301TIP3    H237319   3.696   4.843   0.363 -0.3097  2.6995 -1.3401
 5302TIP3   OH237320   5.314   5.754  11.227 -0.5200  0.3600  0.3531
 5302TIP3    H137321   5.252   5.826  11.240  0.5517  1.7643 -1.8443
 5302TIP3    H237322   5.305   5.731  11.135  0.3578 -1.2196  0.6273
 5303TIP3   OH237323   5.894   1.080  14.577 -0.1351  0.1760  1.1175
 5303TIP3    H137324   5.931   1.066  14.664  1.0757  1.4376  0.8326
 5303TIP3    H237325   5.801   1.058  14.586  0.2755 -1.2142  2.3283
 5304TIP3   OH237326   2.269   3.574   4.906  0.5541 -0.1142 -0.5445
 5304TIP3    H137327   2.334   3.639   4.879 -0.5259  1.8181  1.2659
 5304TIP3    H237328   2.312   3.526   4.977 -0.0433  1.3544  0.8482
 5305TIP3   OH237329   3.407   1.364  11.084 -0.1137 -0.2543 -0.0098
 5305TIP3    H137330   3.425   1.387  10.992  0.7661 -0.1760  0.1679
 5305TIP3    H237331   3.324   1.317  11.081  0.8517 -2.0365 -1.1256
 5306TIP3   OH237332   6.353   0.931   0.807  0.1299 -0.0715 -0.1614
 5306TIP3    H137333   6.326   0.855   0.755 -0.9876  0.9768 -1.1679
 5306TIP3    H237334   6.277   0.990   0.806  0.6652  0.6983  1.3199
 5307TIP3   OH237335   4.282   5.562  15.940  0.2822  0.2451 -0.2845
 5307TIP3    H137336   4.339   5.627  15.980  2.1264 -0.8852 -0.9549
 5307TIP3    H237337   4.250   5.603  15.860  1.2662  0.4134 -0.5998
 5308TIP3   OH237338   2.064   3.641   4.725 -0.1171  0.1186 -0.1594
 5308TIP3    H137339   2.142   3.619   4.777 -0.7100 -2.3978 -0.2208
 5308TIP3    H237340   2.024   3.714   4.773  2.4256  1.7396 -0.3338
 5309TIP3   OH237341   2.726   3.832  14.699  0.0368 -0.2895 -0.4974
 5309TIP3    H137342   2.679   3.867  14.775 -0.1757  0.3689 -0.9292
 5309TIP3    H237343   2.676   3.755  14.674 -0.0053 -0.3977 -0.0910
 5310TIP3   OH237344   6.776   6.114  15.445  0.0518 -0.3563  0.4068
 5310TIP3    H137345   6.739   6.187  15.494  1.0477  0.6181 -0.2383
 5310TIP3    H237346   6.871   6.126  15.452  0.2275 -1.4163  0.0325
 5311TIP3   OH237347   6.646   2.836   0.852  0.0639 -0.1506  0.0025
 5311TIP3    H137348   6.628   2.876   0.767  1.7435  1.2611  0.2612
 5311TIP3    H237349   6.636   2.907   0.915 -1.5470 -1.2690  1.0916
 5312TIP3   OH237350   6.294   6.099   2.570 -0.3877 -0.2943  0.5342
 5312TIP3    H137351   6.303   6.146   2.487 -0.4110  0.1044  0.7540
 5312TIP3    H237352   6.305   6.007   2.547  0.0688 -0.1493  0.1595
 5313TIP3   OH237353   1.340   2.321  15.429  0.0866  0.4085  0.0951
 5313TIP3    H137354   1.358   2.229  15.449 -1.2611  0.1158  0.0240
 5313TIP3    H237355   1.388   2.336  15.347  2.4319  0.5307  1.4001
 5314TIP3   OH237356   3.924   6.663  12.038  0.4089  0.5641 -0.1645
 5314TIP3    H137357   3.971   6.614  11.970 -1.0989 -2.5227  0.8264
 5314TIP3    H237358   3.979   6.654  12.116 -0.1569 -0.1556  0.1670
 5315TIP3   OH237359   4.931   1.647  14.342 -0.4755 -0.1251 -0.3400
 5315TIP3    H137360   4.847   1.676  14.379 -1.0026 -0.6165 -1.1119
 5315TIP3    H237361   4.906   1.581  14.276  0.5407 -0.5520 -0.3111
 5316TIP3   OH237362   3.669   0.313   3.649 -0.5814 -0.8587 -0.0167
 5316TIP3    H137363   3.681   0.306   3.554  1.7271  0.2017  0.1028
 5316TIP3    H237364   3.759   0.313   3.684 -1.3163  0.0883  2.0420
 5317TIP3   OH237365   2.586   3.159  16.240 -0.0178 -0.4301  0.1934
 5317TIP3    H137366   2.677   3.190  16.232  0.5021 -1.9184  0.0922
 5317TIP3    H237367   2.562   3.134  16.151 -0.6295  0.2209  0.1742
 5318TIP3   OH237368   2.364   2.953   5.599 -0.4694 -0.1574  0.3187
 5318TIP3    H137369   2.425   2.959   5.673  2.8822 -0.3561 -2.1769
 5318TIP3    H237370   2.367   3.040   5.559 -1.3660 -0.3627 -0.2270
 5319TIP3   OH237371   6.653   0.414   0.518  0.2937  0.2503 -0.2029
 5319TIP3    H137372   6.676   0.334   0.565 -0.4447  0.2965  0.2588
 5319TIP3    H237373   6.639   0.386   0.427 -2.3057 -0.6270  0.3835
 5320TIP3   OH237374   0.563   6.437  16.959  0.2980 -0.7263 -0.0719
 5320TIP3    H137375   0.589   6.410  17.046 -0.1892 -1.2481 -0.0818
 5320TIP3    H237376   0.569   6.533  16.960  1.7870 -0.8096  0.0413
 5321TIP3   OH237377   3.130   5.100  13.899 -0.2492 -0.1098 -0.1757
 5321TIP3    H137378   3.131   5.195  13.883  0.2805 -0.2662 -1.1336
 5321TIP3    H237379   3.046   5.084  13.943 -0.1336  0.8658  0.4492
 5322TIP3   OH237380   5.749   1.464  13.461 -0.1014  0.3315 -0.0095
 5322TIP3    H137381   5.685   1.534  13.471  0.8533  1.0253  1.7556
 5322TIP3    H237382   5.697   1.384  13.458 -1.0740  0.8193  2.1462
 5323TIP3   OH237383   4.777   0.503  13.658  0.1166  0.6596  0.1874
 5323TIP3    H137384   4.844   0.467  13.716 -1.1889 -2.0017  0.2001
 5323TIP3    H237385   4.748   0.583  13.702  1.5646  0.5574  1.4213
 5324TIP3   OH237386   3.880   2.965   2.807  0.5173  0.3943  0.3233
 5324TIP3    H137387   3.958   3.015   2.832  1.7372 -0.7346 -1.0286
 5324TIP3    H237388   3.867   2.984   2.714  1.3294 -2.0610 -0.3814
 5325TIP3   OH237389   3.809   1.475  14.031  0.6363  0.8821 -0.7981
 5325TIP3    H137390   3.818   1.382  14.009  0.3137  1.1082 -1.9299
 5325TIP3    H237391   3.716   1.494  14.019  0.4946  1.1076  0.4880
 5326TIP3   OH237392   6.270   1.067   2.949 -0.3336 -0.6527 -0.2926
 5326TIP3    H137393   6.215   1.041   2.876 -0.7722  0.1754 -0.2719
 5326TIP3    H237394   6.213   1.120   3.005  0.7483  1.2531 -0.8777
 5327TIP3   OH237395   5.330   1.644   5.761 -0.1142 -0.2265 -0.3080
 5327TIP3    H137396   5.256   1.621   5.704 -0.3632 -1.2371  0.3875
 5327TIP3    H237397   5.297   1.627   5.849  0.6123  0.3241  0.0767
 5328TIP3   OH237398   2.715   3.110   4.742 -0.2798  0.5490 -0.4773
 5328TIP3    H137399   2.656   3.158   4.684 -1.0240 -0.2883 -0.4301
 5328TIP3    H237400   2.657   3.065   4.803  0.4296  0.0321 -0.1743
 5329TIP3   OH237401   5.588   4.718   5.873  0.0534  0.3032  0.0565
 5329TIP3    H137402   5.563   4.771   5.949  0.1695  2.3832 -1.2950
 5329TIP3    H237403   5.663   4.666   5.904  2.9922  4.2403  0.3481
 5330TIP3   OH237404   1.716   5.503   5.129 -0.1282 -0.2065  0.0643
 5330TIP3    H137405   1.796   5.536   5.170  0.8609 -0.7132 -1.3520
 5330TIP3    H237406   1.649   5.567   5.151  0.4166 -0.2891  2.1242
 5331TIP3   OH237407   0.710   0.221   1.849  0.2772 -0.3682 -0.1797
 5331TIP3    H137408   0.646   0.283   1.884  0.4678 -0.2205 -0.0880
 5331TIP3    H237409   0.703   0.230   1.754 -1.3024 -1.8508 -0.2417
 5332TIP3   OH237410   0.517   2.473   2.462  0.0941  0.1621 -0.0626
 5332TIP3    H137411   0.510   2.537   2.533  2.3370 -0.5205  0.8468
 5332TIP3    H237412   0.496   2.522   2.383 -0.0802  1.5472  0.8132
 5333TIP3   OH237413   5.878   6.548   0.099  0.5330 -0.1177 -0.7494
 5333TIP3    H137414   5.967   6.516   0.087  0.7212 -0.5371  1.3172
 5333TIP3    H237415   5.835   6.479   0.150 -0.3174  1.0106  0.1012
 5334TIP3   OH237416   1.778   3.201   5.676  0.5247 -0.2654  0.2016
 5334TIP3    H137417   1.724   3.122   5.668 -0.8193  0.4736  1.4349
 5334TIP3    H237418   1.848   3.176   5.737 -0.4421 -0.2769  1.3556
 5335TIP3   OH237419   2.611   6.603  11.451  0.1068 -0.1285  0.2117
 5335TIP3    H137420   2.553   6.527  11.446  0.6702 -0.5733  0.3410
 5335TIP3    H237421   2.552   6.678  11.450 -0.4526 -0.5630 -0.0225
 5336TIP3   OH237422   0.359   0.752   5.170  0.2837 -0.5336 -0.6578
 5336TIP3    H137423   0.277   0.755   5.219 -0.2933  2.6659 -1.5671
 5336TIP3    H237424   0.332   0.740   5.078  0.9703 -1.3413 -0.7596
 5337TIP3   OH237425   3.071   1.680  14.061 -0.3712 -0.0293 -0.1902
 5337TIP3    H137426   3.110   1.718  14.140 -1.3007  2.4236 -0.8306
 5337TIP3    H237427   3.133   1.701  13.992 -0.1210 -1.1485 -0.3125
 5338TIP3   OH237428   1.622   0.326   1.510 -0.5773 -0.0871 -0.0131
 5338TIP3    H137429   1.566   0.392   1.468 -0.1243 -0.0099 -0.5240
 5338TIP3    H237430   1.671   0.375   1.576 -2.5828 -0.5406  1.9232
 5339TIP3   OH237431   6.483   2.274   4.496  0.1117  0.6778 -0.6445
 5339TIP3    H137432   6.467   2.227   4.414 -0.7166  1.1572 -0.7719
 5339TIP3    H237433   6.547   2.220   4.542  1.6191  1.0537 -2.1725
 5340TIP3   OH237434   3.359   2.686   2.484  0.0805 -0.1135  0.0723
 5340TIP3    H137435   3.440   2.720   2.523  0.9888 -1.0444 -0.9444
 5340TIP3    H237436   3.346   2.602   2.527 -0.7792  0.3484  0.7584
 5341TIP3   OH237437   0.285   6.142  11.136 -0.2455  0.6048  0.0275
 5341TIP3    H137438   0.204   6.157  11.088 -0.2829 -0.1402 -0.1481
 5341TIP3    H237439   0.264   6.169  11.226 -1.1111 -0.8463  0.2841
 5342TIP3   OH237440   2.386   5.796   2.064 -0.4783 -0.0845  0.1574
 5342TIP3    H137441   2.440   5.726   2.026 -1.1444  0.6631 -2.3624
 5342TIP3    H237442   2.405   5.792   2.158  3.7102 -0.0647 -0.4836
 5343TIP3   OH237443   5.073   0.292   0.522  0.1568 -0.1349  0.1534
 5343TIP3    H137444   5.164   0.307   0.545  0.2207  1.4788 -0.9277
 5343TIP3    H237445   5.073   0.283   0.427 -0.6299 -1.8806  0.2735
 5344TIP3   OH237446   1.553   2.457   1.228  0.5456 -0.2469  0.4588
 5344TIP3    H137447   1.617   2.396   1.263  1.6756  0.2874 -0.5902
 5344TIP3    H237448   1.588   2.543   1.247  0.1317  0.0571 -0.1077
 5345TIP3   OH237449   3.864   4.034  11.122  0.5975 -0.9978  0.1850
 5345TIP3    H137450   3.835   4.007  11.035  1.8028  1.1368 -0.9617
 5345TIP3    H237451   3.808   4.108  11.144  2.1079  0.2902 -0.0904
 5346TIP3   OH237452   3.647   1.357  12.736  0.0812  0.1765 -0.0808
 5346TIP3    H137453   3.555   1.367  12.761  0.3428 -0.3878  1.1857
 5346TIP3    H237454   3.677   1.446  12.717 -1.4571  0.1410 -3.4422
 5347TIP3   OH237455   1.184   2.087   2.678 -0.4248  0.6215 -0.2116
 5347TIP3    H137456   1.098   2.126   2.695  0.4825  2.3125  0.8479
 5347TIP3    H237457   1.244   2.137   2.734  0.9752 -1.8634  0.6931
 5348TIP3   OH237458   0.253   0.487  15.325  0.4656  0.2436 -0.5521
 5348TIP3    H137459   0.266   0.580  15.305 -0.4950  0.7208  0.8316
 5348TIP3    H237460   0.338   0.446  15.308  1.8290  1.9291  1.6801
 5349TIP3   OH237461   5.384   4.951   2.774 -0.1015 -0.1263  0.0398
 5349TIP3    H137462   5.294   4.961   2.806 -0.7970  0.1042 -1.8458
 5349TIP3    H237463   5.424   5.037   2.787 -0.3759 -0.0340  0.2821
 5350TIP3   OH237464   0.643   0.304  12.698 -0.4771  0.8573 -0.1301
 5350TIP3    H137465   0.559   0.275  12.662  1.0880 -0.5892 -2.9697
 5350TIP3    H237466   0.658   0.390  12.658 -1.4234  2.0927  1.9809
 5351TIP3   OH237467   5.554   2.132   3.152  0.5604 -0.1605  0.1848
 5351TIP3    H137468   5.484   2.142   3.216 -1.8954  1.6015 -2.5327
 5351TIP3    H237469   5.633   2.118   3.204 -1.0512  2.2747  3.6067
 5352TIP3   OH237470   4.285   3.809  14.802 -0.2106  0.2497  0.0056
 5352TIP3    H137471   4.267   3.735  14.860  0.4912  0.2633  0.2440
 5352TIP3    H237472   4.355   3.857  14.845  0.2282  0.3394 -0.7792
 5353TIP3   OH237473   0.287   0.365  11.815  0.6244 -0.2352 -0.0066
 5353TIP3    H137474   0.257   0.292  11.760 -2.5982  0.6762  0.3377
 5353TIP3    H237475   0.274   0.335  11.905  0.7538  0.2250  0.1693
 5354TIP3   OH237476   3.939   1.649  12.066 -0.3444 -0.0322  0.1981
 5354TIP3    H137477   3.960   1.570  12.015 -0.0805 -0.6094  1.1709
 5354TIP3    H237478   3.864   1.623  12.120 -0.4802  0.4949  0.2668
 5355TIP3   OH237479   3.826   3.106   0.808 -0.1736 -0.4326 -0.1372
 5355TIP3    H137480   3.907   3.058   0.788  0.7513  0.1301  1.9485
 5355TIP3    H237481   3.849   3.198   0.795  0.3257 -0.0696  2.5462
 5356TIP3   OH237482   2.801   5.533   4.988 -0.0482  0.3623 -0.3946
 5356TIP3    H137483   2.742   5.478   5.039  0.6422  0.3874  0.4540
 5356TIP3    H237484   2.745   5.603   4.954 -0.3631  0.8767  1.1116
 5357TIP3   OH237485   1.408   2.806   5.370 -0.8368 -0.2109 -0.5633
 5357TIP3    H137486   1.497   2.817   5.404 -0.4874  0.1451 -1.5561
 5357TIP3    H237487   1.373   2.732   5.418 -0.9905  1.2926  1.8020
 5358TIP3   OH237488   5.116   6.704   4.143  0.1049 -0.5800 -0.2312
 5358TIP3    H137489   5.030   6.668   4.122 -0.6708  2.2977 -2.6750
 5358TIP3    H237490   5.178   6.643   4.101 -0.9399 -1.0563 -1.1382
 5359TIP3   OH237491   4.963   2.051  14.634  0.2881  0.6303 -0.0518
 5359TIP3    H137492   5.036   2.023  14.689 -1.0795 -1.8865  0.6559
 5359TIP3    H237493   4.891   2.064  14.696 -1.2138 -2.0130 -1.0740
 5360TIP3   OH237494   1.068   4.349   4.167  0.0393  0.4015 -0.8177
 5360TIP3    H137495   1.089   4.346   4.074 -0.2878 -1.0508 -0.8602
 5360TIP3    H237496   0.976   4.325   4.172  0.2654 -0.3524 -0.0609
 5361TIP3   OH237497   1.969   3.436  13.732 -0.2580 -0.8016 -0.2565
 5361TIP3    H137498   1.920   3.441  13.650  1.2756 -2.0674 -1.3229
 5361TIP3    H237499   2.061   3.441  13.705  0.2518  0.7527  1.5890
 5362TIP3   OH237500   4.818   1.670  13.392  0.1197 -0.0036 -0.0826
 5362TIP3    H137501   4.911   1.680  13.368  0.5671  0.3212  1.6787
 5362TIP3    H237502   4.774   1.740  13.344  0.5937 -0.7811 -1.7543
 5363TIP3   OH237503   4.070   3.604   2.517 -0.0342  0.3307  0.7443
 5363TIP3    H137504   3.990   3.577   2.562 -0.0444  0.0549  0.5582
 5363TIP3    H237505   4.089   3.691   2.554 -0.9231  0.7979  0.1424
 5364TIP3   OH237506   4.758   4.560  17.055  0.5610 -0.5438  0.0101
 5364TIP3    H137507   4.687   4.624  17.064  0.5182 -0.4647 -0.8447
 5364TIP3    H237508   4.715   4.482  17.018  1.1637  0.0399 -2.0703
 5365TIP3   OH237509   2.768   2.063   3.580  0.3834 -0.0142  0.2287
 5365TIP3    H137510   2.822   2.033   3.507 -0.7587 -2.5194  0.3267
 5365TIP3    H237511   2.709   2.128   3.540 -0.5056 -1.6346 -1.2444
 5366TIP3   OH237512   1.545   0.113  16.997  0.1600 -0.4981 -0.0935
 5366TIP3    H137513   1.577   0.198  16.967  0.1583 -0.4187  0.1244
 5366TIP3    H237514   1.618   0.075  17.046  0.7554 -1.3522 -1.5744
 5367TIP3   OH237515   5.122   1.712  15.530 -0.3881 -0.0548 -0.5959
 5367TIP3    H137516   5.177   1.771  15.582 -1.3806 -0.8381  1.4566
 5367TIP3    H237517   5.157   1.624  15.548 -2.1751 -0.5634  0.6691
 5368TIP3   OH237518   5.625   4.916  13.559  0.7313 -0.4665  0.6240
 5368TIP3    H137519   5.571   4.919  13.637 -1.3239  3.9754 -0.6658
 5368TIP3    H237520   5.694   4.980  13.575  1.6953 -1.2142 -0.3680
 5369TIP3   OH237521   1.170   1.846   6.015  0.4315  0.9236 -0.8111
 5369TIP3    H137522   1.224   1.826   6.092 -1.1234  4.0021  1.3135
 5369TIP3    H237523   1.101   1.781   6.016 -0.4150  1.7620  1.4350
 5370TIP3   OH237524   3.701   1.722  11.344 -0.0304 -0.1315  0.0762
 5370TIP3    H137525   3.785   1.736  11.301  0.5654 -0.8482  0.9742
 5370TIP3    H237526   3.677   1.632  11.322 -0.3938 -0.0437  0.1043
 5371TIP3   OH237527   2.145   3.155  13.006 -0.0517 -0.2451  0.2939
 5371TIP3    H137528   2.176   3.246  13.012 -0.8202 -0.0189  0.9320
 5371TIP3    H237529   2.225   3.105  12.988  0.2859  0.6194 -0.7792
 5372TIP3   OH237530   0.262   5.428  12.040  0.3086 -0.1192 -0.0387
 5372TIP3    H137531   0.284   5.484  11.965  0.2062 -0.1610 -0.1011
 5372TIP3    H237532   0.330   5.446  12.104  0.4478 -0.1479 -0.1777
 5373TIP3   OH237533   6.203   6.390   5.572 -0.0457  0.3007  0.3343
 5373TIP3    H137534   6.130   6.413   5.515  0.4909  0.8125 -0.1678
 5373TIP3    H237535   6.264   6.463   5.563 -0.1424  0.5961  1.9105
 5374TIP3   OH237536   5.728   6.683  11.193  0.0519 -0.0388 -0.2593
 5374TIP3    H137537   5.739   6.683  11.288 -0.6189  2.9026 -0.0907
 5374TIP3    H237538   5.806   6.640  11.160  0.6198 -0.5393  1.5927
 5375TIP3   OH237539   1.126   0.137  14.328  0.4660  0.2214 -0.4369
 5375TIP3    H137540   1.076   0.186  14.394  0.9510  2.4834 -1.6492
 5375TIP3    H237541   1.167   0.066  14.378 -0.4941  0.8731  1.3893
 5376TIP3   OH237542   3.922   0.134   4.267 -0.1498 -0.6140 -0.2342
 5376TIP3    H137543   3.865   0.204   4.299 -0.5995 -0.9260 -0.3372
 5376TIP3    H237544   3.902   0.059   4.323  1.9060 -0.0846  1.3109
 5377TIP3   OH237545   0.809   5.897  14.347  0.2242  0.2315  0.3780
 5377TIP3    H137546   0.787   5.826  14.287  0.0605 -0.2790  1.0268
 5377TIP3    H237547   0.902   5.912  14.332  0.1506  0.2260 -0.1184
 5378TIP3   OH237548   5.359   2.144  12.441 -0.2722  0.3944  0.1501
 5378TIP3    H137549   5.409   2.070  12.476 -0.9853  0.0489  0.4384
 5378TIP3    H237550   5.393   2.220  12.489 -0.3630  0.0933  0.6973
 5379TIP3   OH237551   1.629   5.998  16.388 -0.5479  0.2682  0.2341
 5379TIP3    H137552   1.655   6.088  16.370 -0.8150  0.4369  0.6672
 5379TIP3    H237553   1.567   5.976  16.318 -0.7759  0.5548  0.3450
 5380TIP3   OH237554   0.658   2.897   1.307 -0.5699  0.6474  0.0743
 5380TIP3    H137555   0.573   2.900   1.263 -0.2933 -1.3075 -0.6687
 5380TIP3    H237556   0.636   2.885   1.399 -1.1338 -1.0782 -0.2491
 5381TIP3   OH237557   0.200   2.733   0.219  0.4496 -0.2293 -0.3199
 5381TIP3    H137558   0.207   2.638   0.224 -2.7027 -0.5000  0.7033
 5381TIP3    H237559   0.143   2.749   0.143 -3.2056  0.4099  2.3099
 5382TIP3   OH237560   1.386   1.038  15.180  0.3257 -0.3390 -0.0892
 5382TIP3    H137561   1.337   0.978  15.124 -0.2725 -0.7588  0.8672
 5382TIP3    H237562   1.355   1.020  15.269  1.0344  0.5261  0.3561
 5383TIP3   OH237563   2.182   2.839  16.742  0.0602 -0.1306  0.2579
 5383TIP3    H137564   2.169   2.823  16.836  1.7997 -0.0294  0.5681
 5383TIP3    H237565   2.154   2.758  16.700  0.7881 -0.8104  1.0344
 5384TIP3   OH237566   5.590   6.442   3.499  0.4303 -0.2655 -0.4666
 5384TIP3    H137567   5.681   6.457   3.477  0.5078 -0.5623 -0.3539
 5384TIP3    H237568   5.583   6.347   3.513 -0.1157 -0.3897 -1.4758
 5385TIP3   OH237569   0.024   1.934   3.412  0.3227 -0.3529 -0.5402
 5385TIP3    H137570   0.036   1.866   3.478 -0.9103 -1.9151 -1.8323
 5385TIP3    H237571   0.090   1.915   3.345  1.4031  1.0716  0.0547
 5386TIP3   OH237572   1.553   4.278   4.050 -0.2788  0.0824 -0.3494
 5386TIP3    H137573   1.536   4.307   3.960  0.0165 -0.5950 -0.6294
 5386TIP3    H237574   1.584   4.188   4.041  1.9340  0.7286  0.2415
 5387TIP3   OH237575   2.953   1.026  12.546 -0.5594  0.1593  0.0598
 5387TIP3    H137576   2.870   1.061  12.514 -0.5532 -0.0115 -0.1387
 5387TIP3    H237577   2.946   1.034  12.641 -0.2617  1.3839 -0.0020
 5388TIP3   OH237578   4.869   4.999  14.731  0.0339 -0.2841 -0.0320
 5388TIP3    H137579   4.837   5.011  14.641  1.2819  1.5369 -0.2725
 5388TIP3    H237580   4.932   5.069  14.744  1.3679 -1.7002  1.6116
 5389TIP3   OH237581   6.504   0.170   2.494 -0.3132 -0.6652  0.1172
 5389TIP3    H137582   6.546   0.139   2.414 -0.8919  0.1214 -0.5076
 5389TIP3    H237583   6.482   0.090   2.542  2.4600 -1.0932  0.8093
 5390TIP3   OH237584   0.568   5.884   0.596  0.5680  0.1673  0.7511
 5390TIP3    H137585   0.633   5.913   0.532 -0.1750  0.6039  0.1756
 5390TIP3    H237586   0.554   5.791   0.576  0.7442  0.1640  0.6437
 5391TIP3   OH237587   3.373   1.500   1.727  0.0986  0.5692  0.0114
 5391TIP3    H137588   3.427   1.544   1.661  2.6261 -0.6705  1.1055
 5391TIP3    H237589   3.413   1.524   1.811 -1.7482  0.4329  0.9901
 5392TIP3   OH237590   5.077   0.205   1.555  0.1696 -0.0931 -0.0047
 5392TIP3    H137591   5.158   0.168   1.591  2.0880  0.9961 -2.8957
 5392TIP3    H237592   5.106   0.271   1.492 -3.0213  1.0667 -0.4395
 5393TIP3   OH237593   4.655   5.820  16.831 -0.1124 -0.0248  0.1697
 5393TIP3    H137594   4.730   5.864  16.791 -1.6267  1.9922 -0.6242
 5393TIP3    H237595   4.617   5.768  16.760  0.2292 -0.6427  0.4337
 5394TIP3   OH237596   2.613   4.864  13.519  0.2451 -0.9760  0.4021
 5394TIP3    H137597   2.639   4.927  13.586 -1.3499 -1.7164  1.7821
 5394TIP3    H237598   2.579   4.918  13.447 -1.5729 -0.2068  1.7634
 5395TIP3   OH237599   4.483   0.430   2.782 -0.0819 -0.0201 -0.2878
 5395TIP3    H137600   4.572   0.452   2.808  0.1732 -0.7855 -0.4815
 5395TIP3    H237601   4.444   0.390   2.860 -0.8703  1.9596  0.3829
 5396TIP3   OH237602   5.962   1.912   4.225 -0.3113  0.3044 -0.5124
 5396TIP3    H137603   5.976   1.970   4.150 -0.4368  1.2784  0.1885
 5396TIP3    H237604   5.953   1.972   4.300 -0.2112 -0.6358  0.2753
 5397TIP3   OH237605   2.151   0.364  17.228  0.0246  1.0944 -0.5522
 5397TIP3    H137606   2.057   0.376  17.233 -0.0603  1.0799 -1.8387
 5397TIP3    H237607   2.171   0.364  17.134  1.1861  0.2187 -0.3281
 5398TIP3   OH237608   6.086   3.153   1.689  0.2459  0.3974  0.1048
 5398TIP3    H137609   6.028   3.154   1.765 -0.5861 -0.2146 -0.5125
 5398TIP3    H237610   6.081   3.243   1.655  0.0750  0.4843  0.3529
 5399TIP3   OH237611   2.662   2.678  17.228  0.0078  0.8229  0.2190
 5399TIP3    H137612   2.595   2.685  17.296  0.8137 -1.1861  1.3282
 5399TIP3    H237613   2.656   2.588  17.197  2.4438  0.3886  0.7312
 5400TIP3   OH237614   5.308   6.154  16.528  0.3066 -0.2378  0.1432
 5400TIP3    H137615   5.374   6.086  16.541 -0.0625 -0.6907 -0.3027
 5400TIP3    H237616   5.345   6.232  16.569  0.9976 -0.5531  0.1286
 5401TIP3   OH237617   3.972   3.971   2.415  0.4913  0.5409 -0.7705
 5401TIP3    H137618   3.948   3.891   2.369  1.7741  0.0982 -0.6842
 5401TIP3    H237619   3.972   4.039   2.347  1.3714  0.0814 -1.2398
 5402TIP3   OH237620   4.666   1.138  12.959  0.4288  0.6737  0.1347
 5402TIP3    H137621   4.625   1.059  12.994  0.5556  1.1770  1.4939
 5402TIP3    H237622   4.594   1.202  12.956  0.4460  0.6683 -0.4426
 5403TIP3   OH237623   3.342   6.575   1.052 -0.9682  0.0428 -0.2585
 5403TIP3    H137624   3.326   6.507   1.118 -2.1068  1.1523  0.6812
 5403TIP3    H237625   3.335   6.657   1.101 -1.6041  0.8934 -1.7171
 5404TIP3   OH237626   0.698   3.644   5.099  0.0220  0.1426  0.5250
 5404TIP3    H137627   0.643   3.662   5.023  1.3728 -0.0045 -0.5258
 5404TIP3    H237628   0.770   3.707   5.093  1.4306 -1.4063  0.3030
 5405TIP3   OH237629   2.961   3.929  12.181 -0.2178 -0.0285 -0.1187
 5405TIP3    H137630   3.010   3.975  12.113  0.0581  0.1961  0.2265
 5405TIP3    H237631   2.935   3.998  12.242 -0.2101 -0.2668  0.1553
 5406TIP3   OH237632   6.408   2.292  14.201 -0.5268 -0.1833 -0.6266
 5406TIP3    H137633   6.419   2.250  14.116  0.5569  0.8553 -1.0245
 5406TIP3    H237634   6.378   2.381  14.181  1.5929  0.7296 -0.0733
 5407TIP3   OH237635   0.538   0.550  11.238  0.7911  0.0127 -0.1389
 5407TIP3    H137636   0.618   0.506  11.209  0.5273 -0.1585 -0.6102
 5407TIP3    H237637   0.467   0.501  11.197  0.3983 -0.3493  0.9316
 5408TIP3   OH237638   2.819   5.404  16.698 -0.1911 -0.2568 -0.0785
 5408TIP3    H137639   2.818   5.490  16.656  0.3885 -0.8274 -1.3278
 5408TIP3    H237640   2.798   5.343  16.627  0.7940 -1.2581  0.4687
 5409TIP3   OH237641   4.285   4.490   1.171  0.2389  0.2102  0.4604
 5409TIP3    H137642   4.271   4.424   1.103 -0.4403  1.1950 -0.3813
 5409TIP3    H237643   4.283   4.573   1.124 -3.8206  1.2519  2.0627
 5410TIP3   OH237644   1.461   1.610   5.997 -0.7439 -0.1431  0.5949
 5410TIP3    H137645   1.536   1.644   6.045  0.2950 -2.2489  0.5591
 5410TIP3    H237646   1.403   1.576   6.064 -1.9167  1.8152  0.6496
 5411TIP3   OH237647   4.211   5.680   1.990 -0.5528 -0.0690 -0.0972
 5411TIP3    H137648   4.201   5.647   2.079 -0.6823 -0.2893 -0.1905
 5411TIP3    H237649   4.122   5.678   1.954 -0.3632 -0.8952 -0.5452
 5412TIP3   OH237650   5.992   4.162   0.749  0.2003  0.3132  0.1492
 5412TIP3    H137651   5.916   4.200   0.794  0.4314  1.1755 -0.1613
 5412TIP3    H237652   6.053   4.141   0.819 -0.0438  0.2678  0.3502
 5413TIP3   OH237653   4.470   0.224   0.515  0.5960  0.7729  0.2991
 5413TIP3    H137654   4.458   0.158   0.584  1.9896 -0.9448 -0.9872
 5413TIP3    H237655   4.512   0.298   0.559  0.1019  0.3192  1.5603
 5414TIP3   OH237656   1.234   4.453  14.321 -0.0368 -0.5220  0.2486
 5414TIP3    H137657   1.302   4.444  14.388 -0.0339  0.1806  0.3519
 5414TIP3    H237658   1.273   4.510  14.255  0.0658 -1.4510 -0.5081
 5415TIP3   OH237659   3.157   5.072  11.931  0.4506 -0.2954  0.1061
 5415TIP3    H137660   3.164   5.160  11.966  1.6171 -1.0360  1.8855
 5415TIP3    H237661   3.247   5.048  11.906  0.5359 -1.6855  1.5778
 5416TIP3   OH237662   1.473   5.573  10.949  0.0257 -0.4730  0.3862
 5416TIP3    H137663   1.524   5.510  10.999  0.0682  2.0138  3.8369
 5416TIP3    H237664   1.538   5.631  10.909 -0.0466 -1.7547 -1.7237
 5417TIP3   OH237665   4.279   1.153  14.680 -0.4474 -0.2857 -0.3732
 5417TIP3    H137666   4.190   1.139  14.646 -1.3083  1.4543  0.9917
 5417TIP3    H237667   4.265   1.187  14.769  1.5876  0.1609 -0.1942
 5418TIP3   OH237668   3.481   3.505  16.726  0.2734  0.1078 -0.5764
 5418TIP3    H137669   3.476   3.545  16.640 -0.2124  0.4665 -0.3842
 5418TIP3    H237670   3.390   3.497  16.755  0.4794  2.1748  0.8829
 5419TIP3   OH237671   5.052   4.773   3.400  0.3517  0.1265  0.5878
 5419TIP3    H137672   4.998   4.733   3.469  0.1469 -0.0339  0.3361
 5419TIP3    H237673   5.081   4.856   3.438 -1.6868  1.1502  0.0286
 5420TIP3   OH237674   1.882   3.534  12.252  0.2346  0.0503 -0.1168
 5420TIP3    H137675   1.905   3.598  12.185  0.5136  1.0069  0.8655
 5420TIP3    H237676   1.894   3.449  12.209  1.0148  0.6283 -1.0813
 5421TIP3   OH237677   2.914   2.667   5.150 -0.1016 -0.3428 -0.4025
 5421TIP3    H137678   2.978   2.677   5.221 -1.2042 -1.6440  0.8247
 5421TIP3    H237679   2.924   2.577   5.121 -0.8876 -0.3403 -0.6951
 5422TIP3   OH237680   0.000   3.306   7.119  0.1058 -0.4754  0.5280
 5422TIP3    H137681  -0.061   3.377   7.141  0.8515 -0.0270  1.2142
 5422TIP3    H237682   0.015   3.316   7.025 -0.2622 -0.0899  0.5070
 5423TIP3   OH237683   5.987   0.603   6.128 -0.3100  0.2254  0.1515
 5423TIP3    H137684   5.975   0.554   6.047 -0.5684 -0.2341  0.4633
 5423TIP3    H237685   5.950   0.689   6.109  0.2586  0.3509 -0.4386
 5424TIP3   OH237686   0.006   6.413   4.557  0.7015 -0.3691  0.2870
 5424TIP3    H137687   0.033   6.323   4.540  1.3063 -0.1566  0.0803
 5424TIP3    H237688   0.035   6.462   4.480 -2.4306 -0.5242 -1.0988
 5425TIP3   OH237689   2.512   2.777  11.529 -0.0378 -0.4069  0.4114
 5425TIP3    H137690   2.467   2.841  11.475  0.0889  0.2862  1.1082
 5425TIP3    H237691   2.604   2.783  11.503  0.0193 -0.0909  0.6748
 5426TIP3   OH237692   1.238   2.913  17.064  0.1491  0.2953 -0.5598
 5426TIP3    H137693   1.187   2.947  17.138  0.1713 -0.2180 -0.3069
 5426TIP3    H237694   1.325   2.950  17.075  0.2475 -0.0603 -0.1310
 5427TIP3   OH237695   4.199   5.896   4.166  0.0670  0.0296 -0.7457
 5427TIP3    H137696   4.207   5.920   4.259  1.1976 -0.5752 -0.6716
 5427TIP3    H237697   4.160   5.808   4.168  2.3940 -1.0709 -0.6979
 5428TIP3   OH237698   0.396   0.220  12.575 -0.4344  0.1149  0.0326
 5428TIP3    H137699   0.315   0.199  12.620  0.0485 -2.8175 -0.2294
 5428TIP3    H237700   0.372   0.224  12.482 -0.3839 -0.3790 -0.0079
 5429TIP3   OH237701   3.327   6.219  12.473  0.0090  0.1664  0.5593
 5429TIP3    H137702   3.404   6.202  12.527  0.1903  1.7897  0.8622
 5429TIP3    H237703   3.299   6.132  12.443  1.7982 -0.4700  0.6390
 5430TIP3   OH237704   0.002   3.256   0.413  0.4524 -0.3899  0.7067
 5430TIP3    H137705   0.041   3.172   0.389 -0.8836 -0.9244  0.3241
 5430TIP3    H237706  -0.092   3.240   0.411  0.1980  0.7702  1.9209
 5431TIP3   OH237707   4.594   3.571  14.429  0.6507 -0.1927  0.0666
 5431TIP3    H137708   4.592   3.651  14.481  1.7805 -0.4465  0.5237
 5431TIP3    H237709   4.526   3.516  14.468 -2.4776  1.6848 -2.2645
 5432TIP3   OH237710   4.135   0.875   1.754 -0.1033 -0.1653 -0.5063
 5432TIP3    H137711   4.053   0.910   1.790 -0.9491 -0.9641 -1.5927
 5432TIP3    H237712   4.203   0.919   1.804 -1.1921  0.4890  0.4625
 5433TIP3   OH237713   6.062   4.203  15.955  0.0330 -0.0756 -0.0743
 5433TIP3    H137714   6.131   4.166  15.900  0.7195 -0.8326  1.2396
 5433TIP3    H237715   6.038   4.132  16.014 -3.4301 -0.5692 -1.8077
 5434TIP3   OH237716   1.232   3.881   1.989  0.2871  0.0933 -0.3665
 5434TIP3    H137717   1.203   3.801   1.945 -1.5463  0.2407  0.4678
 5434TIP3    H237718   1.301   3.916   1.933  0.5566 -1.6449 -1.1596
 5435TIP3   OH237719   6.481   0.062  12.569 -0.1602  0.6910  0.4375
 5435TIP3    H137720   6.574   0.070  12.589 -0.5534  1.9682  1.9055
 5435TIP3    H237721   6.462  -0.031  12.585  0.8792  0.3610 -0.1093
 5436TIP3   OH237722   0.839   6.152  13.090 -0.1581 -0.1521  0.5449
 5436TIP3    H137723   0.795   6.233  13.116 -0.9109 -0.2509 -0.3700
 5436TIP3    H237724   0.910   6.142  13.153  0.6742  1.8404 -0.0138
 5437TIP3   OH237725   0.619   3.048  12.204 -0.4877  0.2191 -0.6061
 5437TIP3    H137726   0.690   3.077  12.146  0.2521 -0.9932 -0.3214
 5437TIP3    H237727   0.597   2.960  12.173 -1.8092  0.5334 -0.6189
 5438TIP3   OH237728   1.852   3.895   2.153  0.4055 -0.1502 -0.2558
 5438TIP3    H137729   1.878   3.815   2.107 -1.0180 -0.0629 -1.3056
 5438TIP3    H237730   1.768   3.873   2.192 -0.3410  1.0142 -1.1363
 5439TIP3   OH237731   0.813   4.614  11.639  0.1140 -0.1871  0.5372
 5439TIP3    H137732   0.828   4.523  11.664 -2.1497 -0.4824  1.0039
 5439TIP3    H237733   0.722   4.631  11.664  0.6538  2.3825  0.9893
 5440TIP3   OH237734   4.870   2.687  16.543  0.6096  0.0119  0.0460
 5440TIP3    H137735   4.958   2.723  16.541  0.5072  0.2339 -1.0799
 5440TIP3    H237736   4.838   2.697  16.453 -0.3664 -0.5454  0.3196
 5441TIP3   OH237737   2.618   3.227  12.383 -0.1626 -0.8850 -0.3784
 5441TIP3    H137738   2.611   3.250  12.290 -1.0378 -0.0744 -0.1197
 5441TIP3    H237739   2.542   3.172  12.400 -0.8839  0.2514  0.2110
 5442TIP3   OH237740   5.983   1.907  11.295  0.1748  0.0379 -0.0666
 5442TIP3    H137741   6.019   1.915  11.206 -1.0583  0.6806 -0.5301
 5442TIP3    H237742   6.034   1.970  11.346 -0.8868  1.6536 -0.9299
 5443TIP3   OH237743   1.699   4.852   0.086  0.1694 -0.9223 -0.3452
 5443TIP3    H137744   1.792   4.872   0.077 -0.0138 -0.4138 -1.2210
 5443TIP3    H237745   1.661   4.874   0.001 -1.2239  1.6024  0.8164
 5444TIP3   OH237746   2.383   1.225  15.863 -0.5334  0.2385 -0.3310
 5444TIP3    H137747   2.369   1.318  15.875  0.8290  0.4163  0.1009
 5444TIP3    H237748   2.463   1.220  15.810 -2.4444 -0.6453 -3.3792
 5445TIP3   OH237749   3.093   2.853  13.362  0.2099 -0.2155 -0.1469
 5445TIP3    H137750   3.018   2.793  13.365 -0.1456  0.0877 -1.9552
 5445TIP3    H237751   3.138   2.832  13.280  1.3020  0.5750  0.2184
 5446TIP3   OH237752   4.937   4.072   4.270  0.3186 -0.5095  0.1778
 5446TIP3    H137753   5.018   4.089   4.317  0.8682  1.0136 -1.2025
 5446TIP3    H237754   4.871   4.125   4.315  0.6129  0.0808 -0.0661
 5447TIP3   OH237755   1.687   1.378   1.636 -0.7711 -0.4242 -0.1070
 5447TIP3    H137756   1.685   1.392   1.542 -1.5798 -0.5002 -0.1128
 5447TIP3    H237757   1.774   1.405   1.663 -1.5132  2.6082 -0.4003
 5448TIP3   OH237758   5.795   1.077  11.377 -0.0585  0.0221 -0.1529
 5448TIP3    H137759   5.806   1.140  11.449  1.5657 -0.2568 -0.1178
 5448TIP3    H237760   5.860   1.103  11.312  0.6284 -1.5692 -0.1512
 5449TIP3   OH237761   6.400   4.183  13.967  0.7940  0.4527 -0.2318
 5449TIP3    H137762   6.375   4.269  14.001  0.6865  0.4988 -0.4271
 5449TIP3    H237763   6.322   4.129  13.980  1.2061  0.0886  0.8842
 5450TIP3   OH237764   4.821   2.553   2.100  0.7771  0.2284  0.4789
 5450TIP3    H137765   4.890   2.559   2.166  0.9961  0.4182  0.2352
 5450TIP3    H237766   4.834   2.467   2.060  1.1672  0.4516  0.1146
 5451TIP3   OH237767   0.990   4.811  16.835  0.2485  0.0153  0.6491
 5451TIP3    H137768   0.942   4.804  16.753 -0.9849 -0.9078  1.4183
 5451TIP3    H237769   0.926   4.845  16.898  1.1268  0.5768  1.2692
 5452TIP3   OH237770   4.617   0.283  12.142  0.0577 -0.1277  0.4032
 5452TIP3    H137771   4.685   0.330  12.189 -0.2191  1.2605 -0.5277
 5452TIP3    H237772   4.661   0.208  12.104  0.6537 -0.2811  1.3646
 5453TIP3   OH237773   0.015   5.017  15.534  0.3052  0.4259  0.8062
 5453TIP3    H137774   0.029   4.929  15.500 -1.0060 -0.5317  2.5372
 5453TIP3    H237775   0.022   5.007  15.629 -2.0965  1.6532  1.2097
 5454TIP3   OH237776   0.943   1.887   1.434 -0.6529 -0.1238  0.4096
 5454TIP3    H137777   0.907   1.870   1.347  0.5177  3.1105 -0.8664
 5454TIP3    H237778   0.907   1.971   1.459  1.8333  0.7610  1.3786
 5455TIP3   OH237779   1.439   3.810  13.891  0.1621  0.2507 -0.3907
 5455TIP3    H137780   1.351   3.843  13.872  0.0602  0.7373  0.8136
 5455TIP3    H237781   1.433   3.776  13.981  0.7145 -1.4995 -0.9756
 5456TIP3   OH237782   0.206   5.822   5.915 -0.1163  0.0496 -0.1503
 5456TIP3    H137783   0.284   5.848   5.867  0.0296  1.5540  0.8330
 5456TIP3    H237784   0.189   5.731   5.888 -0.0055  0.7854 -2.9200
 5457TIP3   OH237785   3.120   4.955   3.548  0.2054  0.2767  0.0799
 5457TIP3    H137786   3.130   4.933   3.455  1.3092 -1.1229  0.4913
 5457TIP3    H237787   3.025   4.963   3.561  0.0138  0.0843 -1.0808
 5458TIP3   OH237788   1.932   0.036   1.773 -0.0992 -0.2632 -0.3295
 5458TIP3    H137789   1.933   0.101   1.703  0.6955  0.1215  0.0280
 5458TIP3    H237790   1.842   0.004   1.774 -0.1215 -0.2657 -1.5110
 5459TIP3   OH237791   1.885   1.328   2.198 -0.0420  0.4331 -0.5879
 5459TIP3    H137792   1.827   1.338   2.274 -0.5046  0.1794 -0.8997
 5459TIP3    H237793   1.867   1.405   2.144 -0.0429  0.3885 -0.6518
 5460TIP3   OH237794   4.457   0.712  13.959  0.5236 -0.0038 -0.2165
 5460TIP3    H137795   4.436   0.663  14.038  0.9113  0.6921  0.3274
 5460TIP3    H237796   4.544   0.682  13.934  0.1533 -0.6752 -0.7464
 5461TIP3   OH237797   2.312   0.891  11.821 -0.5356 -0.1193  0.2189
 5461TIP3    H137798   2.352   0.949  11.885  0.8123 -1.8020  0.9623
 5461TIP3    H237799   2.266   0.826  11.873  0.5361 -1.4833 -0.4924
 5462TIP3   OH237800   1.572   1.343  13.245  0.0299 -0.4782 -0.0407
 5462TIP3    H137801   1.578   1.344  13.149  0.9370 -0.9504 -0.0050
 5462TIP3    H237802   1.645   1.397  13.274 -0.2659 -0.3038  0.3901
 5463TIP3   OH237803   4.015   0.042  14.958 -0.1711 -0.4254 -0.3056
 5463TIP3    H137804   4.058   0.119  14.920  0.4134 -1.0263 -0.8890
 5463TIP3    H237805   4.053  -0.032  14.912 -0.8484 -1.0649  0.1334
 5464TIP3   OH237806   0.977   5.518   5.703 -0.5235 -0.3793 -0.4247
 5464TIP3    H137807   1.072   5.510   5.689 -0.3986 -0.6374  0.5004
 5464TIP3    H237808   0.946   5.427   5.705 -0.6586 -0.3267  0.0794
 5465TIP3   OH237809   0.258   1.051  15.852  0.1305 -0.1686 -0.2243
 5465TIP3    H137810   0.340   1.016  15.818 -1.2716 -2.2146 -1.7634
 5465TIP3    H237811   0.211   1.082  15.774 -0.8088  0.4278  0.5466
 5466TIP3   OH237812   4.192   5.755   4.886 -0.2627  0.0639  0.7063
 5466TIP3    H137813   4.191   5.708   4.969 -0.7219  0.5224  0.9693
 5466TIP3    H237814   4.284   5.755   4.860 -0.0171  0.4433  1.5275
 5467TIP3   OH237815   6.033   3.302  15.499 -0.4435 -0.2345  0.2404
 5467TIP3    H137816   6.038   3.207  15.509  0.0151 -0.2919 -0.4917
 5467TIP3    H237817   6.119   3.327  15.466 -1.0665  0.2478 -1.0732
 5468TIP3   OH237818   4.791   5.450   3.870 -0.2666 -0.6793  0.2174
 5468TIP3    H137819   4.856   5.416   3.932  0.6525 -0.1919 -0.4541
 5468TIP3    H237820   4.788   5.544   3.888  0.2866 -0.4696 -0.7004
 5469TIP3   OH237821   6.127   6.226   4.272 -0.4809 -0.3919  0.5410
 5469TIP3    H137822   6.151   6.142   4.232  0.7980 -0.7987  2.0586
 5469TIP3    H237823   6.173   6.292   4.220 -2.1824 -0.4889 -1.2047
 5470TIP3   OH237824   0.669   3.214   4.489  0.2534 -0.4190  0.4251
 5470TIP3    H137825   0.679   3.268   4.411 -2.9779  0.3868  0.4431
 5470TIP3    H237826   0.710   3.265   4.559  1.6217 -0.3454 -0.4062
 5471TIP3   OH237827   5.413   3.459   2.827  0.1646 -0.0172  0.1681
 5471TIP3    H137828   5.348   3.448   2.896  1.0800  2.5145  1.5485
 5471TIP3    H237829   5.464   3.377   2.829 -0.8660 -0.6541  1.3403
 5472TIP3   OH237830   1.583   2.636   3.022 -0.2878 -0.5189  0.3196
 5472TIP3    H137831   1.598   2.727   2.995 -2.2415  0.2458  1.5358
 5472TIP3    H237832   1.553   2.592   2.942 -1.4334  0.4983  0.1499
 5473TIP3   OH237833   4.191   4.607  17.004 -0.0415 -0.0705  0.1989
 5473TIP3    H137834   4.182   4.520  16.964  0.5442 -0.5747  1.1127
 5473TIP3    H237835   4.219   4.588  17.094  0.9983  1.0908  0.1379
 5474TIP3   OH237836   0.014   1.654  16.703  0.2335 -0.1320 -0.5283
 5474TIP3    H137837  -0.034   1.607  16.635 -1.5090  0.0521  0.5158
 5474TIP3    H237838   0.025   1.743  16.668 -0.1903 -0.1812 -0.7911
 5475TIP3   OH237839   2.157   4.391  15.750 -0.0413  0.0438 -0.3313
 5475TIP3    H137840   2.190   4.457  15.689 -1.6609 -1.2295 -2.7420
 5475TIP3    H237841   2.115   4.442  15.819  0.4097  1.5487 -1.1132
 5476TIP3   OH237842   5.506   4.033   0.756  0.0050 -0.0629 -0.1218
 5476TIP3    H137843   5.535   4.107   0.809 -1.4769  1.0669 -0.8223
 5476TIP3    H237844   5.518   3.957   0.812 -0.0751  0.9080  1.2549
 5477TIP3   OH237845   0.618   4.886   5.288 -0.3196  0.3903  0.1084
 5477TIP3    H137846   0.648   4.965   5.334  1.5597 -0.0849 -0.2349
 5477TIP3    H237847   0.694   4.828   5.287 -0.6604 -0.1426 -2.4762
 5478TIP3   OH237848   4.381   5.396   5.293  0.1747 -0.2666  0.3322
 5478TIP3    H137849   4.476   5.383   5.288  0.6716  2.9113 -1.2475
 5478TIP3    H237850   4.350   5.371   5.206 -0.2289 -0.0333  0.4106
 5479TIP3   OH237851   5.876   0.926   0.266 -0.0833 -0.6238 -0.2013
 5479TIP3    H137852   5.787   0.907   0.236  0.0954 -1.8799  0.0058
 5479TIP3    H237853   5.932   0.874   0.208  0.6114  1.0029 -1.0565
 5480TIP3   OH237854   0.368   2.979   5.386 -0.1024  0.1268  0.1997
 5480TIP3    H137855   0.331   3.039   5.320 -0.9223  0.3203  0.8221
 5480TIP3    H237856   0.376   3.033   5.465 -1.5347 -0.7601  0.9735
 5481TIP3   OH237857   0.775   1.649   4.147  0.0147 -0.1926  0.3806
 5481TIP3    H137858   0.786   1.729   4.200 -0.6009  0.6132 -0.6629
 5481TIP3    H237859   0.861   1.636   4.106 -0.1385  0.4627 -0.1561
 5482TIP3   OH237860   3.105   4.834  12.283  0.2211 -0.2111 -0.2878
 5482TIP3    H137861   3.108   4.822  12.188  0.0945 -0.3527 -0.2754
 5482TIP3    H237862   3.106   4.929  12.295  1.0424 -0.1977 -0.3980
 5483TIP3   OH237863   0.013   5.814   6.238  0.5328 -1.0629  0.1905
 5483TIP3    H137864   0.076   5.764   6.290  1.2198 -0.1953  0.2267
 5483TIP3    H237865   0.030   5.905   6.261  0.3953 -0.7020 -1.0626
 5484TIP3   OH237866   6.602   4.263   4.355 -0.2276  0.3506 -0.4052
 5484TIP3    H137867   6.637   4.208   4.425 -0.6947 -1.3519 -1.4486
 5484TIP3    H237868   6.606   4.352   4.390 -2.0293 -0.5692  2.4694
 5485TIP3   OH237869   0.910   6.642   5.133 -0.0381  0.2205 -0.0062
 5485TIP3    H137870   0.976   6.702   5.097 -0.1469 -0.7297 -1.9396
 5485TIP3    H237871   0.854   6.698   5.187 -0.4325  2.0007 -2.1041
 5486TIP3   OH237872   5.241   2.601  13.423 -0.0580  0.0412 -0.6890
 5486TIP3    H137873   5.229   2.583  13.330  0.3766  0.6624 -0.8729
 5486TIP3    H237874   5.288   2.524  13.456 -4.0890 -2.3666  0.0221
 5487TIP3   OH237875   6.579   1.245   0.066  0.2373  0.5026 -0.1925
 5487TIP3    H137876   6.536   1.303   0.003 -0.9051  0.9898  1.0113
 5487TIP3    H237877   6.667   1.280   0.074 -0.0237  1.2566 -0.5069
 5488TIP3   OH237878   0.629   4.533   5.435  0.2775  0.6429  0.7681
 5488TIP3    H137879   0.695   4.599   5.455  0.9487  0.0002  0.7257
 5488TIP3    H237880   0.640   4.515   5.342 -0.7938  1.4164  0.4729
 5489TIP3   OH237881   0.042   6.667   0.908 -0.6930  0.5046 -0.0135
 5489TIP3    H137882   0.105   6.717   0.960 -0.4987  0.4074 -0.1562
 5489TIP3    H237883   0.034   6.584   0.954  1.1780 -0.4872 -1.3180
 5490TIP3   OH237884   5.971   5.075  12.008  0.4799 -0.2845  0.9895
 5490TIP3    H137885   5.927   5.104  12.088 -1.4771  0.5590 -0.2986
 5490TIP3    H237886   6.034   5.145  11.988 -1.2991  1.1559  0.1310
 5491TIP3   OH237887   3.275   3.294   4.130  0.0825  0.1196 -0.5738
 5491TIP3    H137888   3.356   3.273   4.176  0.0358  1.9197  0.4199
 5491TIP3    H237889   3.303   3.316   4.041  0.4330 -1.1778 -0.8054
 5492TIP3   OH237890   2.003   6.529  15.935 -0.1773  0.0686 -0.0306
 5492TIP3    H137891   1.932   6.588  15.911  1.0314  0.9964 -1.4777
 5492TIP3    H237892   2.043   6.569  16.013  0.2007  0.8053 -0.5946
 5493TIP3   OH237893   2.990   1.963   1.664  0.1702 -0.5903  0.3180
 5493TIP3    H137894   3.082   1.941   1.680  0.5937  0.7245 -0.1318
 5493TIP3    H237895   2.945   1.940   1.745  0.9840 -0.8406  0.7078
 5494TIP3   OH237896   1.675   0.376   0.135  0.8237  0.2893  0.1425
 5494TIP3    H137897   1.647   0.398   0.224 -0.5212  0.1421 -0.2166
 5494TIP3    H237898   1.681   0.460   0.090 -0.1551  0.2580 -0.0725
 5495TIP3   OH237899   3.353   6.482  14.059 -0.1839  0.0413  0.9577
 5495TIP3    H137900   3.442   6.447  14.058 -0.3813 -0.5693 -1.2090
 5495TIP3    H237901   3.364   6.576  14.045  0.1175 -0.2926 -1.4653
 5496TIP3   OH237902   3.220   4.922  12.741  0.0383 -0.7938  0.1078
 5496TIP3    H137903   3.297   4.909  12.686  0.2639 -1.3809  0.5526
 5496TIP3    H237904   3.146   4.910  12.681  0.2808 -1.2694 -0.1013
 5497TIP3   OH237905   5.087   0.082   3.261 -0.3950 -0.0894  0.0847
 5497TIP3    H137906   5.067   0.145   3.192  0.3845  0.3647  0.2546
 5497TIP3    H237907   5.007   0.030   3.271 -0.6716  0.1512 -0.8228
 5498TIP3   OH237908   3.567   5.652  11.533  0.5489 -0.0794  0.1972
 5498TIP3    H137909   3.618   5.710  11.477  1.7510 -0.6074  0.7090
 5498TIP3    H237910   3.528   5.710  11.599 -0.0463  0.4064 -0.5546
 5499TIP3   OH237911   4.045   1.549  14.352  0.2915 -0.6328 -0.2412
 5499TIP3    H137912   4.028   1.628  14.404  0.0456  1.3580 -3.0431
 5499TIP3    H237913   4.140   1.546  14.343  0.3157 -0.7885  0.0754
 5500TIP3   OH237914   1.268   0.514  14.036 -0.4323 -0.1518 -0.1370
 5500TIP3    H137915   1.299   0.546  14.121  1.2551 -0.7593 -0.4814
 5500TIP3    H237916   1.240   0.424  14.054  0.3498 -0.4304 -0.3120
 5501TIP3   OH237917   4.195   3.618  17.026 -0.5241  0.2199  0.4957
 5501TIP3    H137918   4.247   3.608  16.946 -0.0648  1.2969  0.6532
 5501TIP3    H237919   4.135   3.543  17.024  0.3844 -0.5168 -0.1724
 5502TIP3   OH237920   3.062   2.259  12.284 -0.1549 -0.3058  0.5272
 5502TIP3    H137921   3.011   2.255  12.203 -1.6539  1.6540  1.2798
 5502TIP3    H237922   3.152   2.245  12.256 -0.6846 -0.1948 -1.4159
 5503TIP3   OH237923   0.722   6.091   0.003 -0.1569  0.1854 -0.6070
 5503TIP3    H137924   0.795   6.073   0.062 -1.0155  1.1660  0.8210
 5503TIP3    H237925   0.729   6.025  -0.066  0.4123 -1.5249  1.0329
 5504TIP3   OH237926   4.699   3.243   2.092 -0.3870 -0.4990  0.0710
 5504TIP3    H137927   4.661   3.301   2.157  1.4798  1.5534 -0.5649
 5504TIP3    H237928   4.669   3.279   2.008  0.7908 -0.4351 -0.3336
 5505TIP3   OH237929   0.098   3.431   0.827 -0.8050 -0.4965  0.9215
 5505TIP3    H137930   0.062   3.386   0.904 -2.4761  1.5803  1.4636
 5505TIP3    H237931   0.131   3.514   0.861  1.5402 -0.9020 -0.1509
 5506TIP3   OH237932   2.432   5.698  12.451 -0.2057  0.0481  0.1222
 5506TIP3    H137933   2.496   5.632  12.477  0.0691 -0.7316 -2.2432
 5506TIP3    H237934   2.463   5.779  12.491  2.5155 -0.2316 -1.1839
 5507TIP3   OH237935   6.543   4.162  14.676 -0.1749  0.7073 -0.1067
 5507TIP3    H137936   6.619   4.170  14.619  0.2014 -0.5978  0.1793
 5507TIP3    H237937   6.579   4.168  14.765 -0.4974  0.7685  0.0218
 5508TIP3   OH237938   6.712   1.846   2.154 -0.3277  0.7665  0.1947
 5508TIP3    H137939   6.664   1.928   2.151 -1.8126 -0.0797 -0.4675
 5508TIP3    H237940   6.646   1.779   2.134  0.4785 -0.7391  2.2558
 5509TIP3   OH237941   0.473   5.135  11.538 -0.0873 -0.9868  0.1024
 5509TIP3    H137942   0.468   5.224  11.503  0.3218 -0.9540  0.1214
 5509TIP3    H237943   0.404   5.131  11.604  1.1209 -0.0520  1.4846
 5510TIP3   OH237944   5.291   0.288   3.361  0.5100  0.1690 -0.1784
 5510TIP3    H137945   5.224   0.221   3.373  0.1099  0.7733  1.2487
 5510TIP3    H237946   5.308   0.289   3.267 -0.0208 -1.3858 -0.3131
 5511TIP3   OH237947   2.213   0.167   0.150  0.9528  0.2949 -0.4554
 5511TIP3    H137948   2.156   0.185   0.225  1.6521 -0.6043  0.3148
 5511TIP3    H237949   2.205   0.245   0.095  0.2747  0.8891  0.4500
 5512TIP3   OH237950   0.498   2.771  13.875  0.1257  0.1247 -0.0095
 5512TIP3    H137951   0.443   2.734  13.806 -0.6953 -1.8235  1.5843
 5512TIP3    H237952   0.440   2.831  13.922 -0.9930 -2.3742  2.0413
 5513TIP3   OH237953   4.811   4.485   1.671 -0.3506 -0.3104 -0.5301
 5513TIP3    H137954   4.820   4.420   1.601 -1.5061  1.2125 -2.1784
 5513TIP3    H237955   4.792   4.567   1.626 -0.0413  0.9804  1.5359
 5514TIP3   OH237956   0.432   5.065  13.921 -0.0214 -0.1250 -0.3521
 5514TIP3    H137957   0.342   5.060  13.955 -0.2020 -2.2059 -0.9684
 5514TIP3    H237958   0.483   5.011  13.980  0.5788  0.0232 -0.7255
 5515TIP3   OH237959   5.595   2.198   2.109  0.3944  0.0488  0.6302
 5515TIP3    H137960   5.504   2.216   2.133  0.2943 -0.2479  0.4663
 5515TIP3    H237961   5.615   2.263   2.041 -0.4934 -1.4724 -1.1789
 5516TIP3   OH237962   3.579   6.767  12.473 -0.4934  0.6889  0.3601
 5516TIP3    H137963   3.575   6.689  12.418 -2.0389  0.8022  0.2599
 5516TIP3    H237964   3.673   6.784  12.484 -0.1350 -0.7819 -0.1611
 5517TIP3   OH237965   3.566   5.395   5.985  0.1391 -0.6563  0.2010
 5517TIP3    H137966   3.561   5.455   6.059  1.1366 -0.2909 -0.0059
 5517TIP3    H237967   3.502   5.328   6.004  0.9577 -1.0294  1.8304
 5518TIP3   OH237968   1.305   4.239  13.932  0.3228  0.4688  0.2931
 5518TIP3    H137969   1.370   4.284  13.986  0.4915  1.2312 -0.5156
 5518TIP3    H237970   1.354   4.207  13.857  0.2643 -1.3774  0.9812
 5519TIP3   OH237971   5.297   4.734  14.784  0.3904  0.0381  0.0380
 5519TIP3    H137972   5.258   4.798  14.724 -0.1107 -0.3762 -0.0782
 5519TIP3    H237973   5.320   4.660  14.729 -1.5300 -1.0079  0.5811
 5520TIP3   OH237974   5.628   5.430   1.683 -0.1225  0.0233 -0.3840
 5520TIP3    H137975   5.565   5.458   1.617 -1.4492  0.0603  0.8392
 5520TIP3    H237976   5.576   5.377   1.744  0.5859  1.5975  1.6959
 5521TIP3   OH237977   0.349   4.556   1.014 -0.3979 -0.4234 -0.4504
 5521TIP3    H137978   0.303   4.486   1.060 -1.1393  0.4149  0.1325
 5521TIP3    H237979   0.286   4.587   0.949 -0.2790  0.0379 -0.3487
 5522TIP3   OH237980   4.145   4.136   0.291  0.5943  0.2854 -0.4821
 5522TIP3    H137981   4.077   4.092   0.240  1.2006 -0.9420 -0.2765
 5522TIP3    H237982   4.167   4.073   0.361  1.0684  1.1669  0.1824
 5523TIP3   OH237983   4.930   0.750   4.756  0.1087  0.4311 -0.2968
 5523TIP3    H137984   4.973   0.834   4.773  0.5152 -0.0686  1.3158
 5523TIP3    H237985   4.892   0.760   4.669  0.4620  2.1522 -0.2911
 5524TIP3   OH237986   3.900   0.169   0.202 -0.4011  0.0409  0.3499
 5524TIP3    H137987   3.877   0.113   0.275 -0.7227 -1.8234 -1.1049
 5524TIP3    H237988   3.995   0.180   0.208 -0.1120 -1.8787 -0.1033
 5525TIP3   OH237989   5.013   4.691  15.555 -0.0318  0.3176  0.7381
 5525TIP3    H137990   4.938   4.688  15.494  1.1422 -0.3652 -0.7421
 5525TIP3    H237991   4.981   4.741  15.629 -1.6617  0.8724 -0.2781
 5526TIP3   OH237992   0.187   0.800  12.281  0.1975  0.1253 -0.6141
 5526TIP3    H137993   0.109   0.751  12.308  0.4675 -1.2216 -2.1512
 5526TIP3    H237994   0.203   0.773  12.191  2.9599 -0.3093 -0.0712
 5527TIP3   OH237995   0.828   0.902  11.233 -0.3625 -0.1140  0.1992
 5527TIP3    H137996   0.809   0.855  11.152  0.9356  1.1655 -0.9017
 5527TIP3    H237997   0.746   0.947  11.255 -0.1223  1.3947 -1.7335
 5528TIP3   OH237998   3.456   4.701  15.775 -0.0935  0.0519  0.0683
 5528TIP3    H137999   3.406   4.713  15.856 -1.9588 -1.9800 -0.6799
 5528TIP3    H238000   3.391   4.673  15.711  1.9508 -2.4569 -1.0585
 5529TIP3   OH238001   4.124   1.662   4.092  0.1732  0.6769  0.1051
 5529TIP3    H138002   4.041   1.634   4.054  0.0198  0.4760  0.5853
 5529TIP3    H238003   4.105   1.745   4.135  0.4354  1.1032 -0.5713
 5530TIP3   OH238004   2.911   0.028   5.491  0.1281  0.1373 -0.0016
 5530TIP3    H138005   2.971   0.057   5.559 -1.1586 -1.2696  1.8501
 5530TIP3    H238006   2.950  -0.053   5.456  1.1304  1.2161 -1.4961
 5531TIP3   OH238007   4.218   0.780  12.944  0.1411 -0.3245  0.1895
 5531TIP3    H138008   4.173   0.697  12.958 -0.1142  0.1567  2.6526
 5531TIP3    H238009   4.150   0.847  12.955  0.0607  0.2664 -3.0290
 5532TIP3   OH238010   1.062   4.849  12.963  0.4767 -0.2254 -0.1972
 5532TIP3    H138011   1.123   4.891  12.902  0.2982 -1.6175 -1.3734
 5532TIP3    H238012   1.090   4.879  13.049  2.0133  0.1834 -0.8103
 5533TIP3   OH238013   2.101   3.452  15.437 -0.7103  0.1153 -0.3223
 5533TIP3    H138014   2.012   3.416  15.445 -0.2608 -0.8772  0.4948
 5533TIP3    H238015   2.148   3.386  15.386  0.1832 -0.6004  1.3642
 5534TIP3   OH238016   2.056   0.322  15.193 -0.2149  0.4957  0.2424
 5534TIP3    H138017   2.013   0.397  15.234 -1.1861 -0.4035  0.8928
 5534TIP3    H238018   1.998   0.297  15.121  0.1458  0.4043 -0.0208
 5535TIP3   OH238019   6.465   2.171   1.471 -0.5182  0.1916  0.1327
 5535TIP3    H138020   6.557   2.146   1.480 -0.3840  0.1263 -1.2622
 5535TIP3    H238021   6.456   2.197   1.380 -1.4455  2.0266  0.7022
 5536TIP3   OH238022   3.399   1.905  17.200 -0.0570 -0.0630  0.3038
 5536TIP3    H138023   3.415   1.817  17.233  2.5934  0.2558  0.0846
 5536TIP3    H238024   3.466   1.959  17.241 -0.5659  1.5356 -0.8549
 5537TIP3   OH238025   2.599   6.567  16.262 -0.1984  0.4310  0.2671
 5537TIP3    H138026   2.629   6.478  16.281  1.6009  0.5413 -1.6688
 5537TIP3    H238027   2.549   6.593  16.339  0.6625 -1.6362  1.5977
 5538TIP3   OH238028   2.839   0.466   0.183 -0.1703  0.1319 -0.6871
 5538TIP3    H138029   2.881   0.471   0.097  0.4183 -0.2778 -0.4283
 5538TIP3    H238030   2.898   0.514   0.241  1.1677 -2.3492  0.1389
 5539TIP3   OH238031   3.807   4.144  11.768  0.5051 -0.1600 -0.0266
 5539TIP3    H138032   3.864   4.083  11.721 -1.8133 -0.5345 -2.6359
 5539TIP3    H238033   3.838   4.230  11.740 -0.5383 -0.3702 -2.0600
 5540TIP3   OH238034   5.159   5.492   2.206 -0.1665 -0.2944 -0.0494
 5540TIP3    H138035   5.068   5.487   2.235 -0.2710  1.2885 -0.0076
 5540TIP3    H238036   5.210   5.469   2.284 -0.5125 -1.0336 -0.0311
 5541TIP3   OH238037   0.371   0.168  16.018  0.8299 -0.0135 -0.2241
 5541TIP3    H138038   0.406   0.196  15.933 -0.4816  1.7080 -0.2516
 5541TIP3    H238039   0.295   0.225  16.032  0.9577 -0.3446  2.0597
 5542TIP3   OH238040   6.215   4.079   2.349  0.5226  0.4677 -0.0955
 5542TIP3    H138041   6.269   4.152   2.379  0.3378  0.7006 -0.3210
 5542TIP3    H238042   6.177   4.043   2.429  0.3342  0.8421 -0.0146
 5543TIP3   OH238043   3.714   6.001  16.640 -0.1560 -0.0793  0.2665
 5543TIP3    H138044   3.652   5.935  16.610  3.2274 -3.5989  0.2923
 5543TIP3    H238045   3.739   6.048  16.560 -0.8284 -0.4369 -0.1623
 5544TIP3   OH238046   0.781   2.497  17.170 -0.1396 -0.4259 -0.0690
 5544TIP3    H138047   0.806   2.589  17.163 -0.2610 -0.3785  0.1115
 5544TIP3    H238048   0.780   2.479  17.265 -0.0374 -0.6338 -0.1068
 5545TIP3   OH238049   3.518   4.929   5.551 -0.3595 -0.3871 -0.0962
 5545TIP3    H138050   3.543   4.984   5.477 -3.7182  0.1251 -1.0252
 5545TIP3    H238051   3.549   4.842   5.528  0.7618  0.2044 -0.9288
 5546TIP3   OH238052   3.106   3.339  14.756 -0.1659 -0.1058  0.0356
 5546TIP3    H138053   3.164   3.399  14.708 -1.9301  0.4973 -1.4818
 5546TIP3    H238054   3.089   3.384  14.839  2.4158 -0.8536  1.0737
 5547TIP3   OH238055   6.617   5.546  15.448 -0.2612  0.1333 -0.5488
 5547TIP3    H138056   6.583   5.484  15.383  2.4245 -0.7615 -1.2178
 5547TIP3    H238057   6.707   5.562  15.421  0.1941  1.6613  1.6286
 5548TIP3   OH238058   2.476   0.787   5.733  0.2531  0.1902  0.4139
 5548TIP3    H138059   2.542   0.740   5.783 -0.3502 -0.3287  0.7279
 5548TIP3    H238060   2.392   0.749   5.760 -0.0828 -0.1963 -1.0741
 5549TIP3   OH238061   4.031   4.370  15.408 -0.4946  0.7400  0.4141
 5549TIP3    H138062   4.105   4.324  15.448  0.3600  1.6394 -0.1153
 5549TIP3    H238063   3.963   4.369  15.475  0.1400  0.2695  1.0583
 5550TIP3   OH238064   6.220   5.644  12.961  0.2615 -0.5403 -0.2798
 5550TIP3    H138065   6.300   5.610  13.001  0.4507 -0.4746 -0.6047
 5550TIP3    H238066   6.250   5.702  12.892 -0.0591  0.2482  0.2317
 5551TIP3   OH238067   4.535   4.153   2.200 -0.4791  0.2075  0.1506
 5551TIP3    H138068   4.553   4.060   2.190  1.1398  0.3442  1.4059
 5551TIP3    H238069   4.532   4.187   2.111  2.4543 -0.4497 -0.2964
 5552TIP3   OH238070   5.580   2.165  14.894  0.2463 -0.2194  0.4595
 5552TIP3    H138071   5.674   2.152  14.884  0.4438  1.3564 -0.0155
 5552TIP3    H238072   5.569   2.191  14.986  0.5825  1.7451 -0.0213
 5553TIP3   OH238073   6.045   0.787   2.949 -0.0825 -0.6423  0.1351
 5553TIP3    H138074   6.112   0.829   2.895 -0.5326 -2.2562 -1.8152
 5553TIP3    H238075   5.967   0.788   2.895 -0.6584 -2.0353  0.8804
 5554TIP3   OH238076   1.208   0.746  15.899 -0.5552 -0.4600 -0.5126
 5554TIP3    H138077   1.290   0.768  15.943 -0.3963 -3.0251  0.6445
 5554TIP3    H238078   1.187   0.658  15.929 -2.7310 -0.6568 -2.3059
 5555TIP3   OH238079   2.751   4.570   4.449 -0.6307  0.4158  0.2432
 5555TIP3    H138080   2.793   4.646   4.408 -3.3568  2.0627  0.2662
 5555TIP3    H238081   2.779   4.573   4.541  1.5194 -0.3532 -0.3327
 5556TIP3   OH238082   2.240   4.264  12.971  0.2516  0.5805  1.0994
 5556TIP3    H138083   2.327   4.254  13.009 -0.0196 -0.0920  1.5608
 5556TIP3    H238084   2.232   4.191  12.910 -0.2098  0.2923  1.4968
 5557TIP3   OH238085   3.950   6.171  14.871 -0.1255  0.3369 -0.1192
 5557TIP3    H138086   3.960   6.246  14.812 -0.4615  0.2276 -0.3202
 5557TIP3    H238087   3.910   6.208  14.950 -0.8267  0.2767 -0.4394
 5558TIP3   OH238088   1.232   3.899  14.520  0.4559  0.5489  0.5697
 5558TIP3    H138089   1.225   3.847  14.601 -1.7144 -1.0432 -0.5306
 5558TIP3    H238090   1.175   3.974  14.535  1.0572  0.9312  0.9729
 5559TIP3   OH238091   3.541   4.932   1.700  0.0446 -0.1436  0.6099
 5559TIP3    H138092   3.571   4.938   1.609 -2.0252  0.3256 -0.1090
 5559TIP3    H238093   3.608   4.880   1.745  0.0820 -2.2267 -1.6612
 5560TIP3   OH238094   4.494   5.454  13.251 -0.3798  0.3213  0.0783
 5560TIP3    H138095   4.444   5.374  13.233 -2.6613  1.8126 -0.6525
 5560TIP3    H238096   4.551   5.430  13.324 -1.7084 -1.6998  0.5514
 5561TIP3   OH238097   5.279   3.662  17.228 -0.6089  0.3969 -0.2784
 5561TIP3    H138098   5.275   3.567  17.239  0.4058  0.5269  1.5103
 5561TIP3    H238099   5.272   3.676  17.133 -1.2255 -1.4147 -0.5294
 5562TIP3   OH238100   0.459   1.812  15.815 -0.1816 -0.0168 -0.2605
 5562TIP3    H138101   0.500   1.727  15.800 -1.8497 -0.9840  0.3435
 5562TIP3    H238102   0.473   1.830  15.908  1.5991  1.2206 -0.7086
 5563TIP3   OH238103   2.097   2.280  12.627  0.2448  0.6823 -0.2054
 5563TIP3    H138104   2.125   2.263  12.717 -0.5271  2.1695  0.3572
 5563TIP3    H238105   2.050   2.364  12.632 -2.4132 -0.6167 -1.4550
 5564TIP3   OH238106   3.945   2.069  15.882  1.0135  0.4489  0.0345
 5564TIP3    H138107   3.879   2.039  15.945  0.4725  0.1697 -0.6491
 5564TIP3    H238108   3.966   1.991  15.830 -2.0825  1.5334 -3.2879
 5565TIP3   OH238109   1.697   1.629  16.339 -0.6474 -0.4290  0.3472
 5565TIP3    H138110   1.662   1.652  16.253  0.5402  3.0150  0.6552
 5565TIP3    H238111   1.789   1.605  16.321 -0.5292 -0.1712  0.6088
 5566TIP3   OH238112   5.010   2.677  16.949  0.0960 -0.1675 -0.3656
 5566TIP3    H138113   4.922   2.639  16.956  1.7073 -4.1524  1.1430
 5566TIP3    H238114   5.068   2.602  16.940  3.4464  2.2656 -1.0593
 5567TIP3   OH238115   2.018   0.624   0.222 -0.0287  0.3092 -0.2873
 5567TIP3    H138116   2.102   0.581   0.206  0.3272  0.6117  0.7454
 5567TIP3    H238117   1.993   0.597   0.310 -0.2773  1.4301 -0.0017
 5568TIP3   OH238118   5.074   2.376   5.174  0.0541  0.1479  0.0627
 5568TIP3    H138119   5.068   2.302   5.113  0.1399 -0.3098  0.5984
 5568TIP3    H238120   5.051   2.338   5.259  1.4032  0.4285  0.5759
 5569TIP3   OH238121   1.859   1.653   2.376 -0.3668  0.0214 -0.3456
 5569TIP3    H138122   1.824   1.565   2.366 -1.7553  0.6312 -1.1994
 5569TIP3    H238123   1.783   1.710   2.365  0.5339  1.3312  0.0000
 5570TIP3   OH238124   2.480   4.390  15.928 -0.7597 -0.5103 -0.3152
 5570TIP3    H138125   2.447   4.480  15.921  1.4589  0.3552 -0.4181
 5570TIP3    H238126   2.500   4.366  15.837  0.8951 -0.1564 -0.0828
 5571TIP3   OH238127   6.012   4.890  16.405 -0.1007 -0.2738 -0.1729
 5571TIP3    H138128   6.009   4.883  16.500  0.2801 -3.1196 -0.2805
 5571TIP3    H238129   6.096   4.852  16.380 -1.1589 -1.7342 -1.7269
 5572TIP3   OH238130   3.247   1.742  13.830  0.1837 -0.2285  0.4049
 5572TIP3    H138131   3.327   1.746  13.882  0.6764  0.9870 -0.3829
 5572TIP3    H238132   3.246   1.825  13.782 -1.3820 -0.3715  0.1446
 5573TIP3   OH238133   0.540   2.142  12.678 -0.2602  0.3335  0.0031
 5573TIP3    H138134   0.551   2.224  12.726 -0.7898  0.2027  0.3583
 5573TIP3    H238135   0.452   2.113  12.701  0.9541 -1.8756  2.2882
 5574TIP3   OH238136   3.697   0.603  13.504  0.1313  0.0101 -0.0907
 5574TIP3    H138137   3.730   0.693  13.503  2.5239 -0.8009 -0.1142
 5574TIP3    H238138   3.608   0.610  13.469 -0.7195  2.6675  2.2195
 5575TIP3   OH238139   3.301   6.633  13.330 -0.0694 -0.7049 -0.0555
 5575TIP3    H138140   3.236   6.572  13.295 -0.0098 -0.3557 -0.8029
 5575TIP3    H238141   3.353   6.658  13.253  0.6896 -0.6709  0.4618
 5576TIP3   OH238142   0.822   3.878  16.081 -0.4989 -0.1206 -0.2428
 5576TIP3    H138143   0.889   3.944  16.098 -2.9661  2.3125  0.8298
 5576TIP3    H238144   0.840   3.808  16.143  1.9620 -0.3904 -1.1438
 5577TIP3   OH238145   4.307   2.650   2.114  0.5903  0.7399 -0.1969
 5577TIP3    H138146   4.376   2.583   2.113  0.2681  0.4048 -1.0842
 5577TIP3    H238147   4.225   2.600   2.120  0.4382  1.1774  2.0985
 5578TIP3   OH238148   0.995   3.942  16.409 -0.8316  0.2366  0.0585
 5578TIP3    H138149   1.011   3.978  16.322 -2.1953  0.3488 -0.1717
 5578TIP3    H238150   0.920   3.883  16.398  0.8593 -2.1526  0.5886
 5579TIP3   OH238151   5.401   3.262   6.046  0.1465  0.0800 -0.4168
 5579TIP3    H138152   5.357   3.259   6.131 -0.4535  1.6244 -0.6305
 5579TIP3    H238153   5.487   3.299   6.065  1.3351 -2.6570 -0.0447
 5580TIP3   OH238154   5.829   2.754   4.556 -0.1725  0.5874 -0.5983
 5580TIP3    H138155   5.760   2.818   4.538 -1.3364 -0.3546  0.2688
 5580TIP3    H238156   5.849   2.715   4.471 -0.2491  1.3212 -0.9551
 5581TIP3   OH238157   6.230   2.773   4.422  0.1119  0.1595  0.0541
 5581TIP3    H138158   6.157   2.769   4.483  0.9024 -0.7423  0.9761
 5581TIP3    H238159   6.291   2.706   4.452  1.3367  0.8872 -0.6781
 5582TIP3   OH238160   3.414   0.154   3.403 -0.2708 -0.7506  0.4848
 5582TIP3    H138161   3.409   0.139   3.497  0.5064  0.4042  0.7293
 5582TIP3    H238162   3.476   0.087   3.372 -0.0107 -0.7042  0.8991
 5583TIP3   OH238163   5.304   5.294   5.368 -0.1681 -0.1159  0.5821
 5583TIP3    H138164   5.318   5.385   5.343  0.8181  0.1916  2.1163
 5583TIP3    H238165   5.392   5.261   5.387 -0.3262 -1.8439 -1.2821
 5584TIP3   OH238166   4.912   1.737  16.988 -0.3640 -0.5102 -0.4809
 5584TIP3    H138167   4.856   1.788  17.046  1.2018  0.6186  0.0982
 5584TIP3    H238168   4.858   1.662  16.962 -1.0452 -1.2684  2.6933
 5585TIP3   OH238169   0.513   6.208  15.759  0.4609  0.0418  0.3991
 5585TIP3    H138170   0.493   6.238  15.848 -1.8747 -0.6346  0.1505
 5585TIP3    H238171   0.450   6.138  15.742 -0.0331  1.0119 -2.2520
 5586TIP3   OH238172   0.117   1.769   6.337  0.3320  0.0879 -0.2584
 5586TIP3    H138173   0.109   1.754   6.431  1.5128 -1.6958 -0.3789
 5586TIP3    H238174   0.209   1.749   6.317 -0.3870 -1.8300 -2.0998
 5587TIP3   OH238175   5.993   1.687  12.077  0.1997 -0.3618  0.5977
 5587TIP3    H138176   6.076   1.679  12.031 -0.8237 -2.9388 -1.0240
 5587TIP3    H238177   5.933   1.725  12.013 -0.8027 -2.3089  0.3130
 5588TIP3   OH238178   5.413   3.386   3.992 -0.8262  0.0495  0.0905
 5588TIP3    H138179   5.481   3.322   3.974 -0.4499  0.7622 -1.0764
 5588TIP3    H238180   5.347   3.337   4.042  0.1139 -0.8618  0.4685
 5589TIP3   OH238181   1.148   1.214  13.579  0.0522  0.0369 -0.5370
 5589TIP3    H138182   1.200   1.287  13.616 -0.6085  1.2965 -1.9942
 5589TIP3    H238183   1.082   1.257  13.525 -2.0340 -1.5606  0.5869
 5590TIP3   OH238184   6.581   2.867   1.507  0.3289  0.3276 -0.1610
 5590TIP3    H138185   6.604   2.859   1.415 -1.8254 -0.8941 -0.6561
 5590TIP3    H238186   6.566   2.777   1.536 -0.0130  0.7665  1.1027
 5591TIP3   OH238187   4.083   2.982   4.706  0.0809  0.0448 -0.6667
 5591TIP3    H138188   4.080   2.886   4.711  0.2117  0.0107 -1.1447
 5591TIP3    H238189   4.047   3.012   4.789 -0.6138 -0.4126 -0.7972
 5592TIP3   OH238190   1.513   6.757  16.185  0.3126 -0.3030 -0.4124
 5592TIP3    H138191   1.501   6.796  16.272  0.8632 -0.4081 -0.2818
 5592TIP3    H238192   1.606   6.734  16.183  0.0714 -1.2636 -0.6393
 5593TIP3   OH238193   3.468   2.151  16.572 -0.1617 -0.2731 -0.5838
 5593TIP3    H138194   3.470   2.219  16.639 -2.0173 -0.4275 -0.3115
 5593TIP3    H238195   3.552   2.158  16.528 -0.0053  1.6991 -0.0698
 5594TIP3   OH238196   5.904   1.650  15.212 -0.5306 -0.2842  0.1126
 5594TIP3    H138197   5.889   1.743  15.196 -1.0736 -0.1021  1.5916
 5594TIP3    H238198   5.832   1.606  15.166 -0.5453  0.0464 -0.1839
 5595TIP3   OH238199   6.642   0.025   5.517  0.0567 -0.2826  0.3740
 5595TIP3    H138200   6.724   0.070   5.537 -0.8568  0.6267  2.3436
 5595TIP3    H238201   6.641  -0.051   5.576 -0.2433 -0.6245 -0.0667
 5596TIP3   OH238202   4.909   0.345   1.728  0.3228 -0.0835  0.0764
 5596TIP3    H138203   4.958   0.299   1.660 -0.4036  0.2214 -0.6654
 5596TIP3    H238204   4.818   0.343   1.698  0.2004  1.3538  0.3054
 5597TIP3   OH238205   3.606   1.077   3.721 -0.6382  0.2035  0.7748
 5597TIP3    H138206   3.535   1.128   3.761 -1.1452  1.6153 -1.7417
 5597TIP3    H238207   3.575   0.986   3.723 -0.7745  0.2306  3.1481
 5598TIP3   OH238208   0.919   6.733  13.552  0.2787 -0.1506 -0.4191
 5598TIP3    H138209   0.999   6.692  13.584  2.0617  2.5461 -1.0582
 5598TIP3    H238210   0.881   6.775  13.629 -0.3080 -1.0364 -0.2096
 5599TIP3   OH238211   0.371   1.077  13.222 -0.5494  0.3856  0.0861
 5599TIP3    H138212   0.325   1.137  13.280  1.1680  0.1569  1.7895
 5599TIP3    H238213   0.460   1.113  13.216  0.6506 -2.1038  1.4785
 5600TIP3   OH238214   6.374   1.394   3.431 -0.8353  0.0772 -0.4515
 5600TIP3    H138215   6.400   1.385   3.339 -0.4215  2.5138 -0.6384
 5600TIP3    H238216   6.450   1.365   3.480 -1.2873 -1.8687 -0.8141
 5601TIP3   OH238217   2.494   0.823   2.112  0.0869 -0.2283  0.0642
 5601TIP3    H138218   2.445   0.747   2.143 -2.0916  0.9243 -0.3272
 5601TIP3    H238219   2.441   0.858   2.041  1.3920  1.2485 -0.2365
 5602TIP3   OH238220   1.658   0.303   5.829  0.3052  0.1229  0.0025
 5602TIP3    H138221   1.614   0.277   5.910  1.1830  1.9681  1.1471
 5602TIP3    H238222   1.734   0.246   5.823  0.4420  0.2276  0.7016
 5603TIP3   OH238223   5.169   2.656  14.761  0.2478 -0.3182  0.2370
 5603TIP3    H138224   5.100   2.698  14.812  0.5127  0.2424  0.1384
 5603TIP3    H238225   5.247   2.710  14.777  0.8849 -1.4076  1.0354
 5604TIP3   OH238226   6.775   3.847   3.865  0.0149 -0.5377  0.1821
 5604TIP3    H138227   6.708   3.905   3.901 -0.3510 -0.7784 -0.1025
 5604TIP3    H238228   6.849   3.905   3.846  0.1306 -0.3722  1.0976
 5605TIP3   OH238229   2.556   0.877  13.171  0.5511  0.7178 -0.2291
 5605TIP3    H138230   2.617   0.873  13.244  0.4800  1.2807 -0.1316
 5605TIP3    H238231   2.578   0.802  13.116  0.9805  0.6198  0.0766
 5606TIP3   OH238232   5.464   2.148  16.314  0.1687 -0.3404  0.4118
 5606TIP3    H138233   5.415   2.067  16.302 -1.1241  0.5437 -0.4431
 5606TIP3    H238234   5.528   2.127  16.382 -0.2039 -2.0377  0.2840
 5607TIP3   OH238235   3.840   1.325  14.650 -0.3260  0.0329 -0.3058
 5607TIP3    H138236   3.873   1.296  14.564  0.4548 -2.4760  0.7451
 5607TIP3    H238237   3.917   1.326  14.706 -1.2369 -1.1921  1.0349
 5608TIP3   OH238238   3.083   3.857  15.059 -0.2728 -0.2513  0.0151
 5608TIP3    H138239   3.088   3.868  14.964 -1.1014  0.6244  0.0559
 5608TIP3    H238240   3.171   3.830  15.085 -0.3638 -1.8459 -1.1569
 5609TIP3   OH238241   5.785   0.613   0.389 -0.3127 -0.2198  0.4026
 5609TIP3    H138242   5.854   0.622   0.323 -0.4317  2.2199  0.5191
 5609TIP3    H238243   5.763   0.520   0.388  2.7559 -1.0505  0.1496
 5610TIP3   OH238244   6.574   5.044   0.197  0.9234 -0.0722  0.1769
 5610TIP3    H138245   6.559   5.097   0.119  2.4578 -0.4956 -0.4521
 5610TIP3    H238246   6.496   5.057   0.251  0.1990  0.8786 -1.0523
 5611TIP3   OH238247   1.583   5.170   2.874  0.1203  0.4919 -0.2910
 5611TIP3    H138248   1.648   5.113   2.833  0.2588  0.7140 -0.3806
 5611TIP3    H238249   1.513   5.177   2.809 -0.1886 -0.0881 -0.0260
 5612TIP3   OH238250   1.414   2.167   4.179 -0.3585 -0.2476 -0.1078
 5612TIP3    H138251   1.476   2.219   4.229 -0.4904 -0.2271  0.0342
 5612TIP3    H238252   1.328   2.198   4.206 -0.4919 -1.6539  1.2252
 5613TIP3   OH238253   5.313   5.623   0.238 -0.3710  0.0407 -0.1414
 5613TIP3    H138254   5.298   5.670   0.320 -2.5443 -0.6968 -0.0384
 5613TIP3    H238255   5.258   5.669   0.174  0.1349 -0.3057 -0.8417
 5614TIP3   OH238256   0.182   3.730  11.790 -0.2700 -0.2668  0.3174
 5614TIP3    H138257   0.127   3.718  11.868 -1.3601  2.6386  0.1289
 5614TIP3    H238258   0.140   3.676  11.723 -1.8420  0.4065  0.6917
 5615TIP3   OH238259   1.790   2.619  16.272 -0.4796  0.2530  0.0483
 5615TIP3    H138260   1.733   2.664  16.335 -0.6948 -1.2169  0.9625
 5615TIP3    H238261   1.752   2.531  16.264  0.5105 -0.1098 -0.8680
 5616TIP3   OH238262   4.826   1.385   6.156 -0.0151  0.8311  0.2090
 5616TIP3    H138263   4.765   1.335   6.210  1.1168  2.5573  3.3404
 5616TIP3    H238264   4.861   1.451   6.215  3.3456  1.2183 -1.9694
 5617TIP3   OH238265   5.811   5.527  15.713 -0.2725 -0.2292 -0.8450
 5617TIP3    H138266   5.753   5.529  15.789  1.0066 -0.6705  0.1880
 5617TIP3    H238267   5.858   5.445  15.722  0.7347  0.2641 -1.4823
 5618TIP3   OH238268   5.208   4.813   3.708  0.3023 -0.1694 -0.2119
 5618TIP3    H138269   5.134   4.764   3.673  0.4038  0.1351 -0.8780
 5618TIP3    H238270   5.231   4.874   3.638 -0.4974  1.5789  0.9904
 5619TIP3   OH238271   4.010   2.380   3.065  0.2696  1.0837 -0.3423
 5619TIP3    H138272   3.924   2.380   3.023  0.0289  1.8671  0.1279
 5619TIP3    H238273   4.072   2.359   2.995 -0.3429  0.0796 -0.5948
 5620TIP3   OH238274   4.163   6.125   4.766  0.3973  0.1979  0.1687
 5620TIP3    H138275   4.256   6.104   4.768  0.1680 -0.8397  1.0235
 5620TIP3    H238276   4.158   6.217   4.792  1.2188  0.4703 -0.5731
 5621TIP3   OH238277   5.485   1.898   3.036  0.1726 -0.6230  0.2213
 5621TIP3    H138278   5.473   1.855   3.120 -1.4263 -0.8898 -0.1075
 5621TIP3    H238279   5.505   1.989   3.057 -1.1092 -0.4779  0.9097
 5622TIP3   OH238280   6.379   3.351   5.101 -0.1215  0.3599  0.4259
 5622TIP3    H138281   6.413   3.440   5.089  1.0416 -0.0729  0.3304
 5622TIP3    H238282   6.434   3.297   5.044 -0.2510 -0.5355  1.1327
 5623TIP3   OH238283   4.643   4.019   5.801  0.2210 -0.2401 -0.3768
 5623TIP3    H138284   4.562   4.015   5.852  0.0925 -0.3331 -0.5868
 5623TIP3    H238285   4.710   4.046   5.864 -0.1895  1.0502 -0.4583
 5624TIP3   OH238286   3.566   6.082   4.388 -0.2578 -0.3357  0.3490
 5624TIP3    H138287   3.569   6.008   4.449  0.8707  1.5186  2.6964
 5624TIP3    H238288   3.648   6.076   4.339  0.4672  0.0739  1.4762
 5625TIP3   OH238289   3.729   0.501  11.228 -0.7322  0.0382 -0.3102
 5625TIP3    H138290   3.785   0.576  11.247  2.6157 -1.5495 -2.9104
 5625TIP3    H238291   3.751   0.436  11.295  0.1542 -0.3511 -0.9559
 5626TIP3   OH238292   0.164   4.927   3.225 -0.3128 -0.3270  0.2454
 5626TIP3    H138293   0.159   4.930   3.129  1.4538  0.2846  0.1395
 5626TIP3    H238294   0.173   5.018   3.252  2.9930 -0.6516  0.6591
 5627TIP3   OH238295   0.026   3.315  16.358  0.2419  0.2956  0.1210
 5627TIP3    H138296  -0.027   3.273  16.290 -0.1943 -0.2744  0.8023
 5627TIP3    H238297  -0.038   3.362  16.412  0.4932  0.0471  0.6372
 5628TIP3   OH238298   3.474   4.317  15.924 -0.2814 -0.1820  0.3789
 5628TIP3    H138299   3.445   4.228  15.946 -0.6984 -0.0301  0.4565
 5628TIP3    H238300   3.420   4.341  15.849  0.9502 -0.5962 -0.6679
 5629TIP3   OH238301   3.008   5.101   0.802  0.1580  0.3543 -0.2405
 5629TIP3    H138302   3.103   5.095   0.793  0.0274 -1.6184 -0.8135
 5629TIP3    H238303   2.975   5.016   0.771 -1.5836 -0.2108  2.6938
 5630TIP3   OH238304   2.032   3.396   2.435  0.4738  0.1414 -0.3700
 5630TIP3    H138305   2.021   3.488   2.409 -2.3303  0.2095  0.6875
 5630TIP3    H238306   1.991   3.347   2.363  0.0056 -0.1246  0.0700
 5631TIP3   OH238307   2.807   0.425  16.314  0.0935 -0.1908  0.4253
 5631TIP3    H138308   2.821   0.348  16.369  2.4024  0.3662  0.7427
 5631TIP3    H238309   2.857   0.495  16.357  0.9820  0.5755 -1.6896
 5632TIP3   OH238310   3.172   0.157   0.598  0.1647  0.3082 -0.0281
 5632TIP3    H138311   3.241   0.119   0.653 -0.1825 -0.3988 -0.0675
 5632TIP3    H238312   3.212   0.166   0.512 -0.2256 -1.5038 -0.4352
 5633TIP3   OH238313   5.776   5.591  13.177 -0.3624 -0.2656  0.2898
 5633TIP3    H138314   5.832   5.528  13.132  0.3137  0.1690  0.5182
 5633TIP3    H238315   5.724   5.631  13.106  0.6249  0.3419 -0.1055
 5634TIP3   OH238316   4.011   6.534  16.366  0.1404 -0.1130  0.3628
 5634TIP3    H138317   3.922   6.514  16.395  0.2113 -0.8636  0.0845
 5634TIP3    H238318   4.060   6.547  16.447  0.4543 -2.7014  0.6701
 5635TIP3   OH238319   0.961   3.777  15.551  0.3805  0.3292 -0.0557
 5635TIP3    H138320   0.905   3.757  15.626 -1.6014  2.3997 -0.8560
 5635TIP3    H238321   0.956   3.872  15.542  3.3682  0.5387 -0.7745
 5636TIP3   OH238322   1.128   1.906   4.486 -0.0348  0.0663 -0.4371
 5636TIP3    H138323   1.211   1.950   4.502 -0.6438  0.5975  1.5575
 5636TIP3    H238324   1.149   1.812   4.492  0.7575  0.1057 -2.0053
 5637TIP3   OH238325   4.922   0.679   4.096  0.1418  0.7286  0.1061
 5637TIP3    H138326   4.973   0.606   4.132 -0.2950 -1.2349 -2.8710
 5637TIP3    H238327   4.914   0.741   4.168 -1.1602 -2.9892  3.5042
 5638TIP3   OH238328   6.601   1.650   2.882  0.3084  0.1067 -0.3251
 5638TIP3    H138329   6.543   1.628   2.954  0.9132 -1.0014 -0.1545
 5638TIP3    H238330   6.545   1.651   2.804 -0.1827  0.4534  0.0306
 5639TIP3   OH238331   4.304   1.984  14.696 -0.4167  0.2892 -0.0026
 5639TIP3    H138332   4.355   2.022  14.767  1.3834  2.0288 -2.0665
 5639TIP3    H238333   4.359   1.914  14.662 -1.2807 -0.5624  0.3189
 5640TIP3   OH238334   1.065   4.489  11.125 -0.1630 -0.2399  0.0925
 5640TIP3    H138335   1.019   4.406  11.140  0.2874 -0.3861  0.6888
 5640TIP3    H238336   1.000   4.544  11.081 -0.5320 -0.8366 -0.1289
 5641TIP3   OH238337   4.634   4.240   0.302  0.3107 -0.4204 -0.1053
 5641TIP3    H138338   4.639   4.224   0.397  0.6279 -2.0820 -0.3700
 5641TIP3    H238339   4.705   4.301   0.285  2.8931 -3.1177  0.2066
 5642TIP3   OH238340   0.529   5.525  16.194  0.2469  0.2501  0.6240
 5642TIP3    H138341   0.481   5.444  16.216  0.6017 -0.2215 -0.2688
 5642TIP3    H238342   0.508   5.540  16.101  0.8621  0.7111  0.5572
 5643TIP3   OH238343   6.097   5.378   4.666  0.5501 -0.3021  0.6213
 5643TIP3    H138344   6.169   5.433   4.698  1.0031 -0.6980  0.3005
 5643TIP3    H238345   6.122   5.289   4.690 -0.3722 -0.3354  1.4956
 5644TIP3   OH238346   1.216   4.639   0.126 -0.4296  0.7081  0.0573
 5644TIP3    H138347   1.268   4.705   0.079 -0.2927  1.1303  0.7799
 5644TIP3    H238348   1.125   4.657   0.100 -0.2204 -0.2896 -1.5295
 5645TIP3   OH238349   0.526   6.065   4.007 -0.5185  0.0574 -0.2348
 5645TIP3    H138350   0.525   6.003   4.080 -1.5809 -0.3600 -0.5713
 5645TIP3    H238351   0.437   6.059   3.971 -0.3942  1.2034 -0.7619
 5646TIP3   OH238352   0.728   1.630  16.699  0.1343  0.0014  0.6376
 5646TIP3    H138353   0.751   1.617  16.607  0.9940 -1.1283  0.9906
 5646TIP3    H238354   0.638   1.598  16.707  0.9462 -2.4522  0.7037
 5647TIP3   OH238355   4.684   0.783   3.633 -0.3373  0.3270  0.6426
 5647TIP3    H138356   4.704   0.770   3.540 -1.1940 -1.3247  0.6518
 5647TIP3    H238357   4.592   0.807   3.635 -0.0157  1.6022  1.0083
 5648TIP3   OH238358   5.734   1.474   3.959 -0.2506  0.1268  0.4288
 5648TIP3    H138359   5.812   1.419   3.959 -0.7560 -0.6356 -0.1834
 5648TIP3    H238360   5.764   1.561   3.984  0.8991 -0.0044 -0.4542
 5649TIP3   OH238361   4.522   0.255   3.322 -0.2961  0.0715 -0.8931
 5649TIP3    H138362   4.565   0.337   3.346 -2.6798  0.7925  1.3625
 5649TIP3    H238363   4.579   0.187   3.358  0.7300  0.8008 -1.0888
 5650TIP3   OH238364   4.560   4.964  15.237 -0.3640  0.2402  0.1736
 5650TIP3    H138365   4.503   4.887  15.239 -1.3285  0.8713 -1.0564
 5650TIP3    H238366   4.648   4.929  15.223 -0.9155 -0.5992 -1.3848
 5651TIP3   OH238367   1.106   5.817  14.940 -0.1578  1.0352 -0.4041
 5651TIP3    H138368   1.082   5.910  14.934 -1.0689  1.0933  2.7505
 5651TIP3    H238369   1.039   5.778  14.995  1.9215 -0.8184  0.9855
 5652TIP3   OH238370   1.959   3.961   0.877  0.7816 -0.0667 -0.0160
 5652TIP3    H138371   2.020   3.976   0.949 -1.3098  1.2260  1.6104
 5652TIP3    H238372   1.905   3.888   0.906  0.8314 -0.4863 -0.9483
 5653TIP3   OH238373   4.256   1.688  14.698  0.3805  0.2227  0.3130
 5653TIP3    H138374   4.344   1.678  14.734  0.2031 -0.1331  0.6584
 5653TIP3    H238375   4.269   1.693  14.603  0.5926 -2.8366  0.0700
 5654TIP3   OH238376   0.868   0.200  12.804  0.1639 -0.1369  0.3466
 5654TIP3    H138377   0.793   0.233  12.754  0.3480  0.7066  0.6146
 5654TIP3    H238378   0.943   0.250  12.772  0.8879 -1.9783 -0.9417
 5655TIP3   OH238379   5.303   2.353  11.441 -0.2584  0.3256  0.0401
 5655TIP3    H138380   5.368   2.292  11.476  0.7071  1.6118  0.5893
 5655TIP3    H238381   5.323   2.358  11.347 -0.9487 -0.8695 -0.1978
 5656TIP3   OH238382   0.894   2.728  15.618 -0.0197 -0.2231 -0.1750
 5656TIP3    H138383   0.957   2.787  15.659 -1.4478  1.6452 -0.5551
 5656TIP3    H238384   0.923   2.640  15.645  0.5870  0.7429  2.7049
 5657TIP3   OH238385   1.269   5.547   5.353 -0.3729 -0.4727 -0.0434
 5657TIP3    H138386   1.309   5.462   5.374  1.0394  0.5536  1.8531
 5657TIP3    H238387   1.233   5.577   5.437 -3.3911 -0.3859 -1.2567
 5658TIP3   OH238388   3.663   0.881  10.481 -0.6747  0.4590  0.0663
 5658TIP3    H138389   3.742   0.851  10.527 -0.0280 -1.2319 -1.9803
 5658TIP3    H238390   3.684   0.970  10.453 -1.1335  1.6044  2.9739
 5659TIP3   OH238391   1.010   2.909  11.077  0.3239 -0.2950 -0.2450
 5659TIP3    H138392   0.991   2.996  11.042 -0.1636 -0.0263  0.6544
 5659TIP3    H238393   1.094   2.886  11.039  0.2081  0.3432 -0.9149
 5660TIP3   OH238394   4.911   5.162   5.819 -0.1140  0.0224  0.5744
 5660TIP3    H138395   4.946   5.096   5.879  1.8902  0.9085  0.4573
 5660TIP3    H238396   4.847   5.210   5.871  0.1895 -0.4577  1.4116
 5661TIP3   OH238397   2.361   4.428   5.417  0.4338  0.3273  0.1287
 5661TIP3    H138398   2.340   4.441   5.510 -0.7531  0.0456 -0.0806
 5661TIP3    H238399   2.448   4.467   5.406 -0.6447  3.1444  0.7019
 5662TIP3   OH238400   5.509   6.719   4.666  0.3063  0.1115  0.4418
 5662TIP3    H138401   5.430   6.739   4.715 -0.6230  1.4573 -1.4924
 5662TIP3    H238402   5.544   6.640   4.709 -2.1520 -0.6394  1.2542
 5663TIP3   OH238403   5.429   0.488   5.532 -0.5361 -0.0057  0.1964
 5663TIP3    H138404   5.517   0.484   5.571 -0.8780 -0.5233  0.9467
 5663TIP3    H238405   5.436   0.435   5.452  0.6424  2.5147 -1.4788
 5664TIP3   OH238406   1.123   5.217  12.913 -0.6892 -0.2694 -0.2269
 5664TIP3    H138407   1.171   5.242  12.992  1.1949  0.1619 -1.4186
 5664TIP3    H238408   1.179   5.151  12.871 -1.8850 -0.8505 -0.9582
 5665TIP3   OH238409   4.992   0.684  16.461 -0.1840  0.0202  0.1446
 5665TIP3    H138410   4.939   0.698  16.540 -0.7143 -0.1473 -0.1727
 5665TIP3    H238411   5.055   0.617  16.486  1.8208  2.2215  1.4144
 5666TIP3   OH238412   0.950   4.489   1.528 -0.4462 -0.0543  0.5204
 5666TIP3    H138413   1.032   4.441   1.526  2.0438  3.6794 -2.6509
 5666TIP3    H238414   0.919   4.480   1.618  3.1949 -2.0396  1.7787
 5667TIP3   OH238415   4.329   1.673   2.533  0.1952 -0.1951  0.3297
 5667TIP3    H138416   4.322   1.729   2.611  2.2044  0.7889 -0.1355
 5667TIP3    H238417   4.422   1.653   2.526 -0.2546 -2.1925 -0.5434
 5668TIP3   OH238418   4.578   5.198   4.144 -0.0492 -0.1243 -0.0364
 5668TIP3    H138419   4.634   5.121   4.142 -0.0294 -0.1012 -0.4645
 5668TIP3    H238420   4.637   5.271   4.161  0.1280 -0.0403 -0.9410
 5669TIP3   OH238421   5.558   6.192  11.631  0.0381 -0.1476 -0.0400
 5669TIP3    H138422   5.581   6.238  11.550  1.2351  1.0270  0.9181
 5669TIP3    H238423   5.463   6.200  11.636  0.1333  1.5537 -0.3312
 5670TIP3   OH238424   4.459   0.538   1.159  0.1792  0.2423 -0.5800
 5670TIP3    H138425   4.413   0.484   1.095 -0.0344 -0.5737  0.2345
 5670TIP3    H238426   4.451   0.627   1.126 -1.1786  0.0054 -0.9474
 5671TIP3   OH238427   3.512   3.142   3.734  0.3102 -0.9639 -0.2024
 5671TIP3    H138428   3.535   3.177   3.648 -0.9034 -0.1529 -0.2275
 5671TIP3    H238429   3.436   3.087   3.718  0.5515 -1.4292  0.2442
 5672TIP3   OH238430   2.991   6.112  14.228 -0.4169 -0.2095  0.1791
 5672TIP3    H138431   2.999   6.026  14.187 -0.2649 -0.1759  0.1378
 5672TIP3    H238432   3.081   6.138  14.247 -0.4216  0.1781 -0.3037
 5673TIP3   OH238433   1.051   1.063  11.117  0.1954  0.7748 -0.1857
 5673TIP3    H138434   1.015   0.992  11.170  1.3941  0.4679  0.2483
 5673TIP3    H238435   0.987   1.075  11.046 -1.0120  0.6170  0.8362
 5674TIP3   OH238436   0.337   0.193  16.740 -0.0436 -0.0370  0.1384
 5674TIP3    H138437   0.388   0.182  16.659 -1.5286 -0.5988 -0.7451
 5674TIP3    H238438   0.352   0.112  16.789 -0.4813 -0.4160 -0.3482
 5675TIP3   OH238439   2.744   2.601   3.964 -0.2095 -0.2184  0.5922
 5675TIP3    H138440   2.724   2.565   4.051  0.4958 -0.4210  0.6771
 5675TIP3    H238441   2.825   2.557   3.938  0.8920  1.5737  0.8422
 5676TIP3   OH238442   4.442   3.713  12.830  0.3598  0.4874  0.5841
 5676TIP3    H138443   4.418   3.647  12.896  2.4662 -0.4588  0.4774
 5676TIP3    H238444   4.378   3.701  12.760 -0.7950  0.2638  1.6289
 5677TIP3   OH238445   4.414   3.275   2.094 -0.0623  0.1174  0.3309
 5677TIP3    H138446   4.394   3.224   2.015  1.5684 -0.3656  0.1982
 5677TIP3    H238447   4.432   3.363   2.063 -1.0759  0.3501  0.3655
 5678TIP3   OH238448   2.495   2.925   3.712 -1.2197  0.1724 -0.3282
 5678TIP3    H138449   2.434   2.932   3.786 -0.0875  0.8030  0.5760
 5678TIP3    H238450   2.450   2.868   3.650 -2.2110 -0.3779  0.8429
 5679TIP3   OH238451   5.420   4.892  17.111  0.0658  0.1466 -0.1636
 5679TIP3    H138452   5.358   4.891  17.038 -2.5343 -0.2957  1.9102
 5679TIP3    H238453   5.467   4.809  17.104 -1.8186 -0.9950 -0.0716
 5680TIP3   OH238454   4.179   5.059   2.897  0.5473 -0.3312 -0.2376
 5680TIP3    H138455   4.261   5.035   2.941 -0.7867 -0.7595  2.2113
 5680TIP3    H238456   4.159   4.983   2.842  2.0729  0.0611 -1.4297
 5681TIP3   OH238457   1.001   4.340   5.162  0.1849 -0.3309 -0.0461
 5681TIP3    H138458   1.056   4.277   5.115 -1.9818 -1.1628 -1.6711
 5681TIP3    H238459   0.968   4.291   5.237  0.4038 -0.3515  0.0361
 5682TIP3   OH238460   2.588   2.904   5.743  0.4658  0.2695 -0.3312
 5682TIP3    H138461   2.642   2.865   5.674 -0.0694 -0.5377 -0.3035
 5682TIP3    H238462   2.648   2.961   5.791  0.6576  1.5741 -1.9952
 5683TIP3   OH238463   4.417   4.710   1.396  0.0487 -0.0958 -0.5516
 5683TIP3    H138464   4.439   4.712   1.489  0.9400 -0.3960 -0.7394
 5683TIP3    H238465   4.456   4.790   1.360  0.6091 -0.4822 -0.8367
 5684TIP3   OH238466   4.562   6.230  13.720 -0.4187 -0.0379 -0.3997
 5684TIP3    H138467   4.574   6.180  13.800  3.1417  1.2117  0.0154
 5684TIP3    H238468   4.619   6.187  13.656  1.2008  2.1702 -0.5688
 5685TIP3   OH238469   2.825   4.703  11.326 -0.0954 -0.2432  0.0094
 5685TIP3    H138470   2.911   4.689  11.365 -0.0064  1.1976  0.3942
 5685TIP3    H238471   2.825   4.651  11.246  2.2852  2.0137 -1.5970
 5686TIP3   OH238472   5.096   4.316   1.660  0.2954 -0.4052 -0.4420
 5686TIP3    H138473   5.005   4.326   1.633  0.6955  0.7516 -1.4835
 5686TIP3    H238474   5.111   4.222   1.661 -0.7260 -0.5876 -0.9027
 5687TIP3   OH238475   4.395   3.942  12.283 -0.3036 -0.1601 -0.1048
 5687TIP3    H138476   4.390   4.028  12.243  0.2035 -0.3423 -0.5722
 5687TIP3    H238477   4.305   3.909  12.282 -0.2027 -0.4656 -1.7899
 5688TIP3   OH238478   1.797   3.256   6.311 -0.0984 -0.6383 -0.2698
 5688TIP3    H138479   1.782   3.191   6.380  0.7828 -0.8550 -0.2723
 5688TIP3    H238480   1.740   3.228   6.240  0.3523 -1.4888 -0.3168
 5689TIP3   OH238481   5.446   3.077   4.419  0.1024  0.3760 -0.5368
 5689TIP3    H138482   5.517   3.046   4.474 -0.2695  1.4948  0.6182
 5689TIP3    H238483   5.490   3.115   4.342  0.9063  2.3331  0.7929
 5690TIP3   OH238484   3.734   2.584   2.537 -0.0416 -0.2310  0.6825
 5690TIP3    H138485   3.703   2.525   2.468 -0.8455  0.8277  0.1051
 5690TIP3    H238486   3.743   2.528   2.614 -0.3638 -1.1909  0.0409
 5691TIP3   OH238487   0.320   2.932   4.444  0.2216  0.2064 -0.7900
 5691TIP3    H138488   0.374   2.927   4.365 -0.5051 -0.7646 -1.2504
 5691TIP3    H238489   0.287   2.843   4.456 -1.5307  0.8230 -0.7236
 5692TIP3   OH238490   3.748   4.925   0.834 -0.0780  0.4583  0.6444
 5692TIP3    H138491   3.726   5.015   0.814 -1.1250  0.4031  1.4119
 5692TIP3    H238492   3.720   4.875   0.758  0.0487  0.7313  0.4205
 5693TIP3   OH238493   3.696   3.959  15.771 -0.7926 -0.0718 -0.6318
 5693TIP3    H138494   3.712   3.892  15.837 -0.2827 -0.7129 -1.3916
 5693TIP3    H238495   3.782   3.997  15.754 -1.0340  0.6045 -0.4081
 5694TIP3   OH238496   3.101   6.458  16.424 -0.0951 -0.0597 -0.2543
 5694TIP3    H138497   3.012   6.471  16.458 -0.6471 -1.0704 -1.2516
 5694TIP3    H238498   3.104   6.509  16.343  0.5009  0.5955  0.1707
 5695TIP3   OH238499   3.090   3.254   0.894  0.4469 -0.6819  0.2252
 5695TIP3    H138500   3.066   3.161   0.885 -0.3707 -0.5432  0.8059
 5695TIP3    H238501   3.155   3.269   0.826 -0.5579 -1.2976 -0.9058
 5696TIP3   OH238502   1.298   5.465   5.667 -1.0690 -0.7520  0.2198
 5696TIP3    H138503   1.371   5.462   5.729 -0.8261 -0.0137 -0.0234
 5696TIP3    H238504   1.261   5.377   5.670 -0.9597 -0.7729  1.2856
 5697TIP3   OH238505   1.806   6.075   3.060 -0.7212 -0.1376  0.0884
 5697TIP3    H138506   1.898   6.058   3.080 -0.5850 -0.0201 -0.4059
 5697TIP3    H238507   1.781   6.144   3.120  0.5191  2.3163 -1.9891
 5698TIP3   OH238508   4.744   1.784   1.082 -0.1626  0.0139  0.5610
 5698TIP3    H138509   4.673   1.727   1.112 -1.5305  1.8715  0.9722
 5698TIP3    H238510   4.823   1.729   1.089 -1.3274 -1.6179  1.5180
 5699TIP3   OH238511   4.339   5.132  10.695 -0.4148 -0.0451  0.0440
 5699TIP3    H138512   4.357   5.223  10.719 -1.9638  0.8233 -1.8648
 5699TIP3    H238513   4.420   5.102  10.655  0.5793 -0.0102  1.8931
 5700TIP3   OH238514   3.603   6.251  15.151 -0.3317 -0.4331 -0.4902
 5700TIP3    H138515   3.540   6.185  15.182 -0.1302 -1.3500 -1.8879
 5700TIP3    H238516   3.638   6.291  15.230  0.5292 -2.9598  0.4983
 5701TIP3   OH238517   4.355   6.616  14.431 -0.9221  0.1152 -0.4422
 5701TIP3    H138518   4.336   6.527  14.402 -0.7637  0.1892 -0.7797
 5701TIP3    H238519   4.270   6.660  14.433 -1.0112 -0.0651 -0.1923
 5702TIP3   OH238520   6.678   6.075   0.654 -0.1679 -0.6609  0.3894
 5702TIP3    H138521   6.674   6.022   0.733  0.4979  0.0091  0.8867
 5702TIP3    H238522   6.718   6.018   0.588 -1.4313 -1.4752  0.3107
 5703TIP3   OH238523   6.758   4.857  11.371 -0.2363 -0.0499  0.1090
 5703TIP3    H138524   6.713   4.863  11.287 -0.2912 -0.1441  0.1310
 5703TIP3    H238525   6.848   4.834  11.348 -0.4915 -1.1382  0.1199
 5704TIP3   OH238526   1.548   0.844   1.863 -0.0790  0.1127 -0.0754
 5704TIP3    H138527   1.551   0.797   1.946  0.9788  0.5769  0.1688
 5704TIP3    H238528   1.634   0.884   1.855  0.6809 -1.8028 -2.5201
 5705TIP3   OH238529   5.668   0.604   3.037  0.5267 -0.4545 -0.4904
 5705TIP3    H138530   5.660   0.538   2.968 -0.2150  1.0962 -1.9863
 5705TIP3    H238531   5.597   0.665   3.020  0.2479 -0.0584  1.7746
 5706TIP3   OH238532   3.266   3.444  14.566  0.1244  0.2022 -0.0248
 5706TIP3    H138533   3.322   3.509  14.523 -0.4226 -0.5692 -1.9810
 5706TIP3    H238534   3.190   3.436  14.510 -1.1351 -0.1225  1.6434
 5707TIP3   OH238535   1.340   5.115  13.691  0.1762 -0.2268  0.6560
 5707TIP3    H138536   1.285   5.148  13.620  0.0684 -0.0739  0.8102
 5707TIP3    H238537   1.343   5.187  13.754 -1.2101 -1.0236  1.6656
 5708TIP3   OH238538   0.119   4.123   6.557  0.5629  0.0830  0.1413
 5708TIP3    H138539   0.182   4.187   6.590 -0.0983 -0.0337  1.6881
 5708TIP3    H238540   0.159   4.038   6.576 -0.9261 -0.0551  3.1052
 5709TIP3   OH238541   2.270   6.551  17.193  0.2740 -0.4941 -0.0441
 5709TIP3    H138542   2.199   6.522  17.136 -1.6383  1.2608  1.2516
 5709TIP3    H238543   2.270   6.488  17.265  0.4280 -0.8207 -0.3258
 5710TIP3   OH238544   3.368   6.317  14.441  0.4105  0.0099 -0.2197
 5710TIP3    H138545   3.455   6.356  14.451  1.3404 -1.6833 -1.1258
 5710TIP3    H238546   3.314   6.388  14.408  1.8802  0.6922 -1.2888
 5711TIP3   OH238547   2.444   4.505  11.498 -0.2223  0.3182 -0.0219
 5711TIP3    H138548   2.516   4.449  11.470  1.0345  0.7648  2.0907
 5711TIP3    H238549   2.379   4.445  11.534 -0.1953  0.0382 -0.4274
 5712TIP3   OH238550   5.994   6.089   4.451 -0.4294 -0.1873 -0.0178
 5712TIP3    H138551   6.031   6.131   4.374  0.2695 -0.5786  0.0929
 5712TIP3    H238552   6.063   6.031   4.482 -0.0438  1.1810  1.8773
 5713TIP3   OH238553   2.937   5.989  15.764  0.4487 -0.5088  0.1250
 5713TIP3    H138554   2.925   5.908  15.715 -0.5890  0.9375 -2.1418
 5713TIP3    H238555   2.850   6.009  15.800  0.6254 -0.2284  0.4084
 5714TIP3   OH238556   0.290   6.320   1.344  0.1875  1.2847  0.8518
 5714TIP3    H138557   0.203   6.291   1.318 -0.1585  2.3316  0.8195
 5714TIP3    H238558   0.290   6.315   1.440  0.5689 -0.0229  0.8027
 5715TIP3   OH238559   1.254   2.951   5.951  0.0997 -0.4002 -0.8884
 5715TIP3    H138560   1.194   2.888   5.912  0.2052  0.3930 -2.4076
 5715TIP3    H238561   1.280   2.911   6.034 -3.1556 -0.3825  0.2846
 5716TIP3   OH238562   6.259   0.475  12.654  0.2273  0.3522  0.4395
 5716TIP3    H138563   6.240   0.394  12.701  1.3012 -0.9679 -1.2850
 5716TIP3    H238564   6.174   0.506  12.624  0.0367 -1.8925 -1.5745
 5717TIP3   OH238565   0.980   2.587  14.926 -0.4042  0.1057  0.1132
 5717TIP3    H138566   0.973   2.607  14.833  1.8693 -0.8108 -0.3133
 5717TIP3    H238567   1.043   2.516  14.931 -1.3863 -0.7144  2.2878
 5718TIP3   OH238568   3.297   2.558  10.761 -0.6203 -0.4886  0.2132
 5718TIP3    H138569   3.243   2.586  10.687 -0.7885 -1.3180  0.0102
 5718TIP3    H238570   3.387   2.564  10.729 -0.6386  0.0310  0.2506
 5719TIP3   OH238571   3.356   2.831   1.987  0.1957  0.2129 -0.2766
 5719TIP3    H138572   3.425   2.774   1.953  1.0438  0.0590  1.5846
 5719TIP3    H238573   3.302   2.774   2.042  1.3788  1.2192  2.0531
 5720TIP3   OH238574   3.462   4.416  13.307 -0.2255 -0.1465 -0.7447
 5720TIP3    H138575   3.414   4.479  13.361  0.2711 -0.0425 -0.4209
 5720TIP3    H238576   3.443   4.442  13.217  2.2445  2.2739 -0.6852
 5721TIP3   OH238577   2.529   0.701   2.382 -0.0636 -0.7719  0.1182
 5721TIP3    H138578   2.462   0.679   2.317  0.1325 -1.6300  0.1927
 5721TIP3    H238579   2.578   0.619   2.394  0.1484 -0.5119  1.0595
 5722TIP3   OH238580   2.252   2.998  11.956 -0.1786 -0.5746 -0.6504
 5722TIP3    H138581   2.322   3.004  11.891 -0.3719  0.2302 -0.8049
 5722TIP3    H238582   2.172   2.988  11.905 -0.1729 -1.5726 -0.4717
 5723TIP3   OH238583   5.086   4.331  16.897 -0.0026 -0.3165  0.0622
 5723TIP3    H138584   5.115   4.416  16.931  0.0378  0.1099 -1.0009
 5723TIP3    H238585   5.087   4.273  16.973 -1.2492  0.9313  1.0983
 5724TIP3   OH238586   2.954   3.447  11.887 -0.1082  0.3001 -0.3125
 5724TIP3    H138587   3.039   3.403  11.891 -0.3358 -0.2522 -1.2203
 5724TIP3    H238588   2.891   3.380  11.914 -0.2825  0.6305  0.1091
 5725TIP3   OH238589   1.143   3.466  13.550 -0.6856  0.5300  0.4845
 5725TIP3    H138590   1.138   3.537  13.613  0.4271  1.2480 -0.2137
 5725TIP3    H238591   1.212   3.492  13.489 -2.0079  0.0987 -1.3049
 5726TIP3   OH238592   0.869   5.313  13.142 -0.2450  0.1868 -0.0913
 5726TIP3    H138593   0.937   5.380  13.150 -0.2712  0.0921  1.3202
 5726TIP3    H238594   0.845   5.313  13.050  0.5930  1.2920 -0.3304
 5727TIP3   OH238595   0.101   3.080   0.636  0.2134  0.2135 -0.0465
 5727TIP3    H138596   0.187   3.046   0.610  0.8813  1.8138 -0.0776
 5727TIP3    H238597   0.121   3.146   0.703 -0.8848  1.4788 -0.9122
 5728TIP3   OH238598   6.421   5.445  14.825  0.0253 -0.1880 -0.1276
 5728TIP3    H138599   6.421   5.541  14.822 -1.1948 -0.1545  0.5295
 5728TIP3    H238600   6.425   5.419  14.733 -0.5800  0.5063 -0.3586
 5729TIP3   OH238601   6.009   4.268  15.241 -0.1236 -0.6970  0.0809
 5729TIP3    H138602   6.010   4.228  15.328 -1.7805 -1.2145 -0.0871
 5729TIP3    H238603   6.073   4.218  15.191 -0.7955 -1.9361  0.4033
 5730TIP3   OH238604   4.025   4.106  14.867 -0.9977  0.6764 -0.4940
 5730TIP3    H138605   4.002   4.059  14.787 -0.0155 -0.7500  0.0257
 5730TIP3    H238606   4.091   4.051  14.909 -1.5430  1.3640  1.3492
 5731TIP3   OH238607   2.573   1.445   3.228 -0.5526 -0.1618  0.0568
 5731TIP3    H138608   2.516   1.522   3.235  0.7178  0.9591 -1.3534
 5731TIP3    H238609   2.525   1.385   3.171 -0.3078  0.8218 -1.2219
 5732TIP3   OH238610   5.544   1.223  11.905  0.2162 -0.0184 -0.2321
 5732TIP3    H138611   5.496   1.269  11.974  0.0310 -0.5780  0.0154
 5732TIP3    H238612   5.547   1.132  11.934  3.9502  0.3870  1.2623
 5733TIP3   OH238613   0.935   1.234   1.374 -0.4843  0.4810 -0.6619
 5733TIP3    H138614   0.878   1.287   1.430 -0.8095 -0.2617 -0.2876
 5733TIP3    H238615   1.011   1.215   1.429 -0.8452 -0.3257 -0.4321
 5734TIP3   OH238616   1.017   2.116  10.916  0.6981 -0.3044  0.1708
 5734TIP3    H138617   0.955   2.057  10.959  0.2228 -0.9495 -1.3647
 5734TIP3    H238618   1.047   2.068  10.839 -1.2578  2.1679 -2.3257
 5735TIP3   OH238619   4.617   6.757  15.272 -0.1657  0.1734 -0.4844
 5735TIP3    H138620   4.567   6.724  15.347 -0.2030 -0.0861 -0.6219
 5735TIP3    H238621   4.666   6.681  15.241 -0.9718  0.0116 -1.3876
 5736TIP3   OH238622   2.381   6.071   1.763 -0.3391 -0.3164 -0.5307
 5736TIP3    H138623   2.324   6.123   1.819  0.2638 -0.3451  0.1241
 5736TIP3    H238624   2.323   6.036   1.695 -0.6378  1.8383 -1.4727
 5737TIP3   OH238625   5.724   6.490   5.700  0.0827  0.4938  0.3885
 5737TIP3    H138626   5.639   6.474   5.740 -0.0225 -0.3224 -0.1481
 5737TIP3    H238627   5.787   6.454   5.763 -0.0080  0.3722  0.4087
 5738TIP3   OH238628   2.594   0.006  14.394 -0.1636 -0.3083  0.2300
 5738TIP3    H138629   2.502  -0.011  14.416 -0.5534  0.5244 -0.7077
 5738TIP3    H238630   2.627  -0.078  14.363 -1.1614 -0.2029 -1.2435
 5739TIP3   OH238631   1.065   1.332   2.605  0.1198  0.0971 -0.1676
 5739TIP3    H138632   0.978   1.359   2.633  0.5911  0.3846  1.0941
 5739TIP3    H238633   1.051   1.249   2.559 -0.9408  0.7321 -1.0473
 5740TIP3   OH238634   0.290   0.502  16.662 -0.3585  0.2069 -0.9927
 5740TIP3    H138635   0.207   0.456  16.649  0.2471 -1.0249 -0.6640
 5740TIP3    H238636   0.324   0.467  16.744 -0.8101  2.7521  0.4042
 5741TIP3   OH238637   0.705   0.551  14.564  0.3522 -0.4057  0.2170
 5741TIP3    H138638   0.724   0.499  14.642  1.8115  0.7218  0.6554
 5741TIP3    H238639   0.623   0.515  14.531  0.0542 -1.3635  1.8742
 5742TIP3   OH238640   0.740   0.355   5.694 -0.0251 -0.3746  0.0035
 5742TIP3    H138641   0.728   0.313   5.609  0.0658 -1.5554  0.5555
 5742TIP3    H238642   0.796   0.295   5.744  1.5011  1.1806  0.2748
 5743TIP3   OH238643   3.169   0.745  16.086  0.2128  0.1025 -0.6858
 5743TIP3    H138644   3.078   0.714  16.087  0.2487  0.0137 -0.0299
 5743TIP3    H238645   3.185   0.769  15.995  0.2136 -1.9221 -1.2649
 5744TIP3   OH238646   1.057   5.647   1.029 -1.1519 -0.0871  0.1949
 5744TIP3    H138647   1.036   5.736   1.000  2.0483  1.1708  1.3185
 5744TIP3    H238648   0.997   5.630   1.101 -1.3842  1.4264  0.3801
 5745TIP3   OH238649   5.354   2.841   3.615  0.3583 -0.0534  0.1255
 5745TIP3    H138650   5.397   2.830   3.700 -1.3853 -0.5673  0.9891
 5745TIP3    H238651   5.294   2.914   3.629 -1.0504 -1.1257 -0.1800
 5746TIP3   OH238652   2.291   0.777   1.452  0.6324 -0.1783  0.1108
 5746TIP3    H138653   2.339   0.852   1.415 -1.5989  1.2861  0.0485
 5746TIP3    H238654   2.216   0.816   1.496 -0.3249 -2.3782  0.5110
 5747TIP3   OH238655   2.722   5.148  10.954 -0.3605 -0.4302 -0.5004
 5747TIP3    H138656   2.652   5.112  11.008 -0.6687 -1.1735 -1.3712
 5747TIP3    H238657   2.787   5.078  10.949  0.8675  0.5402  0.9791
 5748TIP3   OH238658   3.190   4.292   0.884 -0.5206 -0.0868 -0.0155
 5748TIP3    H138659   3.262   4.313   0.944 -0.4238 -1.4258  0.3600
 5748TIP3    H238660   3.224   4.313   0.797 -0.6336  1.8027  0.3441
 5749TIP3   OH238661   2.340   2.313   4.698  0.0516 -0.3609 -0.0102
 5749TIP3    H138662   2.398   2.282   4.628  1.9056 -0.8857  1.6648
 5749TIP3    H238663   2.253   2.280   4.674  0.1715  1.1784 -3.0617
 5750TIP3   OH238664   0.899   1.236  13.425 -0.2533  0.0123  0.1617
 5750TIP3    H138665   0.886   1.146  13.457 -2.6456 -0.1514 -1.0129
 5750TIP3    H238666   0.822   1.283  13.457 -0.1389  1.0756 -1.0677
 5751TIP3   OH238667   4.555   5.090  13.208 -0.0554  0.1842 -0.2847
 5751TIP3    H138668   4.470   5.051  13.227  0.5493 -0.7839  0.5407
 5751TIP3    H238669   4.535   5.162  13.148 -1.7501  1.4740  1.6754
 5752TIP3   OH238670   0.978   3.239   4.106  0.4116  0.2402 -0.3194
 5752TIP3    H138671   0.933   3.245   4.021 -1.6088  0.0460  0.6858
 5752TIP3    H238672   1.006   3.148   4.112 -0.5986 -0.0755 -0.2370
 5753TIP3   OH238673   1.205   0.281  14.676  0.4046  0.2027  0.6206
 5753TIP3    H138674   1.221   0.200  14.725  2.1074 -0.7909 -1.4371
 5753TIP3    H238675   1.292   0.315  14.655 -0.1507 -0.0705 -2.6346
 5754TIP3   OH238676   6.123   2.157  15.010 -0.8575 -0.4210  0.3176
 5754TIP3    H138677   6.209   2.196  15.028 -1.8682  1.0882  2.2596
 5754TIP3    H238678   6.129   2.126  14.920  0.8328  2.1123 -0.5309
 5755TIP3   OH238679   1.520   5.444  11.887  0.0149 -0.2323 -0.5307
 5755TIP3    H138680   1.591   5.410  11.941  1.3153 -0.1282 -2.0945
 5755TIP3    H238681   1.462   5.369  11.873  0.9335 -0.8852 -0.9559
 5756TIP3   OH238682   5.896   1.020  15.079  0.4246 -0.2705  1.2384
 5756TIP3    H138683   5.820   1.077  15.094 -0.2855 -0.6164 -0.7171
 5756TIP3    H238684   5.861   0.932  15.087  0.0695 -0.4865 -1.5222
 5757TIP3   OH238685   6.226   6.097   3.040  0.4067 -0.3494  0.1618
 5757TIP3    H138686   6.191   6.086   3.129 -1.5274 -1.9221 -0.7279
 5757TIP3    H238687   6.267   6.013   3.019 -0.7269 -0.6243 -1.0619
 5758TIP3   OH238688   0.763   0.977  11.916 -0.0178 -0.0343  0.3638
 5758TIP3    H138689   0.677   1.020  11.913  0.0929  0.1368 -1.3454
 5758TIP3    H238690   0.812   1.016  11.844  0.7635 -1.6319 -0.0231
 5759TIP3   OH238691   5.526   6.147   2.521 -0.0456 -0.1603  0.4836
 5759TIP3    H138692   5.509   6.212   2.453  2.5536  1.1746  1.0215
 5759TIP3    H238693   5.462   6.166   2.589 -0.3108  0.8169 -0.0222
 5760TIP3   OH238694   2.306   0.812   5.348  0.7262  0.0244  0.0357
 5760TIP3    H138695   2.217   0.820   5.314  1.0374 -1.5224 -1.2797
 5760TIP3    H238696   2.328   0.900   5.378 -0.3844  0.9955 -1.8080
 5761TIP3   OH238697   4.718   0.602   3.079 -0.1520  0.0706  0.3182
 5761TIP3    H138698   4.682   0.643   3.000  1.4208 -1.0749 -1.0617
 5761TIP3    H238699   4.764   0.673   3.124 -0.2549  0.5354 -0.2890
 5762TIP3   OH238700   0.096   0.860   5.594 -0.0988 -0.1722 -0.1939
 5762TIP3    H138701   0.097   0.954   5.575 -0.1790 -0.3222 -0.9646
 5762TIP3    H238702   0.083   0.855   5.688  2.0342  0.6361  0.2107
 5763TIP3   OH238703   1.502   3.695  12.792 -0.5533 -0.0891 -0.1975
 5763TIP3    H138704   1.571   3.641  12.752 -0.5992  1.6606 -2.9443
 5763TIP3    H238705   1.451   3.726  12.717 -2.6338  0.9442  1.5667
 5764TIP3   OH238706   0.297   2.018  12.842  0.5131  0.6140 -0.3227
 5764TIP3    H138707   0.363   1.994  12.907 -0.8363  0.8124  1.1643
 5764TIP3    H238708   0.258   1.935  12.816 -1.7734  0.7527  2.2601
 5765TIP3   OH238709   4.674   1.455  15.676  0.5526  0.8923  0.5760
 5765TIP3    H138710   4.759   1.462  15.632  0.5705  0.3278  0.5205
 5765TIP3    H238711   4.686   1.390  15.745  0.0407  0.4452  0.2577
 5766TIP3   OH238712   2.304   4.318   0.929  0.2085  0.4160  0.6671
 5766TIP3    H138713   2.343   4.297   0.843 -0.6513 -0.9180  0.5752
 5766TIP3    H238714   2.229   4.374   0.908 -0.9305 -1.1579  0.3721
 5767TIP3   OH238715   4.766   0.412   4.984  0.0020 -0.2384 -0.5226
 5767TIP3    H138716   4.735   0.430   4.895 -1.0867 -0.5079 -0.2233
 5767TIP3    H238717   4.822   0.486   5.005 -0.0497  0.0329 -1.2851
 5768TIP3   OH238718   2.199   5.633  12.856 -0.5442  0.1174 -0.3621
 5768TIP3    H138719   2.209   5.644  12.950  1.8566  0.7616 -0.6320
 5768TIP3    H238720   2.222   5.541  12.840 -1.5486 -0.1609 -0.2801
 5769TIP3   OH238721   3.726   1.141   6.073  0.0864 -0.0303  0.3130
 5769TIP3    H138722   3.758   1.058   6.039  0.5737 -0.3287  1.4745
 5769TIP3    H238723   3.633   1.126   6.090 -0.1113  0.0533 -0.6273
 5770TIP3   OH238724   2.936   0.616   1.891  0.5323  0.1067 -0.2932
 5770TIP3    H138725   2.865   0.627   1.954 -0.2417 -1.3802 -0.8514
 5770TIP3    H238726   2.903   0.655   1.810 -0.0874 -1.4113 -0.8170
 5771TIP3   OH238727   1.748   0.051  12.539 -0.3168 -0.0461  0.0836
 5771TIP3    H138728   1.663   0.008  12.539  0.7707 -2.3947  0.6602
 5771TIP3    H238729   1.750   0.103  12.458 -1.4424 -1.7702 -1.1033
 5772TIP3   OH238730   5.254   4.210  15.434 -0.0810  0.5019  0.1597
 5772TIP3    H138731   5.182   4.259  15.474  0.6457  1.2110  0.6177
 5772TIP3    H238732   5.324   4.211  15.500  0.3254 -0.2405 -0.2485
 5773TIP3   OH238733   2.706   4.987   2.059  0.1370 -0.4066 -0.2916
 5773TIP3    H138734   2.650   5.024   2.128 -0.9472  0.4227 -1.5548
 5773TIP3    H238735   2.666   5.019   1.977 -0.2282 -3.4925 -1.4377
 5774TIP3   OH238736   1.824   2.294  13.525  0.5201  0.2989 -0.5216
 5774TIP3    H138737   1.851   2.385  13.532  0.0155  0.3668  0.6414
 5774TIP3    H238738   1.735   2.297  13.490  0.2252  0.2927  0.2166
 5775TIP3   OH238739   3.230   2.043  12.662  0.4114  0.4456  0.2385
 5775TIP3    H138740   3.192   1.979  12.723  1.0570  0.6734  0.8984
 5775TIP3    H238741   3.202   2.013  12.575  2.9406 -2.4245  0.2136
 5776TIP3   OH238742   5.071   0.471   4.260  0.1767  0.6727 -0.0101
 5776TIP3    H138743   5.044   0.490   4.350 -0.1318  1.2862 -0.2196
 5776TIP3    H238744   5.048   0.380   4.246 -1.3218  1.0222  0.0078
 5777TIP3   OH238745   2.924   4.352   3.562  0.4135 -0.0790 -1.1413
 5777TIP3    H138746   2.952   4.383   3.648 -0.8923  0.5613 -0.9248
 5777TIP3    H238747   2.831   4.335   3.572  0.4980 -1.1851 -2.1048
 5778TIP3   OH238748   0.492   3.689   4.918 -0.0961 -0.1192  0.3452
 5778TIP3    H138749   0.467   3.779   4.899 -1.4867 -0.5415  0.0383
 5778TIP3    H238750   0.409   3.644   4.933  0.5829 -1.3255  0.6189
 5779TIP3   OH238751   0.429   5.870   0.332 -0.1995 -0.0336 -0.7158
 5779TIP3    H138752   0.372   5.874   0.256 -1.6212 -3.1807  0.0386
 5779TIP3    H238753   0.515   5.844   0.297 -0.7094 -0.9300 -1.3346
 5780TIP3   OH238754   3.349   5.420  16.123 -0.0529  0.1286 -0.6349
 5780TIP3    H138755   3.408   5.451  16.055  0.1784 -1.1682 -1.0556
 5780TIP3    H238756   3.384   5.334  16.148 -0.5363  0.2824  0.6317
 5781TIP3   OH238757   2.920   5.620   5.825 -0.7933  0.2067 -0.6805
 5781TIP3    H138758   2.933   5.701   5.873  0.0519 -0.6096  0.5244
 5781TIP3    H238759   2.862   5.568   5.880 -1.8973  0.2401 -1.7631
 5782TIP3   OH238760   1.143   2.475  16.214  0.0017 -0.3503  0.0764
 5782TIP3    H138761   1.233   2.442  16.216 -0.4740 -1.9673 -1.8385
 5782TIP3    H238762   1.114   2.471  16.305  1.7566 -0.1037  0.6805
 5783TIP3   OH238763   0.241   5.689  13.544  0.0834  0.2845 -0.0890
 5783TIP3    H138764   0.170   5.648  13.494  0.3892  0.3181 -0.5471
 5783TIP3    H238765   0.279   5.617  13.594 -1.2533  0.5112  1.3675
 5784TIP3   OH238766   5.042   3.888   3.968 -0.1606  0.2065  0.1874
 5784TIP3    H138767   5.110   3.940   4.011  0.8494  0.4369 -1.5975
 5784TIP3    H238768   5.051   3.801   4.005  0.6136  0.4182  0.5189
 5785TIP3   OH238769   2.154   4.995  12.480  0.4849  0.5754  0.1058
 5785TIP3    H138770   2.175   5.060  12.413  1.7625 -1.6465 -1.8354
 5785TIP3    H238771   2.239   4.968  12.515  0.0252 -0.3656  0.5309
 5786TIP3   OH238772   2.376   5.716   1.430  0.4199  0.3502 -0.4805
 5786TIP3    H138773   2.312   5.680   1.491  1.3377  1.2603  1.0823
 5786TIP3    H238774   2.340   5.800   1.403 -1.5090 -1.2989 -3.7881
 5787TIP3   OH238775   5.577   4.423   3.846 -0.4032 -0.5485  0.3795
 5787TIP3    H138776   5.670   4.405   3.864 -0.2853 -0.1920  0.1387
 5787TIP3    H238777   5.562   4.385   3.760  0.2310  1.7195 -0.8041
 5788TIP3   OH238778   6.186   6.144   5.418 -0.2415 -0.1078  0.5742
 5788TIP3    H138779   6.142   6.229   5.422 -0.3149 -0.1552  0.7672
 5788TIP3    H238780   6.278   6.165   5.436  0.0454  0.1560 -0.9885
 5789TIP3   OH238781   1.064   0.377  15.934  0.1557 -0.2473 -0.2252
 5789TIP3    H138782   0.974   0.347  15.948 -0.9988  3.0700  0.3569
 5789TIP3    H238783   1.066   0.407  15.843  0.1508  1.1914  0.2321
 5790TIP3   OH238784   2.615   4.267   4.453 -0.2003 -0.0352  0.4225
 5790TIP3    H138785   2.553   4.291   4.385 -0.8411  0.1727  1.0703
 5790TIP3    H238786   2.690   4.325   4.440 -0.5966  0.4513  0.3016
 5791TIP3   OH238787   6.221   3.469   6.032 -0.1438  0.7196  0.5113
 5791TIP3    H138788   6.171   3.424   6.100 -0.7093  0.8911  0.2159
 5791TIP3    H238789   6.292   3.410   6.011 -0.0760  0.5806  1.1176
 5792TIP3   OH238790   6.091   0.708   1.630  0.2574 -0.0118 -0.1646
 5792TIP3    H138791   6.029   0.636   1.634  2.3867 -1.9844 -0.1642
 5792TIP3    H238792   6.176   0.665   1.615  1.7767  2.4211  0.8569
 5793TIP3   OH238793   0.280   6.285  14.696 -0.0832  0.5590  0.2476
 5793TIP3    H138794   0.253   6.352  14.759  0.5358 -1.0997  2.4389
 5793TIP3    H238795   0.199   6.248  14.663 -0.4375  1.0785  0.5238
 5794TIP3   OH238796   4.460   5.153   2.040 -0.6647  0.0157  0.4496
 5794TIP3    H138797   4.427   5.071   2.075  0.1021  0.0025  1.1920
 5794TIP3    H238798   4.436   5.152   1.947  0.3864 -1.6093  0.1588
 5795TIP3   OH238799   0.641   2.971   5.839 -0.1715 -0.7685 -0.3759
 5795TIP3    H138800   0.735   2.961   5.857 -0.2745 -0.0964  0.5807
 5795TIP3    H238801   0.600   2.963   5.925 -0.8045  1.1937 -0.4584
 5796TIP3   OH238802   5.102   0.018   5.491  0.0459 -0.1058  0.4959
 5796TIP3    H138803   5.107  -0.078   5.484  1.1307 -0.1528  1.5141
 5796TIP3    H238804   5.025   0.034   5.545 -1.2053 -0.2927 -1.1702
 5797TIP3   OH238805   3.600   5.934   0.427 -0.2629  0.3904 -0.1237
 5797TIP3    H138806   3.522   5.907   0.377  0.3135 -0.4296 -0.6113
 5797TIP3    H238807   3.607   5.868   0.497  1.1051 -0.7513 -1.2662
 5798TIP3   OH238808   4.080   1.087   2.011  0.2321 -0.2625 -0.1906
 5798TIP3    H138809   4.144   1.067   2.080 -0.9255  1.0180  1.3232
 5798TIP3    H238810   4.058   1.179   2.025 -1.4842 -0.5049 -1.0483
 5799TIP3   OH238811   4.589   0.618  16.562 -0.0724 -0.6036 -0.2905
 5799TIP3    H138812   4.542   0.626  16.645 -0.2471  0.9521 -0.4962
 5799TIP3    H238813   4.637   0.701  16.554  2.6256 -2.0491 -0.1754
 5800TIP3   OH238814   0.969   0.946  17.097  0.3194  0.2427 -0.4322
 5800TIP3    H138815   0.917   0.902  17.165  3.2898 -0.9442  1.2622
 5800TIP3    H238816   0.990   1.032  17.135 -0.8233  0.9500 -1.3539
 5801TIP3   OH238817   6.186   2.470   1.103 -0.0206 -0.0922 -0.3791
 5801TIP3    H138818   6.246   2.411   1.056 -0.6523 -2.0565  1.1529
 5801TIP3    H238819   6.147   2.415   1.171 -2.1851  1.6081 -0.1475
 5802TIP3   OH238820   5.021   2.998   1.996  0.6606  0.4183  0.3767
 5802TIP3    H138821   4.930   3.028   1.994  0.7214  0.5357 -0.8004
 5802TIP3    H238822   5.046   3.007   2.088 -1.0667 -1.2684  1.0902
 5803TIP3   OH238823   1.032   0.312  11.387  0.3570 -0.4824 -0.0227
 5803TIP3    H138824   0.957   0.369  11.372 -0.1619 -1.1260  0.0674
 5803TIP3    H238825   1.049   0.271  11.303 -0.0826 -1.1520  0.2089
 5804TIP3   OH238826   0.255   5.264   0.757 -0.2874 -0.3256 -0.4218
 5804TIP3    H138827   0.275   5.180   0.798 -0.0685  0.0339  0.2260
 5804TIP3    H238828   0.247   5.244   0.664 -0.3104 -1.0751 -0.2644
 5805TIP3   OH238829   1.997   3.344   5.089  0.0214  0.0703  0.5368
 5805TIP3    H138830   2.083   3.336   5.129  0.5714  1.4425 -0.2947
 5805TIP3    H238831   2.012   3.326   4.996 -1.1346 -2.5435  0.7743
 5806TIP3   OH238832   0.311   1.612   1.957 -0.0236 -0.8055  0.5660
 5806TIP3    H138833   0.341   1.572   1.875 -0.8088  0.2308 -0.2523
 5806TIP3    H238834   0.217   1.595   1.959 -0.3782  0.9864  0.1869
 5807TIP3   OH238835   2.739   1.778  15.937 -0.7577 -0.3957  0.5233
 5807TIP3    H138836   2.732   1.838  16.011 -0.6101 -0.9591  1.0018
 5807TIP3    H238837   2.796   1.708  15.968 -2.2296 -1.6374  0.5559
 5808TIP3   OH238838   6.394   4.047   3.871  0.2352  0.5177  0.1287
 5808TIP3    H138839   6.470   4.000   3.905  0.2016 -0.7663 -1.4262
 5808TIP3    H238840   6.353   4.085   3.948  1.0091 -0.9396  1.3222
 5809TIP3   OH238841   0.410   0.289   1.963 -0.1791  0.2557  0.7086
 5809TIP3    H138842   0.350   0.241   2.020 -0.1428  0.5980  1.0354
 5809TIP3    H238843   0.436   0.366   2.014 -1.1580  1.2613 -0.2400
 5810TIP3   OH238844   1.712   4.626  14.180 -0.3416  0.0413 -0.2539
 5810TIP3    H138845   1.799   4.599  14.209 -0.3484 -0.5906 -0.8053
 5810TIP3    H238846   1.715   4.619  14.085 -1.1714 -0.5316 -0.2489
 5811TIP3   OH238847   1.758   1.899  14.952 -0.6284  0.0645  0.7166
 5811TIP3    H138848   1.831   1.868  15.004 -0.3333 -0.8283 -0.2029
 5811TIP3    H238849   1.741   1.829  14.889  0.5542  1.9702 -1.9295
 5812TIP3   OH238850   2.136   4.899  10.554  0.5381  0.4570  0.4380
 5812TIP3    H138851   2.199   4.872  10.621  1.5805 -1.4416 -1.1957
 5812TIP3    H238852   2.106   4.817  10.515 -0.5405  1.4736 -0.9535
 5813TIP3   OH238853   5.077   6.707   0.626  0.3358  0.2743 -0.6864
 5813TIP3    H138854   5.032   6.786   0.598  1.2341  1.3743  0.8163
 5813TIP3    H238855   5.065   6.645   0.554 -1.3428  1.3826 -1.4132
 5814TIP3   OH238856   3.991   1.539   4.575  0.1390  0.1167 -0.4324
 5814TIP3    H138857   4.028   1.572   4.494  1.5785  4.2241  1.6054
 5814TIP3    H238858   3.897   1.555   4.567  0.2590  0.4094 -1.3257
 5815TIP3   OH238859   3.394   5.592   3.173  0.3702 -0.1555  0.0921
 5815TIP3    H138860   3.372   5.518   3.230 -3.0198  1.1494  0.7471
 5815TIP3    H238861   3.431   5.658   3.231 -1.2401  0.4379  0.4903
 5816TIP3   OH238862   3.051   4.476   1.525 -0.0257 -0.1406 -0.0681
 5816TIP3    H138863   3.121   4.509   1.581 -0.3503 -1.3305  1.0658
 5816TIP3    H238864   2.976   4.532   1.545  0.2496  0.3497 -0.3855
 5817TIP3   OH238865   3.454   4.875   0.049 -0.5166  0.2459  0.1524
 5817TIP3    H138866   3.507   4.797   0.032 -1.9147 -0.7853  0.2903
 5817TIP3    H238867   3.492   4.943  -0.007  1.5130 -0.1557  0.9419
 5818TIP3   OH238868   1.190   0.751   5.100 -0.4330 -0.0506  0.1973
 5818TIP3    H138869   1.100   0.719   5.098 -0.3518 -0.3231  0.5905
 5818TIP3    H238870   1.182   0.845   5.116 -0.7203  0.4222 -2.3085
 5819TIP3   OH238871   5.380   6.178   4.519  0.3132  0.3301  0.1617
 5819TIP3    H138872   5.429   6.257   4.499  1.2604 -0.1759  0.4226
 5819TIP3    H238873   5.371   6.178   4.614  1.0432 -0.2924  0.2345
 5820TIP3   OH238874   5.323   3.439   4.835  0.1341 -0.0639 -0.3374
 5820TIP3    H138875   5.321   3.446   4.931 -0.4149  2.3492 -0.4606
 5820TIP3    H238876   5.381   3.365   4.818  1.5672  0.4416  1.8609
 5821TIP3   OH238877   4.971   4.054  12.045  0.2877  0.3378 -0.1841
 5821TIP3    H138878   4.967   4.056  12.141  0.6561 -3.3641  0.0788
 5821TIP3    H238879   4.882   4.075  12.017 -0.4482 -0.7578  1.1638
 5822TIP3   OH238880   5.595   6.588  13.044  0.1001  0.5939 -0.2923
 5822TIP3    H138881   5.679   6.556  13.013 -0.1675  1.1561 -1.6881
 5822TIP3    H238882   5.536   6.575  12.969 -0.6799  1.6071  0.1332
 5823TIP3   OH238883   5.016   2.904   1.211 -0.1668  0.2611  0.4048
 5823TIP3    H138884   4.980   2.839   1.270  0.1484 -0.8169 -0.5623
 5823TIP3    H238885   4.986   2.878   1.124  1.5861  0.2281 -0.2482
 5824TIP3   OH238886   2.442   1.187  16.145 -0.2098  0.3154 -0.3088
 5824TIP3    H138887   2.423   1.120  16.210 -0.5273  0.3548 -0.3555
 5824TIP3    H238888   2.361   1.193  16.093  0.4376 -0.5581 -1.4621
 5825TIP3   OH238889   0.032   0.733   5.869  0.2949 -0.2078 -0.5622
 5825TIP3    H138890   0.107   0.689   5.909  1.6096  0.3418 -2.3128
 5825TIP3    H238891   0.008   0.801   5.932  1.6319 -0.0206 -0.2311
 5826TIP3   OH238892   3.259   0.358   5.416  0.7668 -0.0686  0.4028
 5826TIP3    H138893   3.219   0.392   5.496  1.8808  0.1378  0.8828
 5826TIP3    H238894   3.212   0.402   5.345  0.0038  0.0050  0.9362
 5827TIP3   OH238895   4.408   2.883  13.307  0.1122 -0.4669  0.1451
 5827TIP3    H138896   4.316   2.858  13.313 -0.9363  3.1937  1.8301
 5827TIP3    H238897   4.455   2.800  13.319 -2.8942 -2.3562  0.0804
 5828TIP3   OH238898   2.739   2.987  13.650 -0.0355 -0.0940  0.4281
 5828TIP3    H138899   2.687   3.010  13.573  0.3978 -1.8844 -0.4508
 5828TIP3    H238900   2.698   2.906  13.683  0.5258 -0.0141  1.3597
 5829TIP3   OH238901   4.321   3.605  13.040 -0.1033 -0.1421  0.5587
 5829TIP3    H138902   4.307   3.520  13.082  0.3306  0.1284  1.2792
 5829TIP3    H238903   4.237   3.627  13.000 -0.7293 -0.1209  1.8402
 5830TIP3   OH238904   6.295   3.853  13.483 -0.0454  0.3336 -0.5658
 5830TIP3    H138905   6.230   3.785  13.466  1.8767 -2.0888  1.0932
 5830TIP3    H238906   6.247   3.920  13.531 -1.8919 -0.0406 -1.7746
 5831TIP3   OH238907   2.083   4.844   3.596 -0.5931 -0.5610  0.7471
 5831TIP3    H138908   2.114   4.761   3.560 -0.2170  0.0784 -0.4533
 5831TIP3    H238909   2.141   4.860   3.671 -1.4449 -1.9540  1.7529
 5832TIP3   OH238910   5.867   5.115   0.879 -0.2339  0.3234  0.2005
 5832TIP3    H138911   5.873   5.205   0.912 -1.1975 -0.1675  1.8274
 5832TIP3    H238912   5.862   5.061   0.958 -2.5263 -0.9367 -0.7091
 5833TIP3   OH238913   6.158   4.583  13.364  0.2030  0.0986 -0.1446
 5833TIP3    H138914   6.079   4.601  13.313  0.5455 -1.5218 -1.3288
 5833TIP3    H238915   6.127   4.564  13.452 -0.8095 -1.0888 -0.7264
 5834TIP3   OH238916   0.812   6.309   3.153  0.1830 -0.2562  0.7653
 5834TIP3    H138917   0.755   6.249   3.105  0.1980 -0.0703  0.5132
 5834TIP3    H238918   0.896   6.264   3.159  0.6128  0.3120 -0.6520
 5835TIP3   OH238919   0.273   4.466   5.636 -0.1582  0.0288 -0.1678
 5835TIP3    H138920   0.278   4.558   5.664 -0.3295  0.2197 -0.7454
 5835TIP3    H238921   0.360   4.431   5.653 -0.6506 -0.2913  2.0157
 5836TIP3   OH238922   5.873   0.172   0.968  0.0372 -0.2208 -0.1773
 5836TIP3    H138923   5.886   0.259   0.930  1.7776 -0.9449 -1.3421
 5836TIP3    H238924   5.790   0.142   0.930 -0.4028  0.7546 -0.0424
 5837TIP3   OH238925   5.155   4.033   3.524  0.3722  1.0413  0.0522
 5837TIP3    H138926   5.138   3.953   3.474  0.9775  1.4061 -0.7446
 5837TIP3    H238927   5.200   4.002   3.603 -1.2397  0.3885  0.7758
 5838TIP3   OH238928   3.931   3.908   5.671 -0.4808 -0.0575 -0.2051
 5838TIP3    H138929   3.871   3.844   5.708 -1.0159 -0.7312 -2.0826
 5838TIP3    H238930   4.015   3.863   5.666 -0.3512  0.1187  0.4145
 5839TIP3   OH238931   0.975   1.353  13.209 -0.4856  0.5499 -0.2038
 5839TIP3    H138932   0.966   1.288  13.279  0.2127  1.4594  0.7569
 5839TIP3    H238933   1.029   1.310  13.143  0.4384  0.3408  0.6692
 5840TIP3   OH238934   6.169   4.798   4.769  0.3360 -0.6304  0.0441
 5840TIP3    H138935   6.250   4.780   4.816  1.2060 -2.1218 -1.8594
 5840TIP3    H238936   6.101   4.754   4.820  1.0641 -1.1659  0.5684
 5841TIP3   OH238937   3.434   5.267   6.665  0.0817  0.1525  0.3758
 5841TIP3    H138938   3.379   5.198   6.627 -1.4823  2.0725 -1.0779
 5841TIP3    H238939   3.389   5.348   6.642  1.3756  1.6526  2.7743
 5842TIP3   OH238940   1.836   4.371   3.216 -0.6571 -0.1563  0.1184
 5842TIP3    H138941   1.756   4.341   3.259 -1.0328 -1.5169 -1.4443
 5842TIP3    H238942   1.811   4.383   3.125 -0.3019  4.2140  0.3910
 5843TIP3   OH238943   2.063   3.125   2.537  0.5215  0.5374 -0.1139
 5843TIP3    H138944   1.975   3.107   2.571  1.1070 -1.5870  0.4376
 5843TIP3    H238945   2.065   3.220   2.526 -2.0840  0.5910 -0.8668
 5844TIP3   OH238946   1.411   4.139   4.590  0.4376 -0.0662 -0.1450
 5844TIP3    H138947   1.330   4.102   4.555 -1.4436  1.8162  1.9270
 5844TIP3    H238948   1.443   4.196   4.520 -1.0298  0.5165 -0.3920
 5845TIP3   OH238949   2.754   3.421   6.392  0.3955  0.2401  0.2162
 5845TIP3    H138950   2.824   3.389   6.336  0.1126  1.0214 -0.6008
 5845TIP3    H238951   2.755   3.516   6.381 -2.4111  0.1853 -1.9076
 5846TIP3   OH238952   2.532   4.558  12.815  0.9646 -0.3967  0.1343
 5846TIP3    H138953   2.562   4.467  12.810  0.4503 -0.5584 -0.0260
 5846TIP3    H238954   2.581   4.602  12.745 -0.2756 -0.9828 -1.1608
 5847TIP3   OH238955   6.677   4.697   2.005  0.0773  0.3220 -0.1954
 5847TIP3    H138956   6.591   4.661   2.026  0.1972  0.7723  1.1556
 5847TIP3    H238957   6.659   4.784   1.970 -0.0029  0.4528  0.1754
 5848TIP3   OH238958   6.287   6.011  16.685  0.2508 -0.9661  0.1884
 5848TIP3    H138959   6.223   5.955  16.641  1.0580 -2.1877  0.5304
 5848TIP3    H238960   6.302   5.969  16.769 -1.5685  1.5398  1.9184
 5849TIP3   OH238961   2.032   0.725  14.420  0.5042  0.2040  0.1892
 5849TIP3    H138962   2.076   0.651  14.462  0.7394  0.7217  0.8721
 5849TIP3    H238963   2.078   0.736  14.337  1.3922  0.4547  0.6977
 5850TIP3   OH238964   6.135   3.100   3.015  0.3913 -0.0439 -0.1775
 5850TIP3    H138965   6.090   3.168   2.964  0.3869  0.0712 -0.0204
 5850TIP3    H238966   6.164   3.036   2.949  1.0304  0.4715 -0.4014
 5851TIP3   OH238967   2.020   1.845  12.238  0.1927  0.2291 -0.1312
 5851TIP3    H138968   2.081   1.771  12.234 -0.2580 -0.1044 -1.5171
 5851TIP3    H238969   2.032   1.882  12.325  0.6024 -1.3299  0.5019
 5852TIP3   OH238970   3.789   6.067   4.676 -0.3960 -0.1333  0.1739
 5852TIP3    H138971   3.837   6.020   4.744  0.0608 -0.3454 -0.2888
 5852TIP3    H238972   3.815   6.024   4.594 -0.2136  0.7124 -0.2249
 5853TIP3   OH238973   6.567   2.488   5.013 -0.6899 -0.2406  0.5384
 5853TIP3    H138974   6.474   2.497   4.992 -0.6092 -0.8277 -0.1175
 5853TIP3    H238975   6.570   2.429   5.088 -0.7549 -2.1580 -0.8936
 5854TIP3   OH238976   3.326   4.018   2.657 -0.0370  0.2374 -0.0829
 5854TIP3    H138977   3.240   3.997   2.693 -1.1764 -0.6347 -3.0472
 5854TIP3    H238978   3.370   3.934   2.649  0.5917  0.5338  0.1519
 5855TIP3   OH238979   0.120   5.887  10.826  0.5756 -0.3263 -0.8119
 5855TIP3    H138980   0.176   5.817  10.859  0.1742 -0.4452 -0.3804
 5855TIP3    H238981   0.178   5.963  10.819  0.8027 -0.4635 -0.4274
 5856TIP3   OH238982   0.918   6.179  16.261 -0.1044 -0.0832 -0.4199
 5856TIP3    H138983   0.859   6.141  16.195 -1.3874 -0.9603  1.1462
 5856TIP3    H238984   0.968   6.105  16.295 -1.0003 -0.0759  1.0522
 5857TIP3   OH238985   1.520   4.819  12.048  0.1119  0.0844  1.0830
 5857TIP3    H138986   1.536   4.795  12.139  2.6517  0.3528  0.7843
 5857TIP3    H238987   1.553   4.744  11.998  0.0661  0.5382  0.3644
 5858TIP3   OH238988   1.083   1.694  11.255  0.5035  0.0517  0.0510
 5858TIP3    H138989   1.083   1.689  11.350  1.5632 -0.0720  0.0539
 5858TIP3    H238990   1.157   1.639  11.228  0.2178  0.0876 -0.8451
 5859TIP3   OH238991   5.256   3.353   1.168  0.0567  0.0401  0.0158
 5859TIP3    H138992   5.336   3.317   1.207  1.2734  1.9795 -0.5468
 5859TIP3    H238993   5.287   3.413   1.100 -1.8154  1.7884  0.5999
 5860TIP3   OH238994   0.359   2.675  15.763  0.2968  0.3924 -0.1420
 5860TIP3    H138995   0.319   2.617  15.698  0.1496  0.6507 -0.2858
 5860TIP3    H238996   0.319   2.761  15.746  1.3285  0.7920 -0.6633
 5861TIP3   OH238997   1.070   2.974   0.803 -0.1899 -0.2344  0.1053
 5861TIP3    H138998   1.008   2.948   0.736  0.6085 -2.3484  0.1042
 5861TIP3    H238999   1.045   2.923   0.880  0.0109  0.7964  0.8650
 5862TIP3   OH239000   5.305   0.801  12.720 -0.3005  0.0302 -0.2827
 5862TIP3    H139001   5.226   0.843  12.751 -0.0916  0.4805 -0.3532
 5862TIP3    H239002   5.297   0.710  12.748 -1.5585 -0.2956 -1.6302
 5863TIP3   OH239003   5.729   6.436   1.798  0.2644 -0.3891 -0.1578
 5863TIP3    H139004   5.809   6.392   1.826 -0.1727 -1.5792 -0.7273
 5863TIP3    H239005   5.696   6.479   1.876  1.4123  0.0637  0.1039
 5864TIP3   OH239006   5.458   5.033  12.467 -0.1538 -0.1320 -0.0234
 5864TIP3    H139007   5.405   5.098  12.514  0.6283 -0.9578  2.1355
 5864TIP3    H239008   5.394   4.969  12.435 -0.6842  0.2514  0.2455
 5865TIP3   OH239009   5.825   4.070   2.360  0.6684  0.4559 -0.0220
 5865TIP3    H139010   5.752   4.010   2.347  0.1182  0.6418  1.9056
 5865TIP3    H239011   5.898   4.013   2.385  0.3931  0.5000  0.9027
 5866TIP3   OH239012   4.073   2.573  15.210 -0.0975 -0.2603  0.1262
 5866TIP3    H139013   4.050   2.537  15.295 -1.3356 -2.6877 -1.1440
 5866TIP3    H239014   4.169   2.583  15.213  0.0507 -1.7005  1.2943
 5867TIP3   OH239015   0.038   3.729   4.680 -0.4929 -0.3902  0.2500
 5867TIP3    H139016   0.111   3.668   4.674  0.3231  0.6003 -0.0972
 5867TIP3    H239017  -0.039   3.673   4.694  0.1692 -1.5296 -0.5133
 5868TIP3   OH239018   5.596   1.717   5.706  0.2141 -0.5382  0.1501
 5868TIP3    H139019   5.637   1.643   5.661  0.9136  0.7786 -1.4889
 5868TIP3    H239020   5.506   1.687   5.724  0.1641 -1.4340 -1.4044
 5869TIP3   OH239021   6.073   1.017  14.387 -0.1158  0.1374  0.2969
 5869TIP3    H139022   6.015   1.033  14.461  0.8982 -0.7560  1.3062
 5869TIP3    H239023   6.041   1.077  14.319 -0.2182  1.9582  1.8755
 5870TIP3   OH239024   3.437   4.645   2.995 -0.0630 -0.2860 -0.4400
 5870TIP3    H139025   3.467   4.601   3.074  1.1853  0.1549 -0.6311
 5870TIP3    H239026   3.375   4.711   3.026  0.5391 -0.0067  0.2004
 5871TIP3   OH239027   3.247   3.778   5.173  0.0046 -0.0777  0.1089
 5871TIP3    H139028   3.205   3.863   5.158 -1.1765 -0.5804  0.4079
 5871TIP3    H239029   3.308   3.768   5.100 -0.2392  0.7911 -0.2287
 5872TIP3   OH239030   1.722   2.125   5.945  0.3418 -0.1949 -0.0388
 5872TIP3    H139031   1.806   2.114   5.900  0.0418  1.6744 -1.1887
 5872TIP3    H239032   1.734   2.205   5.996 -0.0164 -1.1755  1.6491
 5873TIP3   OH239033   1.950   3.945   3.342 -0.4325 -0.1510 -0.0575
 5873TIP3    H139034   1.930   4.004   3.415 -0.3518 -0.7310  0.4401
 5873TIP3    H239035   1.889   3.972   3.273 -0.1607  0.7418  0.0305
 5874TIP3   OH239036   2.288   5.574   4.444 -0.0481 -0.1894  0.3319
 5874TIP3    H139037   2.355   5.599   4.380  0.4714 -2.4343 -0.1116
 5874TIP3    H239038   2.336   5.560   4.526 -0.6495  2.2583  1.1769
 5875TIP3   OH239039   3.302   5.334  11.057  0.1254  0.4578  1.0224
 5875TIP3    H139040   3.275   5.310  11.146 -1.1714 -0.2038  0.4743
 5875TIP3    H239041   3.220   5.357  11.013  0.8300  1.4250  0.1692
 5876TIP3   OH239042   3.995   5.721   1.490  0.6711  0.1585 -0.1840
 5876TIP3    H139043   3.911   5.699   1.450  0.9461  0.9655 -1.2532
 5876TIP3    H239044   3.980   5.710   1.584 -0.4986 -0.1260 -0.3844
 5877TIP3   OH239045   3.548   2.539   2.072  0.2316 -0.3262  0.3858
 5877TIP3    H139046   3.602   2.589   2.134 -0.2787  1.1020 -0.2784
 5877TIP3    H239047   3.472   2.511   2.124  0.2789  0.0319  0.6536
 5878TIP3   OH239048   1.850   4.951   2.869  0.2477  0.2334  0.0531
 5878TIP3    H139049   1.936   4.924   2.900  0.2629  1.2000  0.8863
 5878TIP3    H239050   1.810   4.870   2.837  2.5369  0.1852 -3.1424
 5879TIP3   OH239051   4.814   5.081   6.915 -0.6263 -0.6683 -0.8782
 5879TIP3    H139052   4.896   5.089   6.865  0.2875 -2.0995  0.2954
 5879TIP3    H239053   4.792   5.170   6.940  1.0173 -0.3217 -0.5644
 5880TIP3   OH239054   1.149   1.810  13.427  0.2328 -0.3394 -0.0854
 5880TIP3    H139055   1.105   1.725  13.422  0.4689 -0.5424  0.9279
 5880TIP3    H239056   1.235   1.794  13.389  0.6508 -0.8429  1.0083
 5881TIP3   OH239057   0.046   3.103  15.648  0.0942 -0.0823  0.9701
 5881TIP3    H139058  -0.012   3.067  15.581 -1.2006  1.1655  1.3663
 5881TIP3    H239059  -0.013   3.127  15.720  0.7165  3.2897  0.5391
 5882TIP3   OH239060   3.979   1.023  16.750 -0.4121  0.3616 -0.0631
 5882TIP3    H139061   4.038   0.978  16.689  0.2084 -2.0265  2.1500
 5882TIP3    H239062   3.938   1.091  16.697  2.5323  0.5830 -2.3152
 5883TIP3   OH239063   5.682   1.005   4.851 -0.3045 -0.2642 -0.5157
 5883TIP3    H139064   5.654   1.014   4.942 -1.3239  1.9813 -0.9850
 5883TIP3    H239065   5.749   0.937   4.853 -1.3310 -1.3031  1.6708
 5884TIP3   OH239066   3.704   2.284   5.707  0.9508  0.0730  0.4167
 5884TIP3    H139067   3.693   2.255   5.798  1.3593  1.5774  0.9816
 5884TIP3    H239068   3.728   2.205   5.659 -0.5567 -1.0109  1.3597
 5885TIP3   OH239069   3.873   0.144  11.919 -0.2644  0.0313  0.4100
 5885TIP3    H139070   3.911   0.070  11.967 -1.6484 -1.1031 -0.1888
 5885TIP3    H239071   3.799   0.107  11.872 -1.6403  2.0021  0.9065
 5886TIP3   OH239072   5.221   1.043  11.145  0.4400 -0.1336 -0.4001
 5886TIP3    H139073   5.126   1.038  11.145  0.4764 -1.3759  1.1800
 5886TIP3    H239074   5.250   0.956  11.118  1.1417  0.2310 -0.8699
 5887TIP3   OH239075   4.047   5.362   3.541 -0.0826 -0.1323  0.1259
 5887TIP3    H139076   3.975   5.417   3.573  0.7055  0.6655  0.5540
 5887TIP3    H239077   4.034   5.278   3.585 -1.0154 -0.1507 -0.1613
 5888TIP3   OH239078   4.425   6.042  16.098 -0.2119  0.4630 -0.2934
 5888TIP3    H139079   4.426   6.045  16.194  0.4596  0.3762 -0.2910
 5888TIP3    H239080   4.490   6.107  16.072  1.3441 -1.1592 -0.6300
 5889TIP3   OH239081   0.820   1.658  11.518  0.0612  0.1266  0.6117
 5889TIP3    H139082   0.888   1.636  11.583 -0.2527  0.4412  1.0523
 5889TIP3    H239083   0.758   1.712  11.566 -0.6013 -0.3035  0.2581
 5890TIP3   OH239084   1.051   6.597   0.049 -0.2587 -0.4765 -0.2554
 5890TIP3    H139085   1.093   6.620  -0.034  1.7038 -1.4548  0.4066
 5890TIP3    H239086   1.004   6.676   0.075 -1.3165 -0.2977 -2.5017
 5891TIP3   OH239087   3.559   4.686  12.968 -0.7878  0.0167 -0.1560
 5891TIP3    H139088   3.524   4.770  12.998 -0.9165 -0.4240  0.9756
 5891TIP3    H239089   3.615   4.657  13.039 -0.3531 -0.6256 -0.7558
 5892TIP3   OH239090   5.460   5.791  13.591 -0.5119 -0.3281  0.1040
 5892TIP3    H139091   5.505   5.812  13.508 -2.0414  0.0233 -0.6663
 5892TIP3    H239092   5.482   5.864  13.649 -2.5037  1.4862 -1.2574
 5893TIP3   OH239093   6.754   6.056   1.472  0.1407 -0.3589 -0.5778
 5893TIP3    H139094   6.835   6.019   1.508 -0.5248 -1.3708 -0.0785
 5893TIP3    H239095   6.781   6.092   1.388  1.2867  0.1060 -0.0435
 5894TIP3   OH239096   3.724   5.826  13.417  0.0602 -0.5971  0.2162
 5894TIP3    H139097   3.679   5.886  13.358  2.2506  1.6167  0.6385
 5894TIP3    H239098   3.679   5.743  13.405 -1.2571  0.3892 -2.6100
 5895TIP3   OH239099   4.607   0.198  12.863 -0.7882 -0.1277  0.0191
 5895TIP3    H139100   4.525   0.155  12.842 -0.4465 -1.0058  0.4438
 5895TIP3    H239101   4.624   0.256  12.788 -1.6901 -0.0686 -0.1478
 5896TIP3   OH239102   2.374   4.320   4.598  0.3850 -0.7487 -0.2883
 5896TIP3    H139103   2.327   4.237   4.590  1.6787 -1.3762 -1.9417
 5896TIP3    H239104   2.452   4.309   4.545  0.1378  1.8818 -1.3706
 5897TIP3   OH239105   1.583   3.680   6.532  0.2766 -0.7721  0.0623
 5897TIP3    H139106   1.494   3.711   6.547  0.4288 -0.2892 -0.0154
 5897TIP3    H239107   1.637   3.732   6.591  0.5105 -1.0466  0.0916
 5898TIP3   OH239108   4.632   5.268   3.711  0.7800 -0.9026 -0.2606
 5898TIP3    H139109   4.676   5.343   3.751 -0.0052 -0.8857  0.6149
 5898TIP3    H239110   4.544   5.300   3.692  1.0446 -1.0056 -1.7646
 5899TIP3   OH239111   6.512   6.684  16.695  0.3585 -0.1486 -0.4601
 5899TIP3    H139112   6.596   6.714  16.660 -0.1453 -1.7503 -3.2831
 5899TIP3    H239113   6.536   6.616  16.758  1.1834 -0.0652 -0.6751
 5900TIP3   OH239114   0.603   4.167  12.934 -0.2185  0.0190  0.1141
 5900TIP3    H139115   0.515   4.129  12.939 -0.5708  0.8548  0.4126
 5900TIP3    H239116   0.630   4.177  13.025  0.7921 -1.5618  0.0258
 5901TIP3   OH239117   1.707   4.582  14.560 -0.6136 -0.1791  0.6335
 5901TIP3    H139118   1.776   4.641  14.589 -0.2006 -0.3956  0.0901
 5901TIP3    H239119   1.746   4.495  14.562 -1.2269 -0.4540  1.4585
 5902TIP3   OH239120   3.554   5.612   4.221  0.4328 -0.2086 -0.3586
 5902TIP3    H139121   3.497   5.558   4.166  0.6689 -0.3999 -0.4135
 5902TIP3    H239122   3.626   5.555   4.245  0.5399 -0.0019 -0.1848
 5903TIP3   OH239123   1.653   5.808   3.103  0.3524 -0.1993 -0.3781
 5903TIP3    H139124   1.640   5.867   3.029  0.4282 -0.1352 -0.3397
 5903TIP3    H239125   1.600   5.844   3.174 -1.6283 -1.5272 -1.0731
 5904TIP3   OH239126   6.681   4.442  12.974 -0.0614 -0.4428  0.4947
 5904TIP3    H139127   6.592   4.475  12.966  0.2432  0.6220  1.2321
 5904TIP3    H239128   6.676   4.376  13.043  0.1276  1.3486  2.3061
 5905TIP3   OH239129   3.164   1.280  11.091  0.0252  0.4466  0.0532
 5905TIP3    H139130   3.114   1.346  11.043  1.4536  0.7766 -1.0604
 5905TIP3    H239131   3.133   1.288  11.181 -0.2377  2.2726 -0.1478
 5906TIP3   OH239132   5.713   1.890  14.630  0.8000  0.9734 -0.1652
 5906TIP3    H139133   5.770   1.856  14.700  1.9019  1.2212 -0.9271
 5906TIP3    H239134   5.773   1.913  14.559 -0.1352  2.4470 -0.5111
 5907TIP3   OH239135   0.357   6.152   0.376  0.1413  0.1027  0.2156
 5907TIP3    H139136   0.340   6.120   0.464 -4.0489  0.7805 -0.1498
 5907TIP3    H239137   0.363   6.073   0.322  1.2132 -0.2669  0.8472
 5908TIP3   OH239138   6.463   0.159   1.457 -0.7806  0.2347  0.0834
 5908TIP3    H139139   6.493   0.172   1.367 -0.1644 -0.4532  0.1752
 5908TIP3    H239140   6.369   0.179   1.454 -0.8510 -0.1512 -0.8021
 5909TIP3   OH239141   3.887   0.329  11.714 -0.0637  0.5986 -0.3246
 5909TIP3    H139142   3.891   0.269  11.788 -2.1908 -0.8345 -1.2745
 5909TIP3    H239143   3.977   0.331  11.680  0.9215  1.1539  2.1036
 5910TIP3   OH239144   2.187   0.739   5.736 -0.7785  0.1452 -0.0799
 5910TIP3    H139145   2.201   0.775   5.648 -0.9019 -0.0277 -0.1707
 5910TIP3    H239146   2.092   0.728   5.743 -0.6396 -1.6770 -0.6667
 5911TIP3   OH239147   5.538   5.322  16.157 -0.1473  0.0773  0.0429
 5911TIP3    H139148   5.607   5.258  16.139 -0.1349 -0.0037  0.3793
 5911TIP3    H239149   5.570   5.371  16.233  0.8262  1.9128 -1.4756
 5912TIP3   OH239150   4.828   4.892   4.803 -0.5086  0.2691  0.2606
 5912TIP3    H139151   4.831   4.811   4.754 -0.0405  0.8177 -0.6346
 5912TIP3    H239152   4.767   4.948   4.754 -0.1481  0.7721  0.3773
 5913TIP3   OH239153   4.274   2.237  12.870  0.2730  0.8176 -0.2290
 5913TIP3    H139154   4.341   2.168  12.873 -0.8712 -0.2918  0.9412
 5913TIP3    H239155   4.278   2.278  12.956  1.3201  2.6606 -1.0935
 5914TIP3   OH239156   6.236   3.761   0.696  0.1038  0.4128 -0.1950
 5914TIP3    H139157   6.326   3.749   0.725 -0.4322 -0.0149  1.4045
 5914TIP3    H239158   6.192   3.801   0.771 -0.4352  3.3697 -1.9192
 5915TIP3   OH239159   2.380   0.883   1.078 -0.0049 -0.2003 -0.6236
 5915TIP3    H139160   2.295   0.925   1.093  0.0241 -0.4363  0.2198
 5915TIP3    H239161   2.424   0.941   1.016 -1.4435 -0.9619 -2.4583
 5916TIP3   OH239162   2.870   3.858   1.801  0.2972  0.1174 -0.0310
 5916TIP3    H139163   2.918   3.903   1.871 -1.4513  0.8707  0.7410
 5916TIP3    H239164   2.783   3.897   1.803 -0.3756 -1.2246 -1.3650
 5917TIP3   OH239165   5.842   6.501   3.288  0.0061 -0.4209 -0.2537
 5917TIP3    H139166   5.898   6.469   3.359  0.6859  0.6116 -0.3106
 5917TIP3    H239167   5.845   6.596   3.296 -0.1397 -0.3010 -1.5057
 5918TIP3   OH239168   2.875   0.601  16.628 -0.3730 -0.2724 -0.2779
 5918TIP3    H139169   2.904   0.592  16.719  0.1391  2.1535 -0.1386
 5918TIP3    H239170   2.779   0.599  16.633 -0.3871  0.9084  0.5068
 5919TIP3   OH239171   5.920   2.643   5.186  0.3954  0.4268  0.7065
 5919TIP3    H139172   5.993   2.652   5.248 -0.5854 -1.1597  2.1915
 5919TIP3    H239173   5.903   2.549   5.182 -0.5334  0.6232 -0.8811
 5920TIP3   OH239174   2.784   2.559  12.749  0.3349 -0.0274 -0.2414
 5920TIP3    H139175   2.876   2.549  12.774  0.7073 -1.8878 -2.1102
 5920TIP3    H239176   2.781   2.640  12.698  0.5853  0.8840  1.1367
 5921TIP3   OH239177   1.892   4.048  17.207 -0.0011 -0.0350 -0.2715
 5921TIP3    H139178   1.799   4.059  17.192  0.2077  0.6162 -1.1507
 5921TIP3    H239179   1.919   3.983  17.142  0.0875 -0.5410  0.2592
 5922TIP3   OH239180   6.392   4.330   0.775  0.0424  0.1416 -0.3777
 5922TIP3    H139181   6.419   4.422   0.785 -0.3485  0.1755  0.4876
 5922TIP3    H239182   6.472   4.284   0.749  0.5906  0.4882  0.6472
 5923TIP3   OH239183   6.193   6.692   1.653 -0.7677 -0.0585  0.2949
 5923TIP3    H139184   6.199   6.686   1.558 -1.0337 -1.7849  0.3643
 5923TIP3    H239185   6.153   6.610   1.680  1.1560 -0.5099  2.0624
 5924TIP3   OH239186   4.634   1.198  16.643 -1.1024  0.4509 -0.3119
 5924TIP3    H139187   4.670   1.186  16.731 -2.3241 -0.2513  0.1057
 5924TIP3    H239188   4.617   1.292  16.637  0.4515  0.7661 -0.4100
 5925TIP3   OH239189   5.337   2.845  13.889  0.2612  0.3005  0.1753
 5925TIP3    H139190   5.282   2.770  13.867 -1.4070  0.8528  2.1296
 5925TIP3    H239191   5.311   2.914  13.829 -0.1704  0.1298  0.1680
 5926TIP3   OH239192   3.684   4.500  11.483  0.1698 -0.7129 -0.7469
 5926TIP3    H139193   3.625   4.565  11.444  0.8696  0.9243  0.8132
 5926TIP3    H239194   3.626   4.441  11.531 -0.3309  0.1161 -0.2984
 5927TIP3   OH239195   2.660   6.608   1.913  0.4000 -1.0054  0.1299
 5927TIP3    H139196   2.620   6.628   1.828  2.3067 -2.4827 -1.2392
 5927TIP3    H239197   2.691   6.692   1.946 -2.2198 -0.0819  0.4655
 5928TIP3   OH239198   6.559   1.163  16.098 -0.0823 -0.2340 -0.2363
 5928TIP3    H139199   6.526   1.226  16.035 -1.8587 -0.7104  0.1579
 5928TIP3    H239200   6.633   1.121  16.054  0.7244  1.6288 -0.7517
 5929TIP3   OH239201   4.130   3.098   0.476 -0.0381  0.4178  0.0614
 5929TIP3    H139202   4.086   3.029   0.426  0.2652  0.1509  0.1622
 5929TIP3    H239203   4.222   3.091   0.451  0.5596 -1.2942  2.4154
 5930TIP3   OH239204   1.646   6.439  13.560 -0.1316 -0.2498 -0.0854
 5930TIP3    H139205   1.552   6.420  13.566 -0.1991  0.3315  0.8475
 5930TIP3    H239206   1.679   6.426  13.649  0.1816  2.0197  0.1903
 5931TIP3   OH239207   5.347   1.905   5.465 -0.1697 -0.2850 -0.2904
 5931TIP3    H139208   5.339   1.888   5.559  0.5832 -2.2067 -0.5080
 5931TIP3    H239209   5.344   2.000   5.457  0.8797 -0.0139  1.7977
 5932TIP3   OH239210   6.565   6.766  16.118 -0.0463  0.1351  0.0810
 5932TIP3    H139211   6.623   6.818  16.174  0.8622 -1.6177  0.8666
 5932TIP3    H239212   6.623   6.698  16.082 -1.1330 -0.2014 -1.1013
 5933TIP3   OH239213   1.807   5.226   0.099  0.2703  0.5418 -0.3921
 5933TIP3    H139214   1.865   5.288   0.055  0.2849  0.9169  0.1506
 5933TIP3    H239215   1.867   5.165   0.143  0.2535  0.6287 -0.2492
 5934TIP3   OH239216   5.281   5.463  15.099  0.2926  1.0078  0.3972
 5934TIP3    H139217   5.187   5.466  15.079 -0.2849 -0.2214  2.6030
 5934TIP3    H239218   5.308   5.375  15.073  1.1418  1.7074 -1.2282
 5935TIP3   OH239219   0.590   0.222   3.852 -0.0720  0.2755  0.0797
 5935TIP3    H139220   0.677   0.260   3.843 -0.7150  1.5450 -1.2152
 5935TIP3    H239221   0.549   0.274   3.921  0.0101  0.0267  0.3176
 5936TIP3   OH239222   6.753   1.502   1.061  0.1598 -0.6823 -0.6181
 5936TIP3    H139223   6.725   1.524   1.150  0.5880  0.0224 -0.6531
 5936TIP3    H239224   6.752   1.586   1.014  2.7387 -0.5319 -0.5132
 5937TIP3   OH239225   1.015   3.599   5.165 -0.0111  0.5473 -0.5175
 5937TIP3    H139226   1.103   3.577   5.195  0.2670  1.4856 -0.6362
 5937TIP3    H239227   1.018   3.584   5.070 -0.7839 -2.0574 -0.2044
 5938TIP3   OH239228   2.162   4.787   0.924  0.9287  0.0070 -0.1741
 5938TIP3    H139229   2.203   4.811   1.007  1.2385 -0.9100 -0.0469
 5938TIP3    H239230   2.175   4.863   0.867 -0.6926  1.3055  1.0933
 5939TIP3   OH239231   2.363   2.240  13.940  0.1680 -0.4634 -0.2859
 5939TIP3    H139232   2.394   2.313  13.887 -0.4250 -0.9565 -1.3565
 5939TIP3    H239233   2.308   2.280  14.008  0.2092  0.1085 -0.5875
 5940TIP3   OH239234   0.034   1.996  13.050 -1.0174  0.4798 -0.1448
 5940TIP3    H139235   0.125   1.979  13.073 -1.7893 -1.4644  1.8675
 5940TIP3    H239236   0.012   1.928  12.986 -1.3980  0.0157  0.4573
 5941TIP3   OH239237   3.219   5.250   1.055 -0.6210  0.5485  0.0074
 5941TIP3    H139238   3.205   5.332   1.102 -1.1600 -0.2224  1.2028
 5941TIP3    H239239   3.254   5.189   1.120  2.0964  0.4601 -1.3600
 5942TIP3   OH239240   3.688   0.050  15.827  0.0566  0.1937 -0.2332
 5942TIP3    H139241   3.605   0.078  15.866  1.0948  1.3093  1.2889
 5942TIP3    H239242   3.755   0.096  15.877  1.6154 -0.6189 -1.4716
 5943TIP3   OH239243   1.056   4.509   5.952  0.2327 -0.2344  0.3690
 5943TIP3    H139244   1.107   4.497   6.032 -1.7732 -0.7494  1.6604
 5943TIP3    H239245   0.966   4.490   5.979 -0.4251 -1.0735 -2.1733
 5944TIP3   OH239246   2.180   0.550  13.995  0.3177  0.4946  0.0088
 5944TIP3    H139247   2.155   0.469  14.040  1.1710 -0.3917 -1.0514
 5944TIP3    H239248   2.255   0.583  14.045  1.4497 -0.6414 -0.8749
 5945TIP3   OH239249   0.965   5.979  13.732  0.0536  1.1203 -0.1077
 5945TIP3    H139250   1.037   6.028  13.692  0.0612  2.0542  1.0063
 5945TIP3    H239251   1.005   5.935  13.807 -0.3189  0.7739 -0.1101
 5946TIP3   OH239252   3.424   5.004  11.803 -0.5850  0.0215 -0.1862
 5946TIP3    H139253   3.509   5.021  11.844 -0.6981  1.1568 -0.3778
 5946TIP3    H239254   3.430   5.048  11.718 -1.4734  0.3845 -0.0676
 5947TIP3   OH239255   3.128   3.578   3.659 -0.2137 -0.1624  0.0162
 5947TIP3    H139256   3.141   3.500   3.605  1.3945 -0.7950  1.2362
 5947TIP3    H239257   3.198   3.638   3.633 -1.4703  0.9447 -0.9536
 5948TIP3   OH239258   2.459   3.450   1.551  0.2800 -0.0549 -0.3884
 5948TIP3    H139259   2.462   3.387   1.479 -0.8985  0.1480 -0.6413
 5948TIP3    H239260   2.549   3.457   1.581  0.8959  0.2038 -2.1524
 5949TIP3   OH239261   6.295   3.242   0.106 -0.2310 -0.8577  0.8046
 5949TIP3    H139262   6.325   3.191   0.182  0.9167  0.8017  1.5148
 5949TIP3    H239263   6.375   3.266   0.060 -0.7356  0.3809  0.5418
 5950TIP3   OH239264   3.021   2.546  17.177  0.3319  0.5439  0.6194
 5950TIP3    H139265   2.962   2.505  17.115 -0.2366  0.5948  1.1183
 5950TIP3    H239266   3.009   2.497  17.259  1.9714 -0.3241  0.3923
 5951TIP3   OH239267   0.769   1.445   1.615 -0.2987 -0.0696  0.5039
 5951TIP3    H139268   0.782   1.390   1.692  1.5136 -0.7502 -0.2327
 5951TIP3    H239269   0.829   1.519   1.628 -1.0178  0.5547  0.3814
 5952TIP3   OH239270   4.063   3.269   3.779  0.0012 -0.4094  0.0220
 5952TIP3    H139271   4.033   3.334   3.842  1.0674  0.1012  0.0182
 5952TIP3    H239272   4.026   3.186   3.812 -0.4299  0.0166  0.6498
 5953TIP3   OH239273   1.505   2.049   1.858  0.0591 -0.5569 -0.1921
 5953TIP3    H139274   1.419   2.010   1.843 -0.3785 -0.7549  2.3491
 5953TIP3    H239275   1.487   2.130   1.906  1.2849 -0.7304  0.6155
 5954TIP3   OH239276   0.845   1.113   3.080  0.1192  0.0273 -0.2137
 5954TIP3    H139277   0.820   1.205   3.064 -2.0060 -0.2017  1.3503
 5954TIP3    H239278   0.851   1.106   3.175  2.0170 -1.0748 -0.3811
 5955TIP3   OH239279   5.379   0.334  10.808  0.0759  0.1429  0.0647
 5955TIP3    H139280   5.421   0.341  10.723 -0.3751 -1.5551 -0.3442
 5955TIP3    H239281   5.297   0.287  10.790 -0.4004  0.4622  1.3160
 5956TIP3   OH239282   5.824   0.638  11.759 -0.1288 -0.1567 -0.1284
 5956TIP3    H139283   5.908   0.614  11.798 -0.7116 -0.9684  0.6538
 5956TIP3    H239284   5.818   0.585  11.680  0.0921 -0.0880 -0.1924
 5957TIP3   OH239285   0.039   3.284  13.893  0.3255  0.0893 -1.0515
 5957TIP3    H139286   0.128   3.254  13.875  0.6426  0.8650 -0.8332
 5957TIP3    H239287   0.047   3.336  13.974 -0.6581 -1.4341  0.0800
 5958TIP3   OH239288   2.421   0.650  11.348 -0.1178 -0.0954  0.1595
 5958TIP3    H139289   2.390   0.706  11.419  0.7751 -0.3784  0.7806
 5958TIP3    H239290   2.343   0.602  11.320 -1.0588  1.8595 -0.7941
 5959TIP3   OH239291   6.400   5.327  12.845  0.2972  0.0627 -0.0240
 5959TIP3    H139292   6.370   5.412  12.813 -0.1317 -0.2297 -0.4065
 5959TIP3    H239293   6.321   5.275  12.853  0.5540 -0.2853  0.2574
 5960TIP3   OH239294   3.275   2.150  17.133  0.0300 -0.3107 -0.1844
 5960TIP3    H139295   3.333   2.204  17.186 -0.5100  0.4223 -0.3163
 5960TIP3    H239296   3.330   2.079  17.100  0.9117  0.5034 -0.5114
 5961TIP3   OH239297   4.270   4.001  14.497  0.3276 -0.2433 -0.2316
 5961TIP3    H139298   4.297   4.002  14.589  1.6199  0.0001 -0.5878
 5961TIP3    H239299   4.267   3.909  14.473  0.2015 -0.2986 -0.0038
 5962TIP3   OH239300   3.954   0.369   0.757  0.2643 -0.2790 -0.3685
 5962TIP3    H139301   3.903   0.310   0.813  0.5746  1.7641  2.2387
 5962TIP3    H239302   3.902   0.374   0.676 -2.0193 -0.7681  0.9578
 5963TIP3   OH239303   0.023   4.226   4.564 -0.3300  0.5290  0.1899
 5963TIP3    H139304   0.041   4.309   4.519  0.0561  0.4796  0.2424
 5963TIP3    H239305   0.108   4.182   4.566 -0.1141  0.9683  1.8482
 5964TIP3   OH239306   4.910   5.869   3.817 -0.6909  0.1730 -0.0807
 5964TIP3    H139307   5.001   5.843   3.808 -0.7592 -0.1399  0.1229
 5964TIP3    H239308   4.913   5.964   3.831 -0.4288  0.2426 -0.5883
 5965TIP3   OH239309   1.522   4.213  16.172 -0.9021  0.2195 -1.0709
 5965TIP3    H139310   1.553   4.268  16.244 -2.6910 -1.9347  1.4679
 5965TIP3    H239311   1.523   4.272  16.096 -0.6230  3.1000  1.0098
 5966TIP3   OH239312   0.575   3.002  15.414  0.2339  0.1773  0.0734
 5966TIP3    H139313   0.573   2.908  15.394 -0.9386  0.2049 -0.0234
 5966TIP3    H239314   0.661   3.031  15.383  0.6216 -0.8678  0.1309
 5967TIP3   OH239315   4.473   2.519  15.438 -0.0335 -0.4871 -0.0902
 5967TIP3    H139316   4.488   2.465  15.516  0.3272 -2.3389 -1.3705
 5967TIP3    H239317   4.558   2.522  15.395 -0.8282 -1.9658 -1.8809
 5968TIP3   OH239318   2.403   5.691  16.924  0.3805 -0.1395  0.2307
 5968TIP3    H139319   2.315   5.676  16.889  0.1479  0.8425  0.3823
 5968TIP3    H239320   2.413   5.624  16.991 -0.3662 -0.0782  0.4134
 5969TIP3   OH239321   1.202   5.322  16.756 -0.3106 -0.1228 -1.1293
 5969TIP3    H139322   1.240   5.292  16.674  1.3818 -0.8456 -0.1300
 5969TIP3    H239323   1.133   5.259  16.775 -0.8021  0.1273 -2.0539
 5970TIP3   OH239324   4.306   6.673  14.897 -0.2644 -0.2065  0.0869
 5970TIP3    H139325   4.269   6.644  14.813  1.1351 -0.2024 -0.5646
 5970TIP3    H239326   4.269   6.613  14.961 -2.0101  0.3015 -0.3976
 5971TIP3   OH239327   0.674   1.419   6.129 -0.1532  0.1350  0.1674
 5971TIP3    H139328   0.579   1.433   6.134 -0.2738 -0.6481  0.1500
 5971TIP3    H239329   0.686   1.328   6.156  0.3576 -0.4964 -1.9740
 5972TIP3   OH239330   1.563   2.134   2.622  1.0234 -0.3517 -0.6343
 5972TIP3    H139331   1.562   2.193   2.697  0.7465 -0.5841 -0.4556
 5972TIP3    H239332   1.655   2.133   2.594  0.8356  1.1739 -1.4397
 5973TIP3   OH239333   2.102   1.529   0.604  0.2971 -0.6084 -0.1084
 5973TIP3    H139334   2.027   1.581   0.575  1.5852  0.2898 -2.0579
 5973TIP3    H239335   2.169   1.593   0.624  0.8725 -1.4315  0.6662
 5974TIP3   OH239336   3.891   4.020  16.817 -0.9405 -0.0959  0.6084
 5974TIP3    H139337   3.942   3.941  16.835 -2.0157 -0.5288  1.9123
 5974TIP3    H239338   3.866   4.053  16.903 -2.5665  0.2719  0.0366
 5975TIP3   OH239339   6.458   5.422   3.380  0.3341  0.5991 -0.2491
 5975TIP3    H139340   6.445   5.330   3.402  0.2899  0.6709  0.0365
 5975TIP3    H239341   6.416   5.433   3.295 -1.0291  0.7018  0.4001
 5976TIP3   OH239342   1.039   6.495   3.691 -0.1451  0.4018 -0.2320
 5976TIP3    H139343   1.043   6.589   3.671  1.0394  0.9888  2.3215
 5976TIP3    H239344   1.117   6.478   3.743 -0.9455 -1.7379  0.3878
 5977TIP3   OH239345   5.682   5.679   1.380 -0.7096  0.8382  0.6082
 5977TIP3    H139346   5.636   5.689   1.297 -1.2454  0.7136  0.8889
 5977TIP3    H239347   5.632   5.613   1.428  0.0261  0.3590  0.7269
 5978TIP3   OH239348   4.548   4.145   3.194  0.2376  0.3075  0.3824
 5978TIP3    H139349   4.512   4.234   3.197  1.3069  0.8616 -1.5197
 5978TIP3    H239350   4.534   4.117   3.103  0.8558 -1.0724  0.6903
 5979TIP3   OH239351   1.646   5.643   0.410 -0.2915  0.1606 -0.2809
 5979TIP3    H139352   1.674   5.629   0.320  1.3846 -0.1117  0.2416
 5979TIP3    H239353   1.644   5.738   0.421  0.6711  0.1835 -0.2754
 5980TIP3   OH239354   3.749   2.319   1.017 -0.4056  0.0998 -0.1061
 5980TIP3    H139355   3.805   2.293   0.945 -0.2210 -1.4190  0.5508
 5980TIP3    H239356   3.660   2.317   0.981 -0.2302  0.3059 -0.5468
 5981TIP3   OH239357   0.943   1.447   3.144 -0.2770 -0.2791 -0.0678
 5981TIP3    H139358   1.024   1.454   3.093 -0.4763  2.3779 -0.1651
 5981TIP3    H239359   0.875   1.433   3.078 -0.2547  0.7786 -0.3341
 5982TIP3   OH239360   6.031   1.369   6.550  0.0987  0.7530  0.0156
 5982TIP3    H139361   5.997   1.401   6.634 -0.2848  2.7190 -0.8261
 5982TIP3    H239362   5.990   1.426   6.485  0.7076 -0.4642 -1.4867
 5983TIP3   OH239363   1.108   5.225  14.458 -0.1314  0.0921 -0.0823
 5983TIP3    H139364   1.160   5.146  14.469  1.0688  0.9525  0.7054
 5983TIP3    H239365   1.128   5.254  14.369  1.4423  0.8581  0.4825
 5984TIP3   OH239366   2.374   0.759  17.242  0.5572 -0.3898 -0.7714
 5984TIP3    H139367   2.285   0.737  17.214  0.5727 -0.9200 -0.4142
 5984TIP3    H239368   2.362   0.811  17.322  0.5808 -0.9128 -0.4251
 5985TIP3   OH239369   5.652   3.924  11.964  0.8061  0.3745  0.0147
 5985TIP3    H139370   5.679   4.009  11.997  1.0796  0.7273 -1.0708
 5985TIP3    H239371   5.621   3.941  11.875  0.1658 -0.5472  0.0413
 5986TIP3   OH239372   6.314   4.114   0.240  0.3113  0.2255 -0.4729
 5986TIP3    H139373   6.277   4.140   0.156 -1.7472  1.8298  0.8205
 5986TIP3    H239374   6.309   4.019   0.241 -0.7113  0.2426 -1.6958
 5987TIP3   OH239375   0.582   1.005  17.263  0.1438 -0.2955  0.1114
 5987TIP3    H139376   0.665   0.959  17.276  0.3858  0.2611  0.6029
 5987TIP3    H239377   0.540   1.004  17.349 -1.1174 -1.9775 -0.4730
 5988TIP3   OH239378   2.711   5.861   0.499  0.1839 -0.0868 -0.0166
 5988TIP3    H139379   2.667   5.789   0.453  0.1928  0.1174 -0.3435
 5988TIP3    H239380   2.651   5.883   0.570  0.2782 -0.5572  0.2141
 5989TIP3   OH239381   2.737   4.384   5.001 -0.0856 -0.7826  0.1365
 5989TIP3    H139382   2.791   4.326   5.055 -1.3095 -2.2517 -0.1326
 5989TIP3    H239383   2.680   4.428   5.064 -1.7746 -2.7778  0.0977
 5990TIP3   OH239384   5.487   2.096  13.750  0.6867  0.4026  0.3057
 5990TIP3    H139385   5.496   2.192  13.752  0.9522  0.3828  1.7820
 5990TIP3    H239386   5.562   2.065  13.802 -0.0299 -0.5346  0.7936
 5991TIP3   OH239387   5.000   2.450   4.022 -0.5276  0.2439 -0.3903
 5991TIP3    H139388   5.079   2.453   3.969 -0.0288  1.3557  0.3830
 5991TIP3    H239389   4.937   2.504   3.975 -0.2051  0.9213 -0.0631
 5992TIP3   OH239390   1.681   3.565  16.320  0.1021  0.3312  0.1687
 5992TIP3    H139391   1.753   3.626  16.336 -0.8140  1.5247 -0.1808
 5992TIP3    H239392   1.616   3.585  16.387  0.2844 -1.1037  0.8210
 5993TIP3   OH239393   5.394   6.208   2.919 -0.1996  0.0193  0.1367
 5993TIP3    H139394   5.486   6.184   2.918 -0.5703 -1.4626  0.0203
 5993TIP3    H239395   5.394   6.303   2.930  1.2578 -0.2658  3.8789
 5994TIP3   OH239396   0.711   6.301  16.458  0.1126 -0.3575 -0.2136
 5994TIP3    H139397   0.671   6.337  16.537  2.1905 -0.0480  0.7759
 5994TIP3    H239398   0.708   6.206  16.472  0.0156 -0.3237  0.0059
 5995TIP3   OH239399   6.141   6.032   1.090  0.2322 -0.2956  0.1775
 5995TIP3    H139400   6.209   6.051   1.154 -0.8808  4.0247  0.3898
 5995TIP3    H239401   6.059   6.054   1.134 -1.0290 -1.9857 -1.1805
 5996TIP3   OH239402   6.173   3.263   2.575  0.5901  0.3361 -0.4363
 5996TIP3    H139403   6.116   3.300   2.643  1.2432  0.7300 -0.0935
 5996TIP3    H239404   6.141   3.173   2.564  1.1751 -0.1072  1.2036
 5997TIP3   OH239405   1.631   2.649  13.886  0.3176  0.0573  0.3746
 5997TIP3    H139406   1.687   2.719  13.921  1.5728 -1.8582  2.4580
 5997TIP3    H239407   1.685   2.570  13.890 -1.1760 -1.1725 -1.5134
 5998TIP3   OH239408   6.333   3.721  15.863 -0.0411  0.4677 -0.0647
 5998TIP3    H139409   6.402   3.707  15.928 -1.2041 -0.1828  1.0709
 5998TIP3    H239410   6.251   3.708  15.911 -0.9545  0.5217 -1.5401
 5999TIP3   OH239411   5.470   5.243  13.409 -0.3926  0.3336  0.5016
 5999TIP3    H139412   5.553   5.291  13.414 -1.2689  1.9540  0.3003
 5999TIP3    H239413   5.422   5.272  13.486 -1.1797  0.2318  0.0533
 6000TIP3   OH239414   0.697   1.897  10.606  0.3030 -0.8628 -0.5608
 6000TIP3    H139415   0.721   1.918  10.696  1.3836 -3.5029 -0.1422
 6000TIP3    H239416   0.610   1.859  10.612 -0.4883  0.7705 -0.9633
 6001TIP3   OH239417   1.474   6.112   4.406 -0.4459 -0.1641 -0.6293
 6001TIP3    H139418   1.522   6.153   4.477 -0.2476  0.4266 -1.0966
 6001TIP3    H239419   1.396   6.074   4.448 -1.1395  1.5097 -0.3066
 6002TIP3   OH239420   6.470   2.850  11.592  0.0147 -0.5169  0.0794
 6002TIP3    H139421   6.452   2.756  11.598 -2.2540 -0.0594  4.1296
 6002TIP3    H239422   6.565   2.856  11.590  0.2786 -2.9294  1.3861
 6003TIP3   OH239423   2.565   3.455  13.491 -0.1258 -0.4672 -0.2279
 6003TIP3    H139424   2.580   3.449  13.585 -1.9726  3.0072  0.4446
 6003TIP3    H239425   2.624   3.525  13.461 -1.8611  0.7529 -0.9504
 6004TIP3   OH239426   1.799   2.121  14.301  0.0294 -0.3176 -0.0327
 6004TIP3    H139427   1.852   2.101  14.378 -0.4960  1.5700  0.8812
 6004TIP3    H239428   1.734   2.051  14.298  0.7206 -1.0014  0.5922
 6005TIP3   OH239429   5.890   3.701   2.755  0.2186 -0.1724  0.1325
 6005TIP3    H139430   5.915   3.609   2.743 -1.0098 -0.3385 -1.4764
 6005TIP3    H239431   5.796   3.697   2.775  0.1290  0.7366 -0.0966
 6006TIP3   OH239432   3.744   5.420  12.626 -0.1404 -0.1433 -0.3063
 6006TIP3    H139433   3.822   5.469  12.599  0.8651 -0.5825  1.6437
 6006TIP3    H239434   3.765   5.328  12.606 -0.5350 -0.1808 -0.5726
 6007TIP3   OH239435   5.776   4.100   5.286  0.2418 -0.7372 -0.4246
 6007TIP3    H139436   5.720   4.178   5.290 -1.3318 -1.7353 -1.8519
 6007TIP3    H239437   5.816   4.104   5.200  1.1417 -0.8834 -0.0253
 6008TIP3   OH239438   0.741   5.254  11.317  0.0663 -0.0729 -0.1166
 6008TIP3    H139439   0.767   5.341  11.286  1.1840 -0.2606  0.2563
 6008TIP3    H239440   0.731   5.264  11.411  1.3947 -0.6076  0.1063
 6009TIP3   OH239441   4.519   0.050   0.303  0.2812 -0.3269  0.4567
 6009TIP3    H139442   4.448  -0.002   0.340 -0.9541  0.5743 -0.5289
 6009TIP3    H239443   4.512   0.135   0.347  0.9275 -0.3099  0.5384
 6010TIP3   OH239444   6.345   2.972   0.669  0.0759 -0.2349  0.2589
 6010TIP3    H139445   6.299   2.953   0.587  0.4922 -0.3696  0.0548
 6010TIP3    H239446   6.437   2.976   0.644  0.3977 -2.0474  1.0386
 6011TIP3   OH239447   0.030   3.941   2.510 -0.0674  0.2244  0.1042
 6011TIP3    H139448  -0.002   3.977   2.593  2.6228 -0.3082  1.5011
 6011TIP3    H239449  -0.011   3.855   2.504 -1.7559  1.0079 -0.1290
 6012TIP3   OH239450   5.400   3.994  13.800 -0.3248  0.0529  0.1051
 6012TIP3    H139451   5.374   4.044  13.877  0.5811  1.4840 -0.4753
 6012TIP3    H239452   5.486   3.959  13.821 -1.1853 -1.8382  0.7308
 6013TIP3   OH239453   2.634   3.073  12.865  0.2273  0.4029 -0.4239
 6013TIP3    H139454   2.567   3.035  12.808  0.0178  0.8179 -0.4537
 6013TIP3    H239455   2.592   3.147  12.907  1.5757  2.8073 -2.9780
 6014TIP3   OH239456   1.536   6.507  15.027 -0.6530 -0.3091  0.1663
 6014TIP3    H139457   1.630   6.494  15.041 -0.2637 -0.0566 -1.9653
 6014TIP3    H239458   1.505   6.543  15.110  0.9054 -1.4092  1.2871
 6015TIP3   OH239459   1.966   2.283   3.193  0.2305  0.1436 -0.4012
 6015TIP3    H139460   1.920   2.200   3.182  2.2243 -1.2861  1.2431
 6015TIP3    H239461   1.900   2.350   3.172 -2.4862 -1.7276  1.4501
 6016TIP3   OH239462   0.968   1.772   1.155  0.0288 -0.2254 -0.0371
 6016TIP3    H139463   0.984   1.695   1.209 -0.2538 -1.6360 -1.8628
 6016TIP3    H239464   0.934   1.737   1.073 -0.3546  1.8769 -0.8388
 6017TIP3   OH239465   1.227   6.316  13.191  0.5525 -0.7672  0.8522
 6017TIP3    H139466   1.177   6.370  13.253  0.9082 -0.6919  1.0749
 6017TIP3    H239467   1.239   6.373  13.115  2.1719  0.0023  1.6444
 6018TIP3   OH239468   1.168   5.169  15.410  0.1817  0.1553 -0.3393
 6018TIP3    H139469   1.109   5.123  15.469  1.5445  0.0759  1.0349
 6018TIP3    H239470   1.198   5.102  15.348  0.5474 -0.3249  0.3513
 6019TIP3   OH239471   3.214   0.880  16.608  0.2579 -0.3314  0.4526
 6019TIP3    H139472   3.234   0.866  16.516  0.0318  1.5490  0.0935
 6019TIP3    H239473   3.296   0.864  16.654  0.7064  0.0201 -0.2192
 6020TIP3   OH239474   2.550   2.665  15.493  0.1841 -0.2706  0.1164
 6020TIP3    H139475   2.513   2.727  15.430  0.2956  0.0691  0.3881
 6020TIP3    H239476   2.552   2.712  15.576 -0.9205 -1.0687  0.6081
 6021TIP3   OH239477   1.939   4.756   1.085  0.2110  0.6262 -0.4975
 6021TIP3    H139478   1.898   4.670   1.081  0.8036  0.2024  1.3384
 6021TIP3    H239479   2.003   4.755   1.014  1.1624 -1.0167  0.3047
 6022TIP3   OH239480   4.939   4.404   2.885  0.7008  0.5062  0.2855
 6022TIP3    H139481   4.963   4.490   2.851  0.0285 -0.5982 -3.4074
 6022TIP3    H239482   4.852   4.388   2.849  0.6101 -1.5667  1.2801
 6023TIP3   OH239483   1.896   4.295   4.622  0.1718  0.3422  0.2080
 6023TIP3    H139484   1.955   4.322   4.693 -0.1540 -0.3208  0.7411
 6023TIP3    H239485   1.953   4.279   4.548  0.3443  3.0783 -0.3404
 6024TIP3   OH239486   5.552   4.092   3.126 -0.5402 -0.0405  0.5554
 6024TIP3    H139487   5.468   4.064   3.161 -1.1194  0.4902 -0.3945
 6024TIP3    H239488   5.550   4.067   3.034 -0.0592  0.8551  0.2864
 6025TIP3   OH239489   3.160   4.938  11.070  0.2331 -0.3841 -0.6282
 6025TIP3    H139490   3.123   5.024  11.049  1.5341  0.1512 -0.8020
 6025TIP3    H239491   3.128   4.881  11.001  0.1316  0.1765 -1.0515
 6026TIP3   OH239492   4.260   0.279  13.280  1.2291 -0.1316  0.0359
 6026TIP3    H139493   4.226   0.339  13.347  1.0396  2.1752 -1.9932
 6026TIP3    H239494   4.324   0.225  13.327 -0.3429 -0.0313  2.4904
 6027TIP3   OH239495   2.405   2.566   0.595  0.1782  0.5267 -0.0068
 6027TIP3    H139496   2.459   2.495   0.562  0.5306  0.1282  1.3684
 6027TIP3    H239497   2.318   2.550   0.557  0.8157  0.7845 -1.6660
 6028TIP3   OH239498   2.709   2.134   2.668  0.3090  0.3677  0.2720
 6028TIP3    H139499   2.683   2.218   2.705  0.6283  0.9768 -0.8282
 6028TIP3    H239500   2.786   2.153   2.615 -1.1741 -0.0170 -2.2519
 6029TIP3   OH239501   3.350   6.540   4.521 -0.1166 -0.0005  0.2127
 6029TIP3    H139502   3.312   6.607   4.578  0.4704  1.5118 -1.1224
 6029TIP3    H239503   3.406   6.488   4.579 -0.6831  0.5539  1.2907
 6030TIP3   OH239504   5.897   2.654   1.091 -0.3313  0.0854  0.1093
 6030TIP3    H139505   5.887   2.653   0.996 -1.7403  0.3345  0.2192
 6030TIP3    H239506   5.982   2.696   1.107 -0.7141  1.3688 -1.0206
 6031TIP3   OH239507   1.789   1.818   3.799 -0.0694  0.0460  0.3721
 6031TIP3    H139508   1.761   1.864   3.879  0.3134 -1.1336  1.2064
 6031TIP3    H239509   1.791   1.886   3.732  1.0359  1.3945  1.6978
 6032TIP3   OH239510   6.381   0.729  12.109 -0.2253  0.7258  0.3526
 6032TIP3    H139511   6.319   0.784  12.062 -3.6911 -0.7070  2.7718
 6032TIP3    H239512   6.374   0.643  12.067 -1.2007  0.1532  1.6126
 6033TIP3   OH239513   3.663   6.535  15.343 -0.5671  0.0546  0.6085
 6033TIP3    H139514   3.678   6.455  15.394 -0.8508  1.4620  3.0865
 6033TIP3    H239515   3.748   6.556  15.305 -0.5310 -1.4706 -0.2057
 6034TIP3   OH239516   3.572   3.031   2.045 -0.1670 -0.1919 -0.2506
 6034TIP3    H139517   3.510   2.982   2.099  0.0527 -0.7416 -0.4895
 6034TIP3    H239518   3.584   2.977   1.967 -0.3065  0.4855 -0.7554
 6035TIP3   OH239519   6.468   3.746   5.854 -0.4236 -0.8100  0.5464
 6035TIP3    H139520   6.499   3.680   5.915  0.1488  0.5031  1.7255
 6035TIP3    H239521   6.523   3.735   5.776 -1.4906 -2.8216 -0.0050
 6036TIP3   OH239522   0.915   0.596  11.352 -0.7094 -0.1125  0.6398
 6036TIP3    H139523   0.867   0.546  11.286 -1.9083  2.2261 -0.4193
 6036TIP3    H239524   0.993   0.626  11.306 -1.3606  1.2030  0.3210
 6037TIP3   OH239525   5.694   0.553  10.678 -0.7353 -0.6085 -0.5542
 6037TIP3    H139526   5.698   0.622  10.612  1.3932  0.5338  0.6452
 6037TIP3    H239527   5.653   0.594  10.753 -0.2894 -0.9083 -0.1358
 6038TIP3   OH239528   1.357   2.691  13.890  0.4419 -0.1814  0.3893
 6038TIP3    H139529   1.452   2.688  13.901  0.4865  1.0756  0.4212
 6038TIP3    H239530   1.343   2.745  13.813 -0.2655 -0.0594  0.5991
 6039TIP3   OH239531   1.376   1.136  16.365  0.1301 -0.5200 -0.2118
 6039TIP3    H139532   1.441   1.179  16.311  0.7449  0.6888  1.3954
 6039TIP3    H239533   1.422   1.063  16.406  0.9731  1.1752  2.0345
 6040TIP3   OH239534   1.191   4.059  17.105  0.5679  0.2027  0.4894
 6040TIP3    H139535   1.122   4.002  17.070  1.7435 -0.9677  0.0021
 6040TIP3    H239536   1.147   4.142  17.121 -0.7643 -0.2491 -0.6088
 6041TIP3   OH239537   2.884   3.363   4.673  0.0771  0.2864 -0.2286
 6041TIP3    H139538   2.807   3.398   4.629 -0.0857 -1.3172 -1.2932
 6041TIP3    H239539   2.867   3.269   4.681  1.5255  0.0424  0.3172
 6042TIP3   OH239540   0.146   2.132   1.840 -0.1506  0.2280 -0.5134
 6042TIP3    H139541   0.060   2.174   1.840 -0.8692 -1.0433  2.0661
 6042TIP3    H239542   0.181   2.147   1.928  2.3697  0.7609 -1.4885
 6043TIP3   OH239543   1.738   6.182  15.426 -0.0898 -0.1509  0.1106
 6043TIP3    H139544   1.811   6.205  15.484 -0.9217 -1.0099  1.5706
 6043TIP3    H239545   1.693   6.265  15.409  1.8987  0.6105 -1.8615
 6044TIP3   OH239546   4.339   5.809  11.370 -0.4813  0.5396  0.1533
 6044TIP3    H139547   4.330   5.717  11.395 -1.2695  0.5949  0.0947
 6044TIP3    H239548   4.264   5.852  11.410  0.7041  1.4488  1.4814
 6045TIP3   OH239549   3.843   1.235  12.904  0.5367  0.3545 -0.3247
 6045TIP3    H139550   3.922   1.288  12.890  1.4368 -1.6378 -4.2948
 6045TIP3    H239551   3.780   1.269  12.840 -0.9780  0.2327  1.0367
 6046TIP3   OH239552   4.833   3.863  12.901 -0.4965 -0.1660 -0.2902
 6046TIP3    H139553   4.901   3.862  12.833  1.5917  0.1274  1.6575
 6046TIP3    H239554   4.805   3.772  12.908  1.8133 -0.8695  0.7604
 6047TIP3   OH239555   3.388   6.369  10.536 -0.4466 -0.5549 -0.0502
 6047TIP3    H139556   3.314   6.423  10.564  0.7297  0.8114  0.5394
 6047TIP3    H239557   3.366   6.281  10.566 -0.9158  0.1877  1.9315
 6048TIP3   OH239558   3.482   3.360  16.994  0.1116  0.6343 -0.5714
 6048TIP3    H139559   3.496   3.414  16.917 -2.2586  0.5787 -1.1189
 6048TIP3    H239560   3.433   3.416  17.055  1.2716  0.4268  0.5993
 6049TIP3   OH239561   3.911   5.005   5.101  0.2437 -0.0979 -0.0166
 6049TIP3    H139562   3.954   4.997   5.016  1.3842  0.7075  0.4618
 6049TIP3    H239563   3.902   4.914   5.132  3.7981 -0.2988  0.8874
 6050TIP3   OH239564   5.773   2.043  16.021 -0.1966  0.9420  1.1663
 6050TIP3    H139565   5.698   2.067  15.967  0.6253 -0.2650 -0.6312
 6050TIP3    H239566   5.849   2.055  15.963  0.7922  0.2272  2.2636
 6051TIP3   OH239567   5.851   6.581  12.887 -0.2328 -0.6405 -0.2952
 6051TIP3    H139568   5.812   6.620  12.809 -1.2751  0.0598  0.5468
 6051TIP3    H239569   5.843   6.649  12.954  0.9828 -1.0854  0.3355
 6052TIP3   OH239570   5.853   2.743  13.208 -0.1913 -0.1101 -0.2309
 6052TIP3    H139571   5.866   2.822  13.155 -1.7054 -0.1272 -0.6778
 6052TIP3    H239572   5.879   2.671  13.151  0.1143  0.0034 -0.2323
 6053TIP3   OH239573   3.721   4.582   2.395  0.2425  0.3503  0.0317
 6053TIP3    H139574   3.768   4.502   2.417  0.4866  0.7323  0.9640
 6053TIP3    H239575   3.632   4.554   2.374  0.4917 -0.2227 -0.2731
 6054TIP3   OH239576   5.565   2.936   5.625  0.0334  0.0326  0.2418
 6054TIP3    H139577   5.621   2.864   5.654  1.0959  0.3183 -0.9950
 6054TIP3    H239578   5.555   2.991   5.702 -0.2676 -1.1057  1.0376
 6055TIP3   OH239579   2.701   1.964  11.764  0.3388 -0.0756  0.2934
 6055TIP3    H139580   2.664   2.045  11.802  0.5702 -0.2083  0.8200
 6055TIP3    H239581   2.773   1.942  11.823 -0.2258 -1.1128  0.6266
 6056TIP3   OH239582   0.532   3.396   3.004  0.2658  0.2016 -0.3100
 6056TIP3    H139583   0.539   3.324   3.068 -1.0992  1.3086  1.1695
 6056TIP3    H239584   0.495   3.355   2.926 -0.0500 -0.7912  0.3409
 6057TIP3   OH239585   5.415   2.038  16.644  0.5750  0.7729  0.8520
 6057TIP3    H139586   5.487   2.080  16.597  1.8173 -1.1554  0.9569
 6057TIP3    H239587   5.452   2.015  16.729  0.1850 -1.1833  0.5267
 6058TIP3   OH239588   5.929   1.293  17.177  0.5367  0.1498  0.2541
 6058TIP3    H139589   6.017   1.329  17.187 -0.0708  1.7573 -0.0205
 6058TIP3    H239590   5.885   1.313  17.260  0.0982  0.3253 -0.0153
 6059TIP3   OH239591   4.874   0.747  15.515 -0.4611  0.0659  0.0697
 6059TIP3    H139592   4.835   0.831  15.540 -2.6502 -0.4563 -1.3081
 6059TIP3    H239593   4.872   0.748  15.419  0.9882 -0.9207  0.0035
 6060TIP3   OH239594   5.644   6.123   1.903 -0.1695  0.2921  0.1783
 6060TIP3    H139595   5.591   6.203   1.900 -0.8693 -0.1617  0.1408
 6060TIP3    H239596   5.700   6.134   1.980  0.9399  1.5472 -0.7574
 6061TIP3   OH239597   1.033   6.561  13.950  0.1852 -0.1711 -0.1230
 6061TIP3    H139598   1.011   6.523  14.035 -1.2978 -3.2746 -1.7295
 6061TIP3    H239599   1.107   6.509  13.919  1.1221  1.3452 -0.5276
 6062TIP3   OH239600   4.915   2.966  14.791  0.0441  0.0095 -0.0039
 6062TIP3    H139601   4.979   2.943  14.859  0.1029  0.8297  0.2275
 6062TIP3    H239602   4.891   2.882  14.752  1.4074 -0.3050 -0.2290
 6063TIP3   OH239603   5.156   0.862  13.430 -0.4309 -0.1554  0.4462
 6063TIP3    H139604   5.244   0.832  13.455 -0.9056 -0.6430  1.6059
 6063TIP3    H239605   5.150   0.843  13.337 -0.7922 -4.0727  1.0985
 6064TIP3   OH239606   5.527   2.832  16.132  0.4923  0.5841  0.2310
 6064TIP3    H139607   5.442   2.841  16.088  0.6804  1.0054 -0.0481
 6064TIP3    H239608   5.508   2.775  16.208 -0.1179  0.9732  0.3827
 6065TIP3   OH239609   6.033   5.081   0.436  0.7625  0.0971 -0.3368
 6065TIP3    H139610   6.048   5.031   0.516  1.5144  1.0993  0.1602
 6065TIP3    H239611   5.964   5.143   0.459 -0.6085 -1.0631 -1.1313
 6066TIP3   OH239612   3.881   0.135  16.036  0.0481  0.4364 -0.5201
 6066TIP3    H139613   3.977   0.132  16.039  0.0221 -0.4397 -0.3732
 6066TIP3    H239614   3.853   0.083  16.111 -0.5357 -0.6669 -1.4656
 6067TIP3   OH239615   0.474   0.631   1.594  0.6249  0.1287 -0.7996
 6067TIP3    H139616   0.463   0.637   1.499 -1.5696 -1.1169 -0.6938
 6067TIP3    H239617   0.408   0.568   1.622  0.9341  0.7665  1.6235
 6068TIP3   OH239618   2.316   1.022   5.794 -1.1565 -0.1395  0.6765
 6068TIP3    H139619   2.359   0.949   5.749  0.3416  0.5720  0.8790
 6068TIP3    H239620   2.246   1.050   5.735  0.3476  0.3476 -0.9517
 6069TIP3   OH239621   6.320   5.937   0.874 -0.3877 -0.1868 -0.1963
 6069TIP3    H139622   6.253   5.979   0.928 -1.2595 -0.3337 -1.1323
 6069TIP3    H239623   6.363   5.875   0.934 -0.8134  0.1969  0.5219
 6070TIP3   OH239624   4.447   4.846  16.077 -0.0769 -0.1736 -0.5196
 6070TIP3    H139625   4.434   4.892  16.159  1.3407 -0.6016 -0.0335
 6070TIP3    H239626   4.358   4.836  16.041 -0.6670  0.4301  0.7117
 6071TIP3   OH239627   4.578   0.779   5.180  0.4069  0.2024  0.4993
 6071TIP3    H139628   4.648   0.793   5.116 -0.5187 -0.3125 -0.6518
 6071TIP3    H239629   4.617   0.719   5.244  1.4233  0.9207  0.5849
 6072TIP3   OH239630   2.802   3.863  16.963 -0.4016 -0.0728  0.0634
 6072TIP3    H139631   2.742   3.806  16.913 -0.3408 -0.3285  0.2789
 6072TIP3    H239632   2.767   3.951  16.949 -1.4466 -0.3096  1.0195
 6073TIP3   OH239633   4.346   4.090  14.760 -0.3050  0.0130 -0.1254
 6073TIP3    H139634   4.359   4.043  14.843  0.3439 -0.4024 -0.4537
 6073TIP3    H239635   4.361   4.182  14.782 -0.7925 -0.0211  0.3591
 6074TIP3   OH239636   6.371   2.493  17.215  0.5593  0.7364  0.5890
 6074TIP3    H139637   6.341   2.431  17.282  1.6980 -0.2798  0.1920
 6074TIP3    H239638   6.297   2.552  17.203 -1.0561 -1.2522  0.1476
 6075TIP3   OH239639   6.758   5.298   3.349  0.3442 -0.6286  0.5202
 6075TIP3    H139640   6.761   5.389   3.320  2.3175 -1.1981 -1.3115
 6075TIP3    H239641   6.665   5.278   3.358 -0.2137  0.8802 -1.4047
 6076TIP3   OH239642   5.884   0.221   1.245  0.2629  0.2117 -0.9905
 6076TIP3    H139643   5.895   0.209   1.151  1.2988 -0.0740 -0.8484
 6076TIP3    H239644   5.823   0.294   1.254 -1.2551 -0.8940 -1.8831
 6077TIP3   OH239645   5.754   2.974  10.933  0.4803  0.0799  0.4170
 6077TIP3    H139646   5.768   2.881  10.915 -2.3502 -0.1401 -1.2420
 6077TIP3    H239647   5.742   3.013  10.847 -0.7524  1.5064  1.1859
 6078TIP3   OH239648   0.123   3.017   0.246  0.2826  0.0962  0.2401
 6078TIP3    H139649   0.206   2.970   0.237 -0.1588 -0.4956 -0.9812
 6078TIP3    H239650   0.092   3.028   0.156 -1.1009  0.0724  0.6913
 6079TIP3   OH239651   5.852   2.348  15.420 -0.0106 -0.3520  0.3515
 6079TIP3    H139652   5.846   2.254  15.435  0.7070 -0.7459 -1.5704
 6079TIP3    H239653   5.891   2.357  15.333 -1.7361  1.6948 -0.3222
 6080TIP3   OH239654   4.570   4.850  12.486  0.5871 -0.0317  0.5613
 6080TIP3    H139655   4.662   4.870  12.501  0.3452 -0.1155  2.3661
 6080TIP3    H239656   4.548   4.785  12.553 -0.5229 -0.8114 -0.5143
 6081TIP3   OH239657   0.005   1.114   0.657  0.6737 -0.0740 -0.6590
 6081TIP3    H139658  -0.072   1.169   0.664  1.1958  0.5499  0.3561
 6081TIP3    H239659   0.070   1.155   0.714  1.2575 -1.4276 -0.2996
 6082TIP3   OH239660   6.499   0.585  12.523  0.0394 -0.1331 -0.3130
 6082TIP3    H139661   6.546   0.531  12.459  1.4046 -0.2513  0.7301
 6082TIP3    H239662   6.440   0.524  12.567  0.1500 -0.3565 -0.4715
 6083TIP3   OH239663   4.663   0.368  11.267 -0.2196  0.7851 -0.7171
 6083TIP3    H139664   4.670   0.341  11.175  0.0890 -0.4243 -0.3514
 6083TIP3    H239665   4.593   0.434  11.267  0.0373  1.0891 -1.8756
 6084TIP3   OH239666   0.042   0.220  16.780  0.3183  0.1512 -0.2498
 6084TIP3    H139667   0.065   0.142  16.831 -0.3230 -0.2855 -0.6086
 6084TIP3    H239668   0.126   0.263  16.764  0.6317 -0.1940  0.3789
 6085TIP3   OH239669   3.151   0.435   0.591 -0.5905 -0.2724  0.1517
 6085TIP3    H139670   3.131   0.342   0.593 -0.0063 -0.4073  2.1029
 6085TIP3    H239671   3.071   0.478   0.622 -0.1927 -0.3004  1.2561
 6086TIP3   OH239672   5.053   3.989  16.279  0.2460  0.0017 -0.2332
 6086TIP3    H139673   5.063   4.039  16.198  2.7058  0.7145  0.4324
 6086TIP3    H239674   4.972   4.023  16.318 -0.1428  0.7465 -1.6213
 6087TIP3   OH239675   5.339   1.971  14.326 -0.0747  0.2441 -0.3517
 6087TIP3    H139676   5.255   1.926  14.314 -0.8600  0.6930  2.6403
 6087TIP3    H239677   5.358   1.962  14.420  2.8220  0.9119 -0.7756
 6088TIP3   OH239678   2.182   5.180  10.959 -0.1359  0.3658  0.2880
 6088TIP3    H139679   2.137   5.125  10.895 -0.3158  0.7881  0.0474
 6088TIP3    H239680   2.224   5.248  10.906  0.5353  0.1514  0.5343
 6089TIP3   OH239681   6.546   2.338  13.900 -0.4005  0.1941 -0.1042
 6089TIP3    H139682   6.487   2.263  13.896  0.8072 -0.7916 -0.2387
 6089TIP3    H239683   6.505   2.399  13.961 -0.8889 -1.0495  0.8357
 6090TIP3   OH239684   3.301   3.182   1.157 -0.9686  0.1359 -0.6156
 6090TIP3    H139685   3.253   3.187   1.239  0.1439 -0.3029  0.0881
 6090TIP3    H239686   3.310   3.273   1.128  1.2590  0.6423  1.3568
 6091TIP3   OH239687   6.627   6.008   0.016  0.3088  0.1493  0.2185
 6091TIP3    H139688   6.715   5.973   0.005  0.3842 -0.0259  1.2483
 6091TIP3    H239689   6.617   6.019   0.110 -0.7691  0.1633  0.1232
 6092TIP3   OH239690   6.421   5.655  12.307 -0.1714 -0.0382 -0.2242
 6092TIP3    H139691   6.342   5.691  12.347  0.5388 -0.1986  1.4143
 6092TIP3    H239692   6.425   5.565  12.338  1.0620  0.2004  0.3817
 6093TIP3   OH239693   5.010   3.178   1.308  0.2339 -0.0227  0.3341
 6093TIP3    H139694   4.977   3.120   1.377  0.4047 -0.6403 -0.0916
 6093TIP3    H239695   4.972   3.143   1.227  0.6092  0.2572  0.0323
 6094TIP3   OH239696   3.867   3.488   2.140  0.1525  0.5300 -0.9121
 6094TIP3    H139697   3.898   3.576   2.163 -1.4785  1.0717 -0.6841
 6094TIP3    H239698   3.773   3.498   2.126 -0.2149 -1.3262 -0.1387
 6095TIP3   OH239699   3.823   0.527   2.895 -0.1143  0.8043 -0.0237
 6095TIP3    H139700   3.728   0.513   2.889 -0.3433  0.1024  3.2770
 6095TIP3    H239701   3.832   0.604   2.951  1.1318 -0.8848  2.3117
 6096TIP3   OH239702   5.482   6.262  16.090  0.4613  0.1809  0.2299
 6096TIP3    H139703   5.478   6.314  16.010 -0.0843 -0.7032 -0.3300
 6096TIP3    H239704   5.571   6.275  16.123  0.4231  1.2137 -0.0652
 6097TIP3   OH239705   6.182   2.640  17.097 -0.0404  0.3258 -0.2483
 6097TIP3    H139706   6.220   2.720  17.063  1.0329  0.4991  1.2412
 6097TIP3    H239707   6.117   2.669  17.161  0.5009  0.0546  0.4544
 6098TIP3   OH239708   0.456   6.577  13.179  0.5196 -0.6627 -0.3669
 6098TIP3    H139709   0.427   6.587  13.270 -0.5030 -2.7432 -0.4080
 6098TIP3    H239710   0.390   6.624  13.128  1.1748  0.6365 -0.0727
 6099TIP3   OH239711   1.895   5.960  12.579 -0.0927 -0.2328  0.2277
 6099TIP3    H139712   1.941   6.008  12.509 -0.1109 -1.3857 -0.6017
 6099TIP3    H239713   1.966   5.919  12.629 -0.0458  1.0838  1.2845
 6100TIP3   OH239714   4.804   0.475  15.562  0.2325 -0.3551 -0.1846
 6100TIP3    H139715   4.800   0.565  15.593 -0.1357 -0.4294 -0.0117
 6100TIP3    H239716   4.743   0.471  15.489 -1.0323 -0.8599  0.8486
 6101TIP3   OH239717   0.751   0.089  17.091 -0.2747  0.4634 -0.5146
 6101TIP3    H139718   0.788   0.068  17.177  0.8589  1.2528 -0.7846
 6101TIP3    H239719   0.731   0.183  17.096 -1.4773  0.2352 -0.6722
 6102TIP3   OH239720   6.396   2.395   0.192 -0.1647 -0.1717  0.0376
 6102TIP3    H139721   6.440   2.477   0.213  1.9099 -0.9136 -1.1428
 6102TIP3    H239722   6.465   2.328   0.195 -1.2235 -1.4315 -1.6793
 6103TIP3   OH239723   2.479   4.911  16.890 -0.0238  0.3891 -0.2428
 6103TIP3    H139724   2.407   4.894  16.951 -1.2877 -0.5974 -1.8852
 6103TIP3    H239725   2.552   4.939  16.944 -0.6557 -1.7231  1.8603
 6104TIP3   OH239726   0.708   0.436   4.281 -0.1570  0.5268  0.4142
 6104TIP3    H139727   0.654   0.359   4.298  1.2371 -0.4896  0.3503
 6104TIP3    H239728   0.795   0.413   4.312  0.6791  1.4535 -1.0927
 6105TIP3   OH239729   6.091   4.760  14.473  0.1657  0.6863 -0.3294
 6105TIP3    H139730   6.056   4.791  14.556  1.8644  2.2569 -0.1403
 6105TIP3    H239731   6.147   4.831  14.442  0.7524 -0.4681 -2.0889
 6106TIP3   OH239732   4.163   0.654   2.764  0.1399  0.1028  0.1991
 6106TIP3    H139733   4.231   0.635   2.828  2.2794 -0.9253 -2.1697
 6106TIP3    H239734   4.107   0.576   2.763 -0.0231  0.2052  0.9054
 6107TIP3   OH239735   0.991   5.440   0.355 -0.1955  0.4712  0.2863
 6107TIP3    H139736   1.017   5.363   0.305 -1.6498 -0.4105  0.8184
 6107TIP3    H239737   0.983   5.409   0.445  0.7347  1.6410  0.8011
 6108TIP3   OH239738   5.251   4.582   0.779 -0.0192 -0.2442 -0.3643
 6108TIP3    H139739   5.297   4.511   0.734 -0.9417 -0.1582 -1.4831
 6108TIP3    H239740   5.195   4.537   0.843  0.8701 -0.3941  0.3388
 6109TIP3   OH239741   2.872   0.001  16.267  0.0693  0.3111 -0.2423
 6109TIP3    H139742   2.890   0.043  16.183  1.4053 -0.0236 -0.1373
 6109TIP3    H239743   2.786  -0.041  16.255 -0.6081  1.7825 -0.8289
 6110TIP3   OH239744   4.991   4.690   0.224 -0.3611 -0.0211  0.2257
 6110TIP3    H139745   5.058   4.720   0.163 -1.0374 -0.0174 -0.5407
 6110TIP3    H239746   5.035   4.685   0.308  1.0052 -1.4364 -0.5171
 6111TIP3   OH239747   2.931   2.245  10.648  0.0241  0.6867  0.6044
 6111TIP3    H139748   2.910   2.170  10.593 -1.1089 -0.2147  2.2074
 6111TIP3    H239749   3.025   2.261  10.632 -0.1324  0.1037 -1.1080
 6112TIP3   OH239750   4.621   1.095   0.895 -0.0626 -0.5054  0.4061
 6112TIP3    H139751   4.531   1.085   0.926  0.0522  2.6353  2.2263
 6112TIP3    H239752   4.671   1.118   0.974  2.0197 -0.5807 -0.8103
 6113TIP3   OH239753   1.045   4.047   3.912 -0.6086  0.1138  0.1678
 6113TIP3    H139754   1.096   4.127   3.895 -1.9710  1.2632  1.1991
 6113TIP3    H239755   1.087   3.980   3.859 -0.1265  1.7968 -1.7031
 6114TIP3   OH239756   2.451   0.915   2.724  0.2170  0.0314 -0.3723
 6114TIP3    H139757   2.503   0.926   2.645  1.5847  1.0959  0.6266
 6114TIP3    H239758   2.376   0.862   2.696  0.8124  0.1171 -2.2888
 6115TIP3   OH239759   1.495   3.177   1.522  0.0906  0.1145 -0.2470
 6115TIP3    H139760   1.499   3.143   1.611  1.7176 -0.1776 -0.4111
 6115TIP3    H239761   1.547   3.258   1.525 -0.7130  0.6600 -0.6967
 6116TIP3   OH239762   5.320   5.104   3.906  0.8588  0.2214  0.2004
 6116TIP3    H139763   5.280   5.045   3.842 -0.4106 -0.2348  1.3515
 6116TIP3    H239764   5.397   5.139   3.863 -0.1796  0.2477 -1.7283
 6117TIP3   OH239765   3.586   2.560   3.332 -0.7415  0.1030  0.4768
 6117TIP3    H139766   3.534   2.498   3.281 -2.0523  0.1304  1.7091
 6117TIP3    H239767   3.580   2.642   3.283  0.3929 -0.5149 -0.7778
 6118TIP3   OH239768   3.980   3.991  11.630  0.3876 -0.5702  0.3210
 6118TIP3    H139769   3.987   3.901  11.662  0.7573 -1.0041 -0.8910
 6118TIP3    H239770   3.913   3.986  11.561 -2.1859  0.8071  2.5498
 6119TIP3   OH239771   3.201   6.674  12.297  0.3894  0.4064  0.1617
 6119TIP3    H139772   3.231   6.754  12.339  2.6820 -0.3249  0.0633
 6119TIP3    H239773   3.197   6.610  12.368  1.8877 -0.2129 -0.2762
 6120TIP3   OH239774   2.297   5.510  14.308  0.0717  0.1965  0.3690
 6120TIP3    H139775   2.345   5.556  14.239  2.3939 -0.0055  1.7556
 6120TIP3    H239776   2.239   5.577  14.345  1.3616  1.2900  0.5044
 6121TIP3   OH239777   0.107   3.469  11.393  0.1888 -0.3356  0.9316
 6121TIP3    H139778   0.107   3.527  11.316 -1.7035 -0.4801  0.7806
 6121TIP3    H239779   0.147   3.388  11.362 -0.7442 -0.4690  0.0114
 6122TIP3   OH239780   0.443   3.290  16.658 -0.2479  0.2587 -0.3206
 6122TIP3    H139781   0.442   3.248  16.572  0.3502  0.8485 -0.6299
 6122TIP3    H239782   0.351   3.308  16.677 -0.3835  0.1295 -0.8410
 6123TIP3   OH239783   4.088   5.168  10.530  0.4840 -0.0681  0.5315
 6123TIP3    H139784   4.171   5.187  10.573 -0.1267  0.6258  1.4425
 6123TIP3    H239785   4.056   5.254  10.501 -0.6148 -0.1129  1.5343
 6124TIP3   OH239786   4.353   3.319  16.494  0.2558  0.4961  0.1625
 6124TIP3    H139787   4.360   3.264  16.417  1.4872  0.1088  0.5297
 6124TIP3    H239788   4.434   3.304  16.542 -1.1674 -0.5738  2.4100
 6125TIP3   OH239789   4.958   0.186   3.509 -0.2596  0.2259 -0.0371
 6125TIP3    H139790   4.975   0.250   3.440  0.9950 -0.2005 -0.1453
 6125TIP3    H239791   5.037   0.134   3.513  0.1411  0.9229  2.4836
 6126TIP3   OH239792   2.418   3.713  15.533  0.3520 -0.6683 -0.9809
 6126TIP3    H139793   2.443   3.763  15.611 -0.3025 -1.9466  0.0702
 6126TIP3    H239794   2.324   3.728  15.524 -0.4863 -3.8751  1.0414
 6127TIP3   OH239795   1.558   2.464  12.550  0.9940 -0.1706  0.4399
 6127TIP3    H139796   1.532   2.549  12.585 -1.1687 -1.0463  1.1136
 6127TIP3    H239797   1.576   2.410  12.627 -0.0170 -0.9918  0.1235
 6128TIP3   OH239798   0.137   2.027  15.294 -0.2492  0.4016  0.3530
 6128TIP3    H139799   0.174   1.941  15.276  0.9932  0.7679  1.0834
 6128TIP3    H239800   0.190   2.087  15.243 -0.5052  0.8347  0.5937
 6129TIP3   OH239801   2.995   1.295  12.612  0.2878  0.4702  0.4355
 6129TIP3    H139802   3.064   1.305  12.678 -0.2896 -0.6137  1.2486
 6129TIP3    H239803   3.031   1.233  12.549  0.2890  0.3915  0.5144
 6130TIP3   OH239804   6.393   2.324   1.796  0.2987  0.2043 -0.1519
 6130TIP3    H139805   6.380   2.411   1.757  2.5061  0.5841 -0.2130
 6130TIP3    H239806   6.369   2.336   1.888 -0.6924  0.5125 -0.4429
 6131TIP3   OH239807   6.458   6.308  16.303  0.4115 -0.3442  0.4918
 6131TIP3    H139808   6.389   6.284  16.365 -1.3907  0.4009 -1.1156
 6131TIP3    H239809   6.442   6.252  16.227  1.0827  0.4070 -0.2193
 6132TIP3   OH239810   5.111   3.734  12.403 -0.3183 -0.3395  0.0806
 6132TIP3    H139811   5.141   3.822  12.382  1.9311 -1.3026 -1.0419
 6132TIP3    H239812   5.097   3.692  12.318 -0.6344 -1.2925  0.5874
 6133TIP3   OH239813   0.207   6.542   3.697 -0.2843 -0.5406  0.0383
 6133TIP3    H139814   0.117   6.567   3.675  0.2619  3.0088  1.1919
 6133TIP3    H239815   0.257   6.561   3.618 -0.0776  0.9342  0.4923
 6134TIP3   OH239816   1.102   5.375  13.969  0.4087 -0.4978  0.3337
 6134TIP3    H139817   1.145   5.457  13.944  0.4990 -0.5970  0.1601
 6134TIP3    H239818   1.022   5.373  13.917  0.8473 -0.9513 -0.3378
 6135TIP3   OH239819   4.113   3.838   0.753  0.7157  0.0094  0.5144
 6135TIP3    H139820   4.208   3.826   0.750  1.0145  0.8312  3.3079
 6135TIP3    H239821   4.100   3.930   0.730  0.9504  0.6692  2.7802
 6136TIP3   OH239822   3.308   0.480   2.919  0.1199 -0.0537 -0.1310
 6136TIP3    H139823   3.231   0.538   2.920 -0.0694 -0.2993 -0.3257
 6136TIP3    H239824   3.291   0.418   2.990 -0.1903 -0.5312 -0.6175
 6137TIP3   OH239825   1.058   6.332   0.322  1.6937 -0.1735  0.4936
 6137TIP3    H139826   1.119   6.295   0.258  0.6901  1.3198 -1.4472
 6137TIP3    H239827   1.062   6.273   0.397  2.2500 -2.5661 -1.3087
 6138TIP3   OH239828   4.195   1.806  12.452  0.2918 -0.2896  0.0298
 6138TIP3    H139829   4.241   1.810  12.368 -0.5277  0.3258 -0.4159
 6138TIP3    H239830   4.238   1.872  12.506 -0.0792  0.3212 -0.4016
 6139TIP3   OH239831   4.143   2.354  17.136  0.4137 -0.2337 -0.3929
 6139TIP3    H139832   4.168   2.312  17.054 -1.8109  0.5421 -1.5374
 6139TIP3    H239833   4.055   2.388  17.120 -0.1198 -0.1094  2.3477
 6140TIP3   OH239834   3.252   1.367   2.017  0.2930  0.0295 -0.9063
 6140TIP3    H139835   3.217   1.330   1.935 -1.6230  0.5106 -0.3689
 6140TIP3    H239836   3.195   1.443   2.034 -0.4409 -1.0173  1.7175
 6141TIP3   OH239837   2.253   5.271  10.659  0.5476 -0.0626 -0.2472
 6141TIP3    H139838   2.319   5.222  10.609 -0.4908  0.3722 -2.1529
 6141TIP3    H239839   2.232   5.346  10.603 -1.5337 -0.1781  0.3039
 6142TIP3   OH239840   0.216   1.741  16.124 -0.4354 -0.4670  0.5894
 6142TIP3    H139841   0.170   1.659  16.106 -0.4705 -0.1687 -0.7865
 6142TIP3    H239842   0.158   1.810  16.091  0.4675 -0.0242 -0.1268
 6143TIP3   OH239843   6.562   6.006  13.959 -0.0122  0.1497  0.0221
 6143TIP3    H139844   6.638   5.957  13.990 -1.4656 -0.8497  2.2490
 6143TIP3    H239845   6.501   5.939  13.929  0.0989  0.9661 -2.2405
 6144TIP3   OH239846   3.963   4.073   4.358  0.3344 -0.1501 -0.0369
 6144TIP3    H139847   3.884   4.066   4.411 -0.0636  1.0130 -0.4359
 6144TIP3    H239848   4.035   4.079   4.421  0.1153 -1.2002  0.3249
 6145TIP3   OH239849   3.711   2.536   1.748 -0.1807  0.2707  0.3843
 6145TIP3    H139850   3.771   2.609   1.762 -1.2366  1.4372 -0.8931
 6145TIP3    H239851   3.736   2.501   1.663 -1.7828  1.3276 -0.5843
 6146TIP3   OH239852   2.223   0.835  16.102  0.5977  0.2209 -0.4849
 6146TIP3    H139853   2.281   0.866  16.033 -0.9548 -0.9993 -2.4406
 6146TIP3    H239854   2.268   0.857  16.184  2.6062  1.5021 -1.8703
 6147TIP3   OH239855   6.225   5.695  11.989 -0.1020 -0.2627  0.0391
 6147TIP3    H139856   6.168   5.634  12.036  1.4558  0.1203  2.6052
 6147TIP3    H239857   6.199   5.781  12.021 -1.0939  0.3610 -2.2399
 6148TIP3   OH239858   3.935   4.652   3.708  0.6348  1.1008 -0.2904
 6148TIP3    H139859   3.979   4.619   3.630 -0.2507  0.0987 -0.3825
 6148TIP3    H239860   3.842   4.655   3.685  0.3432  0.6636  0.7645
 6149TIP3   OH239861   6.599   2.493  15.302  0.4646  0.1585  0.5946
 6149TIP3    H139862   6.601   2.406  15.262 -0.5570 -0.8261  2.5355
 6149TIP3    H239863   6.565   2.478  15.391  0.0144  2.5753  0.9059
 6150TIP3   OH239864   0.407   6.097   0.998 -0.9800 -1.0047 -0.3220
 6150TIP3    H139865   0.488   6.099   0.947 -1.9501  1.4851 -1.9447
 6150TIP3    H239866   0.408   6.179   1.048 -2.8077 -0.5011 -1.0022
 6151TIP3   OH239867   0.961   4.861   4.820  0.3104 -0.5232 -0.0700
 6151TIP3    H139868   0.979   4.940   4.769 -0.4995  0.7067  1.4592
 6151TIP3    H239869   1.000   4.879   4.906 -0.9025 -1.2844  0.6618
 6152TIP3   OH239870   3.153   0.490  16.275 -0.1188 -0.2533  0.0014
 6152TIP3    H139871   3.093   0.564  16.278  0.9465  0.6415  0.1863
 6152TIP3    H239872   3.128   0.435  16.349 -2.1008 -1.0659 -1.2111
 6153TIP3   OH239873   6.140   3.090  11.742 -0.7354 -0.7609 -0.7498
 6153TIP3    H139874   6.093   3.170  11.720 -0.2628 -0.5287 -0.9122
 6153TIP3    H239875   6.112   3.027  11.676 -1.5653 -0.9184 -0.2803
 6154TIP3   OH239876   1.358   5.191   0.688 -0.5520  0.3033  0.6586
 6154TIP3    H139877   1.404   5.146   0.759  0.0797  0.8399  0.6025
 6154TIP3    H239878   1.418   5.185   0.613 -1.8812 -1.6463 -0.3243
 6155TIP3   OH239879   1.161   5.055   2.270 -0.1530 -0.6142  0.0024
 6155TIP3    H139880   1.119   5.135   2.303  1.1095  0.8545 -1.7741
 6155TIP3    H239881   1.137   4.988   2.334 -0.0297  1.4802  2.4048
 6156TIP3   OH239882   2.529   5.106  11.180  0.1076 -0.1856 -0.0538
 6156TIP3    H139883   2.572   5.020  11.181  0.1642 -0.1552  0.2846
 6156TIP3    H239884   2.553   5.146  11.264  1.6895  0.9457 -0.9850
 6157TIP3   OH239885   4.286   1.459  11.015  0.1422  0.0170 -0.1300
 6157TIP3    H139886   4.273   1.514  10.938  2.0976  0.7444  0.0122
 6157TIP3    H239887   4.318   1.375  10.980 -0.4920 -0.1984 -0.1989
 6158TIP3   OH239888   1.193   5.414  12.065 -0.0601  0.1235  0.6748
 6158TIP3    H139889   1.204   5.502  12.030  1.0306 -0.6675 -1.1803
 6158TIP3    H239890   1.167   5.361  11.989  0.5288 -1.3656  1.4528
 6159TIP3   OH239891   1.742   2.905  16.640 -0.1083 -0.5042  0.3884
 6159TIP3    H139892   1.761   2.918  16.732 -1.8661  0.4046  0.6643
 6159TIP3    H239893   1.732   2.993  16.604  2.3240 -0.7442 -1.1433
 6160TIP3   OH239894   1.681   5.754  13.675  0.4488  0.2444 -0.1344
 6160TIP3    H139895   1.775   5.766  13.680  0.2324  1.7747  1.0047
 6160TIP3    H239896   1.663   5.742  13.581  1.6932  0.5973 -0.4324
 6161TIP3   OH239897   5.477   3.901  16.677 -0.2536 -0.0428  0.4191
 6161TIP3    H139898   5.474   3.966  16.747 -1.1076  0.6080 -0.2127
 6161TIP3    H239899   5.448   3.820  16.719  0.4799  0.0404  1.1245
 6162TIP3   OH239900   2.642   2.311  16.615  0.6632 -0.3001 -0.7735
 6162TIP3    H139901   2.669   2.298  16.706  1.2599  0.1092 -0.8840
 6162TIP3    H239902   2.589   2.390  16.616  0.6113 -0.3344 -0.7733
 6163TIP3   OH239903   2.905   1.464   2.772 -0.5039  0.0893  0.6118
 6163TIP3    H139904   2.954   1.402   2.826  0.3122  0.7107  0.6066
 6163TIP3    H239905   2.813   1.449   2.795 -0.4236 -1.7960 -0.1202
 6164TIP3   OH239906   3.240   2.365  14.652  0.4639 -0.1732  0.3404
 6164TIP3    H139907   3.251   2.337  14.743  1.7376 -0.0544  0.2329
 6164TIP3    H239908   3.271   2.455  14.651  0.1456 -0.0703 -0.1487
 6165TIP3   OH239909   6.408   3.922  10.916 -0.0761 -0.3151 -0.3178
 6165TIP3    H139910   6.391   3.894  11.006  1.9018  0.1718  0.2565
 6165TIP3    H239911   6.349   3.996  10.902 -0.5244 -0.5058  0.5119
 6166TIP3   OH239912   2.689   5.792  15.253 -0.3019  0.7829  0.5733
 6166TIP3    H139913   2.751   5.860  15.228  1.5520 -0.5381  1.2991
 6166TIP3    H239914   2.633   5.779  15.176 -0.2120  2.5691  0.1808
 6167TIP3   OH239915   3.534   4.799  13.281 -0.2910 -0.5218 -0.1600
 6167TIP3    H139916   3.509   4.713  13.315 -0.4876 -1.2494 -2.0294
 6167TIP3    H239917   3.629   4.797  13.277 -0.2833 -0.5542  0.0253
 6168TIP3   OH239918   5.508   0.239  16.187  0.2323  0.5349 -0.1444
 6168TIP3    H139919   5.600   0.265  16.188  0.0789  1.1293  1.4468
 6168TIP3    H239920   5.509   0.144  16.202  0.5862  0.4809 -0.4969
 6169TIP3   OH239921   6.495   3.025  13.620  0.6244 -0.5397 -0.3365
 6169TIP3    H139922   6.446   3.023  13.538  0.2221  0.9074 -0.1630
 6169TIP3    H239923   6.584   3.049  13.594  0.4326  0.2004 -0.3459
 6170TIP3   OH239924   1.217   3.228   1.211  0.5758 -0.3225 -0.1203
 6170TIP3    H139925   1.128   3.192   1.206 -0.3080  1.4406  1.5154
 6170TIP3    H239926   1.274   3.151   1.206 -1.0522 -1.5706 -0.5143
 6171TIP3   OH239927   4.523   2.274   1.909 -0.0305 -1.1483 -0.3135
 6171TIP3    H139928   4.537   2.281   1.815  0.8879  0.2281 -0.1033
 6171TIP3    H239929   4.587   2.209   1.938 -1.7405 -3.2106 -0.8833
 6172TIP3   OH239930   2.190   3.208   2.908  0.1548 -0.5203  0.4839
 6172TIP3    H139931   2.182   3.282   2.848  3.0230 -1.4366 -1.1892
 6172TIP3    H239932   2.114   3.153   2.888  0.1008  0.0604 -1.0803
 6173TIP3   OH239933   0.644   3.121  16.059  0.0716  0.4041 -0.0008
 6173TIP3    H139934   0.554   3.093  16.078  0.0654  0.5488  0.1804
 6173TIP3    H239935   0.683   3.045  16.014  0.2916 -0.2049  1.1770
 6174TIP3   OH239936   6.013   5.626   5.312 -0.0759 -0.5785 -0.0316
 6174TIP3    H139937   5.971   5.630   5.398 -0.3314 -0.0491 -0.1826
 6174TIP3    H239938   6.038   5.534   5.303  0.3799 -0.5503  0.8124
 6175TIP3   OH239939   1.780   0.685   5.370  0.4300 -0.4873 -0.1511
 6175TIP3    H139940   1.688   0.665   5.350  0.6474 -1.4240 -0.2589
 6175TIP3    H239941   1.776   0.755   5.436 -0.3795 -1.2319  0.6103
 6176TIP3   OH239942   6.603   1.083   1.476 -0.3454 -0.2144 -0.1243
 6176TIP3    H139943   6.649   1.141   1.537 -0.0205 -0.0731 -0.4970
 6176TIP3    H239944   6.517   1.071   1.515  0.6892 -2.2651  1.7613
 6177TIP3   OH239945   2.690   3.430   2.656  0.3553 -0.5815 -0.3833
 6177TIP3    H139946   2.617   3.488   2.677  1.1314 -0.3979  2.1618
 6177TIP3    H239947   2.752   3.485   2.607  1.6197  1.2917  2.9623
 6178TIP3   OH239948   0.034   1.914  11.440  0.0054  0.1577  0.4362
 6178TIP3    H139949   0.094   1.989  11.443  2.3214 -1.4681 -1.0110
 6178TIP3    H239950   0.001   1.914  11.350 -0.1852 -0.4095  0.5047
 6179TIP3   OH239951   0.651   2.957  14.518  0.6053  0.0209  0.6858
 6179TIP3    H139952   0.616   2.887  14.573 -1.0009  0.4832  0.3052
 6179TIP3    H239953   0.709   2.911  14.456 -0.3967 -0.9962  0.4539
 6180TIP3   OH239954   0.727   6.423  15.336 -0.5289 -0.0965 -0.1298
 6180TIP3    H139955   0.807   6.374  15.355  0.9193  1.7436 -1.0626
 6180TIP3    H239956   0.669   6.405  15.410  0.4647 -2.0177  0.2453
 6181TIP3   OH239957   2.851   0.465   1.546 -0.6713  0.3997  0.1843
 6181TIP3    H139958   2.943   0.474   1.571 -0.3996  2.3923 -1.2094
 6181TIP3    H239959   2.820   0.556   1.536 -2.9509 -0.1991  1.1104
 6182TIP3   OH239960   0.819   0.958  13.488  0.0240 -0.0474 -0.0964
 6182TIP3    H139961   0.784   0.873  13.458 -0.6076 -0.0814  0.6989
 6182TIP3    H239962   0.869   0.937  13.566  0.1319  0.2756 -0.0801
 6183TIP3   OH239963   5.609   4.397   1.417  0.1369  0.0412  0.1369
 6183TIP3    H139964   5.574   4.338   1.485 -0.6929  0.0265 -0.2929
 6183TIP3    H239965   5.534   4.449   1.390  1.0215  1.9153  1.0913
 6184TIP3   OH239966   6.002   2.414  10.774 -0.4178  0.4912 -0.1501
 6184TIP3    H139967   5.996   2.423  10.869  0.9754 -0.7817  0.0937
 6184TIP3    H239968   5.937   2.475  10.740 -0.7813  1.1397  1.6107
 6185TIP3   OH239969   2.703   4.538   2.108  0.2053 -0.2441 -0.2089
 6185TIP3    H139970   2.744   4.618   2.141 -0.3722 -0.9147  2.2791
 6185TIP3    H239971   2.760   4.467   2.137 -0.6579 -0.9145 -0.1115
 6186TIP3   OH239972   2.950   1.714   2.707 -0.5210  0.0695 -0.1527
 6186TIP3    H139973   2.968   1.629   2.747 -0.8226  0.2693  0.4209
 6186TIP3    H239974   2.885   1.696   2.639  0.3230 -0.3402 -0.8679
 6187TIP3   OH239975   2.014   5.249   5.578  0.1777 -0.2643 -0.2496
 6187TIP3    H139976   2.033   5.159   5.551 -0.5267 -1.8509  3.8429
 6187TIP3    H239977   1.924   5.245   5.610 -0.6168  2.4995 -1.8653
 6188TIP3   OH239978   1.625   1.142  14.555 -0.6014  0.3248 -0.6622
 6188TIP3    H139979   1.570   1.094  14.494 -0.5622  1.3483 -1.5184
 6188TIP3    H239980   1.573   1.146  14.636 -0.8640 -0.5829 -0.7794
 6189TIP3   OH239981   5.955   3.069   4.876 -0.3752  0.3814 -0.4368
 6189TIP3    H139982   5.883   3.006   4.871 -0.7129  0.5011  1.9276
 6189TIP3    H239983   5.938   3.119   4.956  1.0684  2.0334 -1.0940
 6190TIP3   OH239984   6.062   2.739   4.067 -0.6263  0.4683  0.1368
 6190TIP3    H139985   6.094   2.680   3.999  1.3004  1.3759  0.1758
 6190TIP3    H239986   6.123   2.813   4.065 -1.1810  1.0481  2.0821
 6191TIP3   OH239987   1.139   4.113   0.833 -0.3423  0.1175  0.2788
 6191TIP3    H139988   1.103   4.174   0.769  1.2105  0.1576 -0.6134
 6191TIP3    H239989   1.064   4.086   0.886 -1.7571 -0.2895 -1.8368
 6192TIP3   OH239990   2.464   0.388  11.829  0.0265 -0.1931 -0.5539
 6192TIP3    H139991   2.547   0.364  11.790 -0.7014 -2.3834 -0.8709
 6192TIP3    H239992   2.458   0.483  11.817  3.9112  0.6868  2.4009
 6193TIP3   OH239993   2.100   4.324   3.270 -0.0336  0.0581 -0.3235
 6193TIP3    H139994   2.006   4.311   3.268 -0.4326  2.4612 -0.3923
 6193TIP3    H239995   2.126   4.326   3.178  0.2606 -1.4690 -0.2946
 6194TIP3   OH239996   6.211   4.759   5.425  0.3866  0.0616 -0.4872
 6194TIP3    H139997   6.137   4.798   5.378  0.6202 -1.2426 -2.0446
 6194TIP3    H239998   6.273   4.736   5.356  1.7217  0.0170  0.6911
 6195TIP3   OH239999   0.215   2.986  12.547  0.2976 -0.0393 -0.1557
 6195TIP3    H140000   0.301   3.028  12.543  0.3527  0.3587  2.8861
 6195TIP3    H240001   0.233   2.892  12.545  0.9317  0.0289  1.4968
 6196TIP3   OH240002   4.722   4.737   3.323 -0.0867  0.3002  0.3054
 6196TIP3    H140003   4.728   4.670   3.391 -0.1614  0.5772  0.5872
 6196TIP3    H240004   4.799   4.723   3.268 -1.0444 -1.2244 -0.7601
 6197TIP3   OH240005   4.926   1.216  15.647  0.2725  0.4878 -0.1472
 6197TIP3    H140006   4.972   1.197  15.729 -0.3747 -0.3497  0.0441
 6197TIP3    H240007   4.923   1.312  15.642 -1.1049  0.5980  1.6570
 6198TIP3   OH240008   0.996   4.721  17.248  0.1175 -0.5513 -0.3293
 6198TIP3    H140009   1.051   4.799  17.237  1.7470 -1.1676  2.5078
 6198TIP3    H240010   1.031   4.658  17.185 -1.1694  0.8639 -2.6108
 6199TIP3   OH240011   1.182   6.485   6.363 -0.3739  0.5331 -0.4116
 6199TIP3    H140012   1.270   6.453   6.380 -1.0617 -0.6468  1.2089
 6199TIP3    H240013   1.178   6.570   6.407 -0.3862  0.0560  0.5339
 6200TIP3   OH240014   5.895   3.714  11.225  0.3869  0.2109 -0.2192
 6200TIP3    H140015   5.960   3.696  11.157 -0.0799 -0.9777 -0.3750
 6200TIP3    H240016   5.919   3.656  11.298 -0.3271 -0.0408 -0.1760
 6201TIP3   OH240017   5.434   1.557  14.802  0.0293  0.3387  0.1740
 6201TIP3    H140018   5.513   1.532  14.755 -0.8098  0.2754 -1.2496
 6201TIP3    H240019   5.445   1.651  14.820  0.2457  0.4166 -0.3639
 6202TIP3   OH240020   1.305   1.021   4.970  0.0895  0.2015 -0.4935
 6202TIP3    H140021   1.359   1.040   5.047 -0.3651 -0.4081 -0.0145
 6202TIP3    H240022   1.364   0.974   4.910 -0.2021 -1.5990  0.5544
 6203TIP3   OH240023   0.993   0.374  14.188  0.0713  0.3372  0.4164
 6203TIP3    H140024   0.927   0.333  14.132  0.8169  0.8592 -0.9050
 6203TIP3    H240025   1.027   0.302  14.241 -0.8629 -0.1221  0.4193
 6204TIP3   OH240026   5.914   5.274   2.835 -0.1708  0.7494  0.0768
 6204TIP3    H140027   5.975   5.346   2.854 -0.3353  0.3730  2.3815
 6204TIP3    H240028   5.969   5.206   2.797  0.5608  1.0209  0.6148
 6205TIP3   OH240029   2.566   5.077   1.840  0.5849  0.3520  0.1001
 6205TIP3    H140030   2.619   5.145   1.798 -0.5620  0.2038 -1.6785
 6205TIP3    H240031   2.488   5.123   1.871  1.7064  0.5902  2.8112
 6206TIP3   OH240032   3.781   6.733  16.515  0.5288  0.4971  0.4368
 6206TIP3    H140033   3.855   6.773  16.563  0.2056  1.2026  0.3584
 6206TIP3    H240034   3.717   6.714  16.583 -0.3943  2.5134  0.2088
 6207TIP3   OH240035   3.399   1.265  12.381  0.4576  0.0144 -1.2514
 6207TIP3    H140036   3.356   1.317  12.449  0.4685 -1.1108 -0.3588
 6207TIP3    H240037   3.490   1.292  12.384  0.4104  0.1433 -0.9838
 6208TIP3   OH240038   5.863   4.308  14.119 -0.5282 -0.4416 -0.5209
 6208TIP3    H140039   5.820   4.301  14.034 -3.4231  2.1288  0.5223
 6208TIP3    H240040   5.884   4.401  14.127  1.2571 -0.9135  0.9154
 6209TIP3   OH240041   2.692   1.129   1.071  0.1961  0.1584 -0.0741
 6209TIP3    H140042   2.677   1.170   0.986 -1.7003  1.1060  0.6419
 6209TIP3    H240043   2.737   1.196   1.123  0.6007 -0.1021 -0.0925
 6210TIP3   OH240044   2.181   2.740  14.444 -0.0700 -0.1764 -0.4782
 6210TIP3    H140045   2.130   2.742  14.524  1.7220  0.8477  0.6909
 6210TIP3    H240046   2.117   2.717  14.376 -1.9831  0.6536  0.9395
 6211TIP3   OH240047   0.483   0.529  14.832  0.2241 -0.6640  0.4982
 6211TIP3    H140048   0.482   0.617  14.871  0.1664 -0.7624  0.7200
 6211TIP3    H240049   0.401   0.490  14.859 -0.4441 -0.2523 -0.8487
 6212TIP3   OH240050   2.502   0.869  16.788 -0.0703  0.0443 -0.4695
 6212TIP3    H140051   2.468   0.906  16.870  2.4713  0.8514  0.3339
 6212TIP3    H240052   2.561   0.937  16.754  2.0316 -1.8305 -0.8182
 6213TIP3   OH240053   0.464   4.152   4.230 -0.3942 -0.0887  1.1770
 6213TIP3    H140054   0.499   4.098   4.160 -0.0738  1.2321  0.2878
 6213TIP3    H240055   0.528   4.223   4.241 -0.8069  0.1449  2.3002
 6214TIP3   OH240056   0.356   3.905   5.608  0.0717 -0.5005 -0.2152
 6214TIP3    H140057   0.416   3.850   5.558  1.1792  0.7065 -0.2641
 6214TIP3    H240058   0.408   3.981   5.633 -1.4891  0.6855 -0.4127
 6215TIP3   OH240059   1.409   0.134  15.285 -0.2344  0.2251  0.5541
 6215TIP3    H140060   1.502   0.144  15.307 -0.0688 -0.1293  0.0268
 6215TIP3    H240061   1.403   0.156  15.193 -0.4353 -1.0620  0.2363
 6216TIP3   OH240062   3.022   1.152   3.154  0.2315 -0.0500  0.1223
 6216TIP3    H140063   3.034   1.208   3.230 -0.9451  1.4275 -0.7219
 6216TIP3    H240064   3.092   1.176   3.094  0.3415 -0.2351  0.1745
 6217TIP3   OH240065   5.174   5.517   0.983 -0.1624 -0.2447  0.3232
 6217TIP3    H140066   5.156   5.522   1.077 -1.5596  0.0598  0.0649
 6217TIP3    H240067   5.088   5.502   0.943  0.0422  1.7804 -1.0662
 6218TIP3   OH240068   3.797   6.158   0.638  0.0247  0.0581  0.5090
 6218TIP3    H140069   3.784   6.144   0.732 -1.3923  0.8719  0.4604
 6218TIP3    H240070   3.877   6.109   0.618  0.3207 -0.1955  2.1149
 6219TIP3   OH240071   5.557   3.701   6.017  0.1277  0.2754  0.0120
 6219TIP3    H140072   5.476   3.699   5.967  0.7003  1.6108 -1.0222
 6219TIP3    H240073   5.529   3.692   6.108 -1.0100 -1.1404 -0.4372
 6220TIP3   OH240074   4.687   4.113  10.688  0.2195 -0.3969  0.6451
 6220TIP3    H140075   4.620   4.046  10.705 -1.0633  0.3851 -1.0379
 6220TIP3    H240076   4.708   4.102  10.596 -0.7996  2.1528  0.0343
 6221TIP3   OH240077   5.089   4.987  12.276 -0.8867 -0.3589  0.8261
 6221TIP3    H140078   5.129   4.947  12.353 -0.1694  0.8640  1.1237
 6221TIP3    H240079   5.146   4.962  12.203 -1.5007 -1.4194  0.6881
 6222TIP3   OH240080   2.772   4.674  16.638 -0.4959 -0.6593 -0.0698
 6222TIP3    H140081   2.690   4.629  16.660 -1.7231  2.1169  1.6385
 6222TIP3    H240082   2.783   4.739  16.708  1.8285  0.7830 -1.6280
 6223TIP3   OH240083   4.115   0.470   5.957 -0.4145  0.1248 -0.4756
 6223TIP3    H140084   4.138   0.450   6.048 -3.6984 -1.8601  0.0843
 6223TIP3    H240085   4.057   0.546   5.963 -1.2584 -0.4755 -0.7656
 6224TIP3   OH240086   4.631   3.882  12.369  0.1938  0.1996 -0.0839
 6224TIP3    H140087   4.628   3.904  12.462 -0.2995 -0.1577 -0.0085
 6224TIP3    H240088   4.543   3.903  12.336 -0.1596 -1.1934 -0.0992
 6225TIP3   OH240089   3.602   0.521   2.112  0.3914  0.4446 -0.1335
 6225TIP3    H140090   3.533   0.562   2.059  0.2145  0.8068  0.3659
 6225TIP3    H240091   3.572   0.532   2.202  0.0523 -1.3149 -0.0011
 6226TIP3   OH240092   0.923   3.253   0.916 -0.0444  0.2142  0.5222
 6226TIP3    H140093   1.002   3.257   0.863  1.3886  0.0063  2.5446
 6226TIP3    H240094   0.885   3.167   0.897 -0.5369  0.8106 -1.4144
 6227TIP3   OH240095   5.087   2.283  15.377  0.6336 -0.2556 -0.7645
 6227TIP3    H140096   5.127   2.369  15.390  2.6650 -0.9441 -1.9635
 6227TIP3    H240097   5.006   2.302  15.328  1.2451  0.9446 -1.3650
 6228TIP3   OH240098   3.820   5.344   1.505 -0.1716  0.1362 -0.0070
 6228TIP3    H140099   3.911   5.330   1.529 -0.2927 -1.7231 -0.5004
 6228TIP3    H240100   3.813   5.310   1.415 -1.2497  0.6506 -0.1374
 6229TIP3   OH240101   0.088   5.496  13.383  0.1701  0.7256 -0.1680
 6229TIP3    H140102   0.004   5.455  13.402  0.7208 -0.0269  0.6917
 6229TIP3    H240103   0.153   5.429  13.404  0.9684  1.0554 -1.4730
 6230TIP3   OH240104   4.974   3.398   1.134  0.0838 -0.4014  0.2555
 6230TIP3    H140105   4.911   3.330   1.111  1.6487 -1.0790 -2.5033
 6230TIP3    H240106   5.058   3.351   1.141  1.4395  1.2083 -2.8671
 6231TIP3   OH240107   4.183   0.732   0.381  0.1577 -0.0239  0.6708
 6231TIP3    H140108   4.108   0.680   0.408  0.9493 -1.7246 -0.1943
 6231TIP3    H240109   4.184   0.807   0.440 -2.1402  0.0059  0.7444
 6232TIP3   OH240110   4.446   2.815   1.285 -0.2585  0.2146  0.1710
 6232TIP3    H140111   4.372   2.760   1.258 -0.6186  0.5434  0.4672
 6232TIP3    H240112   4.497   2.759   1.344  0.2857 -0.3528 -0.8036
 6233TIP3   OH240113   3.814   3.496  15.754  0.3775  0.2297  0.2331
 6233TIP3    H140114   3.747   3.438  15.717  0.6433  0.9800 -1.5386
 6233TIP3    H240115   3.803   3.578  15.705  2.7806  0.2648 -0.3374
 6234TIP3   OH240116   4.697   4.281  16.626 -0.0860  0.3797  0.1535
 6234TIP3    H140117   4.647   4.217  16.575  0.2629  1.4992 -1.7041
 6234TIP3    H240118   4.788   4.262  16.605  0.0297  1.2980 -0.1867
 6235TIP3   OH240119   5.488   1.516  11.571  0.6578 -0.4561 -0.2002
 6235TIP3    H140120   5.556   1.554  11.516  0.2851  0.3552 -0.1207
 6235TIP3    H240121   5.518   1.427  11.589  0.1051 -1.2683 -2.9171
 6236TIP3   OH240122   6.379   1.917   0.719  0.1379 -0.1352 -0.1169
 6236TIP3    H140123   6.407   1.988   0.662  0.5152  1.5953  2.0670
 6236TIP3    H240124   6.457   1.863   0.730 -0.5949 -1.9992 -3.1631
 6237TIP3   OH240125   5.093   3.391  12.464 -0.0916  0.4541  0.3586
 6237TIP3    H140126   5.001   3.371  12.447  0.1027 -0.9953  0.8352
 6237TIP3    H240127   5.132   3.402  12.377 -0.4408 -0.3389  0.0912
 6238TIP3   OH240128   4.985   5.417   0.127  0.3651 -0.4054 -0.0309
 6238TIP3    H140129   4.995   5.461   0.043  1.0147 -1.0895 -0.3172
 6238TIP3    H240130   4.966   5.488   0.189  0.8181  0.2067 -0.5886
 6239TIP3   OH240131   0.324   5.922  13.369  0.1151  0.2920 -0.1824
 6239TIP3    H140132   0.302   5.864  13.442 -1.0459  0.2163 -0.5618
 6239TIP3    H240133   0.298   6.010  13.399 -1.8609  0.0581 -1.0360
 6240TIP3   OH240134   1.571   0.847  11.516  0.0165  0.3050  0.6029
 6240TIP3    H140135   1.586   0.753  11.523 -2.5071 -0.2339 -0.0825
 6240TIP3    H240136   1.506   0.856  11.446 -0.4818  2.4794  1.2497
 6241TIP3   OH240137   5.524   0.727   4.907 -0.4095 -0.4487  0.5540
 6241TIP3    H140138   5.462   0.797   4.925 -0.9854 -1.2681  1.8690
 6241TIP3    H240139   5.606   0.772   4.888 -0.8957  0.5950  0.8715
 6242TIP3   OH240140   5.771   6.587   0.804  0.1352  0.6446  0.4587
 6242TIP3    H140141   5.849   6.598   0.750  0.7792  0.7972  1.3936
 6242TIP3    H240142   5.712   6.533   0.751  0.6578  0.9721 -0.4717
 6243TIP3   OH240143   1.751   1.266  16.990 -0.0568 -0.0786  0.2093
 6243TIP3    H140144   1.846   1.272  17.004  0.2070 -2.9328  0.2952
 6243TIP3    H240145   1.742   1.241  16.898 -0.9286  2.3783 -0.4537
 6244TIP3   OH240146   0.348   0.249   6.120 -0.0274  0.6882  0.0811
 6244TIP3    H140147   0.386   0.223   6.203  0.6923  0.9211 -0.1662
 6244TIP3    H240148   0.369   0.178   6.060 -1.3787  0.0678  0.3153
 6245TIP3   OH240149   2.909   3.385   5.871  0.2722 -0.0995  0.0108
 6245TIP3    H140150   2.980   3.330   5.904  1.4990  2.0613  1.1753
 6245TIP3    H240151   2.843   3.383   5.940  0.0464 -0.5810 -0.2173
 6246TIP3   OH240152   0.670   0.997  16.487 -0.1046  0.0067 -0.4766
 6246TIP3    H140153   0.637   0.936  16.554  0.2893 -0.4988 -0.7344
 6246TIP3    H240154   0.731   1.053  16.535 -0.3683  0.1171 -0.2642
 6247TIP3   OH240155   6.382   5.574   4.293  0.4156 -0.0292 -0.5183
 6247TIP3    H140156   6.342   5.643   4.345 -0.5984 -0.3064 -0.9053
 6247TIP3    H240157   6.358   5.493   4.338  0.1290 -0.2269 -1.0234
 6248TIP3   OH240158   1.927   0.573  13.070  0.1527 -0.8341  0.2775
 6248TIP3    H140159   1.863   0.589  13.139  0.2239 -1.3927  0.4757
 6248TIP3    H240160   1.951   0.660  13.038  2.8166 -0.2333  3.3758
 6249TIP3   OH240161   4.219   1.919   0.663  0.3101  0.6470 -0.4121
 6249TIP3    H140162   4.312   1.943   0.668  0.6397 -0.2142 -1.9889
 6249TIP3    H240163   4.212   1.838   0.713 -0.0255  1.7550  1.4380
 6250TIP3   OH240164   3.844   4.806   4.685 -0.0312  0.4347  0.6844
 6250TIP3    H140165   3.781   4.850   4.742  0.3682 -0.2996  1.7347
 6250TIP3    H240166   3.792   4.742   4.636 -0.2270  0.3190  1.0336
 6251TIP3   OH240167   4.955   6.124   4.756 -0.9174 -0.1321  0.3976
 6251TIP3    H140168   4.923   6.139   4.667 -0.2123 -0.2748  0.1211
 6251TIP3    H240169   5.019   6.193   4.771 -0.2817 -0.7148  0.4160
 6252TIP3   OH240170   2.784   0.710   2.108 -0.3859 -0.0822 -0.2816
 6252TIP3    H140171   2.821   0.716   2.196  1.5484  1.1695 -1.0981
 6252TIP3    H240172   2.714   0.775   2.107 -2.3526 -2.0677  1.1231
 6253TIP3   OH240173   2.498   3.563  13.211  0.4639  0.4407 -0.0899
 6253TIP3    H140174   2.509   3.588  13.303  0.9736  1.8405 -0.5056
 6253TIP3    H240175   2.571   3.504  13.193  1.2443  1.3447  0.0220
 6254TIP3   OH240176   4.498   4.662  12.693 -0.3682 -0.1471 -0.1192
 6254TIP3    H140177   4.466   4.699  12.775  0.1013 -1.5453  0.7204
 6254TIP3    H240178   4.591   4.646  12.708 -0.3243 -0.6328 -0.8424
 6255TIP3   OH240179   3.514   6.675  14.713 -0.2152 -0.6477  0.5915
 6255TIP3    H140180   3.500   6.689  14.807 -2.3575 -0.4577  0.3018
 6255TIP3    H240181   3.476   6.753  14.672  0.5099 -0.8240 -0.4474
 6256TIP3   OH240182   0.230   3.547  14.881 -0.2060 -0.3919 -0.3807
 6256TIP3    H140183   0.283   3.592  14.816 -1.4950 -1.5636 -2.3235
 6256TIP3    H240184   0.147   3.528  14.837 -0.8933 -1.8260  1.3777
 6257TIP3   OH240185   5.360   6.565   1.018 -0.2025  0.3798  0.1275
 6257TIP3    H140186   5.295   6.614   1.069 -2.2089  0.3819 -2.2850
 6257TIP3    H240187   5.373   6.617   0.939  2.3909  0.0742  0.2729
 6258TIP3   OH240188   4.695   2.433   4.898 -0.7470 -0.3909  0.1071
 6258TIP3    H140189   4.767   2.468   4.952 -1.3558  0.6472  0.2783
 6258TIP3    H240190   4.617   2.443   4.953 -1.0186 -1.6160 -0.0383
 6259TIP3   OH240191   4.042   1.089  15.436  0.3310 -0.0365  0.3443
 6259TIP3    H140192   3.999   1.047  15.362  1.1295 -1.7050  0.7601
 6259TIP3    H240193   4.121   1.037  15.450  0.2170  0.2458  2.3389
 6260TIP3   OH240194   2.177   1.210  16.087 -0.5443  0.1882  0.2711
 6260TIP3    H140195   2.205   1.219  15.996  0.4281 -1.4502  0.3574
 6260TIP3    H240196   2.084   1.189  16.081 -0.9811  2.0876 -0.2046
 6261TIP3   OH240197   4.928   2.290   0.095  0.4698  0.0007 -0.3673
 6261TIP3    H140198   4.895   2.303   0.006  0.9519 -0.9682 -0.7013
 6261TIP3    H240199   4.851   2.304   0.150 -0.9860 -3.5274 -1.2037
 6262TIP3   OH240200   5.280   0.673  11.906  0.0027  0.4597 -0.4938
 6262TIP3    H140201   5.277   0.585  11.869 -2.0230  0.6659 -0.9205
 6262TIP3    H240202   5.227   0.668  11.985  0.2986  1.1844 -0.2417
 6263TIP3   OH240203   3.067   5.083  11.661 -0.5578 -0.0717  0.6580
 6263TIP3    H140204   3.141   5.054  11.609 -1.5119 -0.4225 -0.5680
 6263TIP3    H240205   3.101   5.092  11.750  0.3753 -2.5132  0.6091
 6264TIP3   OH240206   3.466   1.040   5.670  0.2641  0.3202  0.4000
 6264TIP3    H140207   3.458   1.113   5.732  0.7787 -0.7559  1.7946
 6264TIP3    H240208   3.388   0.986   5.686 -1.7150  1.9402 -2.6674
 6265TIP3   OH240209   1.954   4.545   2.693  0.1306 -0.3955  0.4792
 6265TIP3    H140210   2.047   4.542   2.672  0.5499 -0.3026  2.1938
 6265TIP3    H240211   1.910   4.552   2.608  1.6005 -1.8370 -0.4589
 6266TIP3   OH240212   0.759   1.196   0.478  0.3352 -0.2542 -0.0739
 6266TIP3    H140213   0.714   1.120   0.443 -1.6966  0.8488 -0.0033
 6266TIP3    H240214   0.698   1.269   0.464  2.3186  1.4427 -0.4501
 6267TIP3   OH240215   1.884   0.884  13.206 -0.4731  0.2576  0.1860
 6267TIP3    H140216   1.949   0.896  13.275 -0.1070 -0.3955 -0.0455
 6267TIP3    H240217   1.831   0.810  13.235 -0.4980  0.1637 -0.0934
 6268TIP3   OH240218   2.145   2.520  11.536  0.2869  0.1717 -0.5972
 6268TIP3    H140219   2.202   2.476  11.599  0.7214 -0.0918 -1.1687
 6268TIP3    H240220   2.204   2.549  11.467 -0.5375 -2.2540 -2.4467
 6269TIP3   OH240221   4.169   5.611   4.121 -0.0195  0.6497  0.3261
 6269TIP3    H140222   4.253   5.573   4.146 -0.3837 -0.0521  0.5085
 6269TIP3    H240223   4.104   5.552   4.159 -0.6102 -0.2369 -1.9017
 6270TIP3   OH240224   3.161   2.774  15.160 -0.1981 -0.2341 -0.1479
 6270TIP3    H140225   3.140   2.835  15.090  0.1459 -0.3539 -0.3598
 6270TIP3    H240226   3.079   2.728  15.177 -0.9033  1.4098  1.1548
 6271TIP3   OH240227   6.708   1.942   1.688 -0.3697  0.0191 -0.0393
 6271TIP3    H140228   6.801   1.920   1.698 -0.4716 -0.5770 -0.3397
 6271TIP3    H240229   6.700   2.030   1.724 -0.1500 -0.8648  2.4416
 6272TIP3   OH240230   4.822   2.322  16.659 -0.3572 -0.4089  0.0437
 6272TIP3    H140231   4.837   2.329  16.564  1.7850 -0.9686  0.2853
 6272TIP3    H240232   4.860   2.402  16.695 -0.5943 -0.4976  0.4863
 6273TIP3   OH240233   6.197   4.816   0.350 -0.7643  0.1801  0.0657
 6273TIP3    H140234   6.245   4.784   0.427 -0.5367  0.6871  0.1404
 6273TIP3    H240235   6.192   4.910   0.363  0.1814  0.4062 -1.0408
 6274TIP3   OH240236   3.530   3.265   5.822 -0.1056  0.8946 -0.1199
 6274TIP3    H140237   3.491   3.195   5.873 -2.4211  1.4448 -0.9970
 6274TIP3    H240238   3.590   3.309   5.882 -0.9362  0.0661  1.3628
 6275TIP3   OH240239   4.093   5.570  10.799  0.7345 -0.2217 -0.3616
 6275TIP3    H140240   4.153   5.498  10.821  0.1744 -0.2812  1.0496
 6275TIP3    H240241   4.009   5.526  10.786  0.1324  0.2587  1.6323
 6276TIP3   OH240242   5.892   4.734  17.185  0.4581  0.3707 -0.2805
 6276TIP3    H140243   5.975   4.766  17.221  0.1480  1.6353 -0.6522
 6276TIP3    H240244   5.825   4.773  17.241  0.1078 -2.2155  1.2723
 6277TIP3   OH240245   3.999   2.372  12.786 -0.2943 -1.1431  0.5195
 6277TIP3    H140246   4.092   2.374  12.810  0.0393  0.9601 -0.7119
 6277TIP3    H240247   3.957   2.429  12.851 -0.4566 -0.7789  0.0954
 6278TIP3   OH240248   5.461   5.546   4.205 -0.3511  0.1841 -0.3839
 6278TIP3    H140249   5.446   5.489   4.281  0.7083  1.0235  0.4732
 6278TIP3    H240250   5.524   5.611   4.235 -2.0297  2.2501 -1.1354
 6279TIP3   OH240251   2.752   5.314   3.309  0.1577 -0.2176 -0.0027
 6279TIP3    H140252   2.669   5.326   3.354  0.7468  0.4178  0.9516
 6279TIP3    H240253   2.802   5.256   3.366  0.2764 -0.8142 -0.7037
 6280TIP3   OH240254   0.386   4.179   2.103 -0.2655 -0.1343  0.0666
 6280TIP3    H140255   0.385   4.269   2.136 -0.0064  0.5118 -1.6191
 6280TIP3    H240256   0.325   4.179   2.030 -0.6275 -1.4692  0.3476
 6281TIP3   OH240257   1.632   2.461  11.440  0.7525 -0.5991 -0.6928
 6281TIP3    H140258   1.631   2.470  11.536 -0.0518  1.1297 -0.8263
 6281TIP3    H240259   1.724   2.453  11.418  0.8884 -2.0621  0.2939
 6282TIP3   OH240260   1.897   4.995  14.981 -0.0566 -0.3585  0.5121
 6282TIP3    H140261   1.888   5.089  14.966 -2.1058 -0.6592 -0.4999
 6282TIP3    H240262   1.813   4.958  14.952  0.8607 -2.5480  0.4586
 6283TIP3   OH240263   5.239   5.607   5.316 -0.3777 -0.1301 -0.1277
 6283TIP3    H140264   5.155   5.641   5.284  0.7094 -0.2592 -3.4827
 6283TIP3    H240265   5.294   5.601   5.238  1.9091 -2.6637  1.4934
 6284TIP3   OH240266   1.377   4.400   5.964 -0.5958 -0.0346  0.0432
 6284TIP3    H140267   1.356   4.312   5.996  0.8608 -0.2281  0.5762
 6284TIP3    H240268   1.439   4.434   6.029 -0.7283  1.1786 -0.4474
 6285TIP3   OH240269   5.230   1.626  11.273  0.2112 -0.2783 -0.3118
 6285TIP3    H140270   5.318   1.598  11.246  0.6181  1.6281 -1.1525
 6285TIP3    H240271   5.197   1.675  11.198 -0.7757  0.7177  0.7409
 6286TIP3   OH240272   0.377   4.756  13.950 -0.4061  0.4892 -0.1499
 6286TIP3    H140273   0.330   4.736  14.031  1.4688 -0.0435  0.8827
 6286TIP3    H240274   0.459   4.707  13.957 -0.8997 -1.0050 -3.2038
 6287TIP3   OH240275   0.302   1.938   4.515 -0.0925  0.1305 -0.1849
 6287TIP3    H140276   0.348   2.014   4.481  1.0663  0.0032  1.0043
 6287TIP3    H240277   0.366   1.895   4.572 -2.1264  0.9328  2.9712
 6288TIP3   OH240278   4.592   1.909   2.139 -0.0561  0.3067 -0.6303
 6288TIP3    H140279   4.534   1.937   2.210 -1.0323  2.4007 -2.1587
 6288TIP3    H240280   4.552   1.828   2.107 -1.0411  0.6853 -0.4003
 6289TIP3   OH240281   4.524   3.072  12.812  1.0131  0.2682  0.3213
 6289TIP3    H140282   4.602   3.122  12.835  1.9610 -0.1819 -1.7014
 6289TIP3    H240283   4.493   3.110  12.730  0.1966 -0.7467  0.1271
 6290TIP3   OH240284   6.776   0.222  12.473  0.3065 -0.5766 -0.2478
 6290TIP3    H140285   6.824   0.165  12.412  0.8307  0.4252 -0.8065
 6290TIP3    H240286   6.821   0.306  12.467  0.7896 -0.6179  2.0491
 6291TIP3   OH240287   0.327   6.618  12.642  0.0413  0.6780 -0.5602
 6291TIP3    H140288   0.284   6.536  12.663 -0.8250  1.5582  1.3792
 6291TIP3    H240289   0.393   6.629  12.711  1.8100  0.5160 -2.1285
 6292TIP3   OH240290   0.143   0.456  13.269 -0.5327 -0.2334  0.2864
 6292TIP3    H140291   0.216   0.469  13.209  0.2769  0.4040  1.3631
 6292TIP3    H240292   0.110   0.368  13.248  1.7197 -1.3323  0.9788
 6293TIP3   OH240293   3.072   2.448   2.452  0.2169  0.2682 -0.6783
 6293TIP3    H140294   3.002   2.511   2.471 -0.6558 -1.4876  2.7293
 6293TIP3    H240295   3.143   2.472   2.511 -0.4957 -2.3303  1.4284
 6294TIP3   OH240296   0.494   5.725   1.594  0.3985 -0.5186 -0.2367
 6294TIP3    H140297   0.489   5.804   1.648  3.2040  0.6775 -1.4849
 6294TIP3    H240298   0.428   5.737   1.526  1.8530  1.6676 -1.3728
 6295TIP3   OH240299   6.106   4.493   1.172 -0.8070  0.0294 -0.0195
 6295TIP3    H140300   6.016   4.481   1.200 -1.0440  0.5521 -0.5429
 6295TIP3    H240301   6.141   4.560   1.230 -1.0939  0.6238 -0.5247
 6296TIP3   OH240302   5.088   6.020  15.257  0.2396  0.2883  0.0863
 6296TIP3    H140303   5.105   6.028  15.163  0.2669 -0.2876  0.0394
 6296TIP3    H240304   5.150   5.955  15.288 -1.5019 -1.5058  0.0007
 6297TIP3   OH240305   0.789   4.197  16.931  0.7595  0.4821 -0.6854
 6297TIP3    H140306   0.721   4.139  16.896  0.7425 -0.3039  0.5759
 6297TIP3    H240307   0.741   4.270  16.969  0.6543  0.2962 -0.4562
 6298TIP3   OH240308   3.587   2.009  11.798  0.9860 -0.1248  0.6730
 6298TIP3    H140309   3.593   1.925  11.752  0.8033 -1.5308  3.0294
 6298TIP3    H240310   3.498   2.039  11.781  1.4213  0.2536 -1.1760
 6299TIP3   OH240311   4.645   5.465  15.130  0.0397 -0.2951  0.1502
 6299TIP3    H140312   4.592   5.403  15.179 -0.3042 -0.0783  0.0534
 6299TIP3    H240313   4.712   5.411  15.088 -0.6435 -0.6861 -0.4550
 6300TIP3   OH240314   5.277   2.332  12.264  0.1660  0.5159 -0.4002
 6300TIP3    H140315   5.242   2.279  12.193  0.4874  0.5121 -0.5561
 6300TIP3    H240316   5.301   2.269  12.332 -3.0013  0.6499  1.0469
 6301TIP3   OH240317   0.609   1.192  11.483 -0.6120  0.1928 -0.1129
 6301TIP3    H140318   0.586   1.123  11.421 -0.0327 -0.7153  0.6497
 6301TIP3    H240319   0.531   1.201  11.539 -0.9222  0.6138 -0.6031
 6302TIP3   OH240320   2.646   2.191  12.728 -0.0226  0.5544  0.2586
 6302TIP3    H140321   2.738   2.164  12.730  0.0897  0.9429  0.3789
 6302TIP3    H240322   2.646   2.279  12.766 -0.6220  0.0546  1.4598
 6303TIP3   OH240323   3.849   5.854  14.175 -0.1307  0.3323 -0.2030
 6303TIP3    H140324   3.865   5.914  14.248 -0.6615 -1.1646  1.2062
 6303TIP3    H240325   3.931   5.852  14.126  0.6671  0.3682  1.1129
 6304TIP3   OH240326   5.176   2.182  16.382 -0.6137 -0.4799  0.8046
 6304TIP3    H140327   5.195   2.100  16.337  0.6972  0.8415 -1.2730
 6304TIP3    H240328   5.240   2.187  16.452 -0.0373 -0.7907  0.3080
 6305TIP3   OH240329   6.693   6.560   6.394  0.1401  0.0755 -0.2479
 6305TIP3    H140330   6.646   6.478   6.377 -0.5842 -0.4508  3.4064
 6305TIP3    H240331   6.762   6.535   6.456  1.5547  1.8427 -1.0389
 6306TIP3   OH240332   4.927   2.117   2.754 -1.0120 -0.3374 -0.0074
 6306TIP3    H140333   5.022   2.125   2.748 -0.9531 -0.8685  0.1922
 6306TIP3    H240334   4.912   2.033   2.798 -1.5826 -0.6484 -0.7671
 6307TIP3   OH240335   2.084   5.800   1.195 -0.3957  0.4277  0.3286
 6307TIP3    H140336   2.156   5.738   1.205 -0.8777  0.0269  1.5368
 6307TIP3    H240337   2.124   5.878   1.155  0.6616  0.1433  0.8003
 6308TIP3   OH240338   0.074   0.457   1.929 -0.3656  0.2827 -0.3121
 6308TIP3    H140339   0.072   0.365   1.955 -3.1177  0.0014 -1.1576
 6308TIP3    H240340   0.068   0.506   2.011 -2.1223 -0.4146  0.0226
 6309TIP3   OH240341   3.074   5.219   3.065  0.5456  0.2896  0.5005
 6309TIP3    H140342   3.084   5.275   3.142 -0.1652  1.6408 -0.3563
 6309TIP3    H240343   3.093   5.276   2.991  0.1966 -0.7217 -0.3910
 6310TIP3   OH240344   3.774   2.337   4.199 -0.4695  0.1805  0.4997
 6310TIP3    H140345   3.731   2.416   4.230  1.7509  2.1304 -1.0650
 6310TIP3    H240346   3.711   2.296   4.139 -0.6006  2.4421 -1.0173
 6311TIP3   OH240347   5.769   5.414  12.624 -0.0272 -0.0715  0.8026
 6311TIP3    H140348   5.700   5.422  12.558  1.1684 -2.1361 -0.8347
 6311TIP3    H240349   5.811   5.500  12.625 -0.5604  0.2352 -0.6263
 6312TIP3   OH240350   0.421   3.324   3.533  0.5256 -0.0541 -0.1549
 6312TIP3    H140351   0.493   3.291   3.586 -0.0236 -2.6462 -0.8887
 6312TIP3    H240352   0.346   3.324   3.592  0.6521  0.5844  0.0190
 6313TIP3   OH240353   4.873   2.775   1.395  0.2198 -0.1261 -0.3488
 6313TIP3    H140354   4.797   2.723   1.368  0.0577  0.0090 -0.1596
 6313TIP3    H240355   4.836   2.841   1.454  0.4361  0.1471 -0.5202
 6314TIP3   OH240356   3.629   0.797   1.372  0.1608 -0.1429 -0.0951
 6314TIP3    H140357   3.635   0.738   1.447  0.7259 -0.5884 -0.4775
 6314TIP3    H240358   3.696   0.765   1.311  0.6010  0.9867 -0.2453
 6315TIP3   OH240359   6.524   1.624  12.486 -0.1140  0.5787  0.0677
 6315TIP3    H140360   6.503   1.713  12.513  0.2102  0.2403  1.5449
 6315TIP3    H240361   6.616   1.628  12.458  0.2285  0.5331  1.1226
 6316TIP3   OH240362   6.423   6.391   3.066  0.1069 -0.4074 -0.5948
 6316TIP3    H140363   6.348   6.356   3.017 -0.0150 -1.4240  0.2688
 6316TIP3    H240364   6.438   6.478   3.029 -0.4466 -0.8465 -1.9116
 6317TIP3   OH240365   2.209   1.354   5.774 -0.3653  0.0865 -0.8007
 6317TIP3    H140366   2.128   1.404   5.783 -0.3668  0.0727 -0.7351
 6317TIP3    H240367   2.215   1.304   5.855 -0.9912 -0.9425 -1.3617
 6318TIP3   OH240368   3.194   3.092  11.438  0.1430 -0.0797  0.0495
 6318TIP3    H140369   3.154   3.017  11.394 -0.7751  0.5741 -0.2421
 6318TIP3    H240370   3.204   3.064  11.529 -1.8508  0.0715  0.3505
 6319TIP3   OH240371   5.866   1.835   5.631 -0.0864  0.0126  0.0291
 6319TIP3    H140372   5.861   1.825   5.726  0.5718 -0.1534  0.0522
 6319TIP3    H240373   5.822   1.757   5.596 -0.7134  0.2850  0.1869
 6320TIP3   OH240374   6.089   0.807   1.881 -0.1478 -0.2168  0.2439
 6320TIP3    H140375   6.070   0.723   1.922 -1.5599 -1.7571 -3.1999
 6320TIP3    H240376   6.119   0.785   1.793  1.9319  2.8703 -0.0060
 6321TIP3   OH240377   5.697   2.326   6.052  0.2075  0.3444 -0.0753
 6321TIP3    H140378   5.767   2.263   6.072 -0.2517 -0.5033 -1.0673
 6321TIP3    H240379   5.643   2.328   6.131 -0.5602 -1.5827 -0.4990
 6322TIP3   OH240380   1.856   3.433  13.443 -0.4411  0.1248  0.8602
 6322TIP3    H140381   1.800   3.508  13.422 -0.2250  0.4261  1.3680
 6322TIP3    H240382   1.794   3.366  13.472 -0.6387  0.0861  0.3686
 6323TIP3   OH240383   2.763   0.408  12.953  0.3649  0.1474  1.1419
 6323TIP3    H140384   2.836   0.347  12.966  0.2538  0.0488  1.3084
 6323TIP3    H240385   2.729   0.386  12.867  0.7249  0.3981  0.9324
 6324TIP3   OH240386   4.613   1.953  11.853 -0.8997  0.1581  0.3979
 6324TIP3    H140387   4.677   1.900  11.901 -0.4527 -0.5885 -0.9853
 6324TIP3    H240388   4.623   2.040  11.890  0.9675  0.0776  0.2096
 6325TIP3   OH240389   0.757   5.917  17.050  0.0898 -0.2301 -0.1456
 6325TIP3    H140390   0.795   5.840  17.092  0.9669 -0.7779 -1.8603
 6325TIP3    H240391   0.734   5.887  16.962 -1.7385  0.8633 -0.0711
 6326TIP3   OH240392   0.403   6.768   6.287 -0.5161  0.1693  0.4733
 6326TIP3    H140393   0.386   6.684   6.329  2.5627 -1.6875 -1.6189
 6326TIP3    H240394   0.363   6.761   6.200  0.8820  0.2771 -0.2094
 6327TIP3   OH240395   0.960   2.095   0.912  0.1005  0.5625 -0.7883
 6327TIP3    H140396   0.958   2.157   0.839  0.3534  1.3017 -0.1853
 6327TIP3    H240397   0.873   2.056   0.913 -0.2709  1.3568 -0.8162
 6328TIP3   OH240398   2.142   4.957  12.184 -0.0535 -0.4940 -0.5415
 6328TIP3    H140399   2.188   5.032  12.221 -0.7005 -0.4061  0.1047
 6328TIP3    H240400   2.195   4.881  12.210 -0.8163 -0.4915  1.1303
 6329TIP3   OH240401   5.393   4.269  12.576 -0.6784  0.2158  0.2454
 6329TIP3    H140402   5.353   4.211  12.511  1.0773 -2.7343  1.6081
 6329TIP3    H240403   5.462   4.316  12.527 -3.8372  3.5338 -1.5309
 6330TIP3   OH240404   3.916   6.091  11.483  0.0015  0.1077  0.2283
 6330TIP3    H140405   3.885   6.092  11.574  0.2763  2.0427  0.3533
 6330TIP3    H240406   3.983   6.159  11.481 -0.2266  0.3104 -1.5003
 6331TIP3   OH240407   6.525   6.389  13.014 -0.0026 -0.7900 -0.2401
 6331TIP3    H140408   6.473   6.469  13.009  0.9190 -0.1604 -0.0153
 6331TIP3    H240409   6.467   6.326  13.057 -0.2115  0.2277  1.0490
 6332TIP3   OH240410   5.409   2.023   3.867  0.5500  0.1471 -0.3032
 6332TIP3    H140411   5.393   1.945   3.920  0.0843 -0.7246 -1.6423
 6332TIP3    H240412   5.333   2.079   3.882  0.2426 -0.2599 -0.3120
 6333TIP3   OH240413   1.190   6.579   1.869 -0.0036 -0.1494 -0.1028
 6333TIP3    H140414   1.203   6.620   1.955  1.2720 -0.8762  0.0713
 6333TIP3    H240415   1.243   6.632   1.809 -1.3709  0.7294 -0.5914
 6334TIP3   OH240416   6.733   0.637  12.334 -0.2152 -0.0441  0.4895
 6334TIP3    H140417   6.653   0.690  12.330 -0.4225 -0.3209  0.8383
 6334TIP3    H240418   6.713   0.558  12.284  0.7739  1.0448 -1.7248
 6335TIP3   OH240419   6.301   0.423   0.439 -0.0136 -0.0815  0.0828
 6335TIP3    H140420   6.242   0.368   0.386  0.5539 -0.2819 -0.3599
 6335TIP3    H240421   6.287   0.512   0.407  0.6671 -0.2566 -0.7665
 6336TIP3   OH240422   3.247   0.814  12.347  0.1712  0.5059 -0.3497
 6336TIP3    H140423   3.263   0.721  12.333 -1.3412  0.0322  0.7172
 6336TIP3    H240424   3.175   0.835  12.287 -1.9911  0.0160  1.8872
 6337TIP3   OH240425   6.768   4.396  15.606 -0.4080 -0.6156 -0.4368
 6337TIP3    H140426   6.863   4.398  15.614 -0.3113  1.5414 -1.2772
 6337TIP3    H240427   6.737   4.380  15.695  0.7341 -0.8874 -0.0674
 6338TIP3   OH240428   0.669   2.134   2.401  0.7011  0.1702 -0.3190
 6338TIP3    H140429   0.605   2.205   2.404  0.2228 -0.0390 -2.8946
 6338TIP3    H240430   0.685   2.121   2.307  1.8223 -2.1923  0.1360
 6339TIP3   OH240431   5.773   1.256   2.228 -0.3260  0.0186 -0.3983
 6339TIP3    H140432   5.868   1.261   2.217  0.2224 -4.9699  0.0626
 6339TIP3    H240433   5.739   1.241   2.140 -0.5835  0.4640 -0.3805
 6340TIP3   OH240434   5.768   2.952   3.068  0.0692  0.0882  0.3002
 6340TIP3    H140435   5.804   2.876   3.115  2.7388  1.2086  0.2431
 6340TIP3    H240436   5.753   3.017   3.136 -0.6883  0.0698  0.1554
 6341TIP3   OH240437   6.633   3.329   1.279  0.1224 -0.7125  0.6623
 6341TIP3    H140438   6.545   3.342   1.316 -0.3764 -1.0970 -0.3430
 6341TIP3    H240439   6.684   3.402   1.311 -1.2530  0.9763 -0.7888
 6342TIP3   OH240440   5.023   1.585  16.193  0.1995 -0.4152 -0.0827
 6342TIP3    H140441   5.009   1.527  16.268 -0.4813  0.7374  0.7279
 6342TIP3    H240442   4.989   1.670  16.223  0.5904  0.2419 -1.4480
 6343TIP3   OH240443   4.728   1.041  12.211 -0.1800  0.7510 -0.4611
 6343TIP3    H140444   4.670   1.008  12.280 -2.3673  2.1000 -1.5316
 6343TIP3    H240445   4.726   1.136  12.222  1.0129  0.8751 -1.1980
 6344TIP3   OH240446   1.816   5.228   0.823 -0.2362 -0.0307 -0.3886
 6344TIP3    H140447   1.885   5.183   0.872  1.3252  2.5182 -0.0795
 6344TIP3    H240448   1.854   5.242   0.736 -0.4356  1.1950 -0.2877
 6345TIP3   OH240449   3.499   1.890   2.795 -0.5076  0.0112  0.0515
 6345TIP3    H140450   3.582   1.873   2.841 -1.1574 -0.0238  1.2356
 6345TIP3    H240451   3.433   1.844   2.847 -1.5852  1.8822  0.4034
 6346TIP3   OH240452   4.716   5.152   2.472 -0.1639 -0.5144  0.4697
 6346TIP3    H140453   4.767   5.228   2.443  1.3818 -1.6996 -0.0709
 6346TIP3    H240454   4.717   5.093   2.397 -1.1837 -1.1559  0.9513
 6347TIP3   OH240455   5.762   0.279   2.628 -0.5582 -0.3606 -0.3330
 6347TIP3    H140456   5.685   0.316   2.670  0.4728  0.8183  0.5803
 6347TIP3    H240457   5.761   0.187   2.652 -1.7606 -0.4062 -0.4888
 6348TIP3   OH240458   0.681   2.257  13.382  0.7895  0.7274 -0.4779
 6348TIP3    H140459   0.657   2.174  13.422  2.1911 -0.5577 -2.1352
 6348TIP3    H240460   0.758   2.287  13.430  1.9202 -0.3531 -1.5436
 6349TIP3   OH240461   2.726   5.584   3.546  0.0198  0.1661  0.2999
 6349TIP3    H140462   2.693   5.541   3.468  1.4882 -1.2298  0.4026
 6349TIP3    H240463   2.675   5.665   3.553 -1.5184 -0.6614 -0.9456
 6350TIP3   OH240464   1.854   1.810  13.636  0.1392 -0.3946  0.4136
 6350TIP3    H140465   1.768   1.766  13.639  0.2709 -0.6164  1.1750
 6350TIP3    H240466   1.878   1.821  13.728  0.1397  1.2386  0.2453
 6351TIP3   OH240467   2.824   1.623   5.749  0.1016  0.0410  0.0398
 6351TIP3    H140468   2.864   1.692   5.698  1.0569 -0.9545 -0.6111
 6351TIP3    H240469   2.894   1.591   5.806 -0.6004  0.2804  1.0657
 6352TIP3   OH240470   5.137   5.304  17.101 -0.0858  0.7311  0.6181
 6352TIP3    H140471   5.082   5.245  17.152  1.0690  0.5398  1.7278
 6352TIP3    H240472   5.083   5.381  17.086 -0.8473  0.3184  1.1723
 6353TIP3   OH240473   1.180   0.942  13.618  0.4328 -0.2786 -0.3963
 6353TIP3    H140474   1.092   0.905  13.621  1.1707 -2.1680  0.0693
 6353TIP3    H240475   1.168   1.036  13.623 -1.6422 -0.3572 -2.2231
 6354TIP3   OH240476   3.820   2.382  12.573  0.2136  0.2736 -0.0184
 6354TIP3    H140477   3.823   2.303  12.520 -2.6070 -0.8811  1.3733
 6354TIP3    H240478   3.880   2.364  12.646 -0.2287 -0.5152  0.1641
 6355TIP3   OH240479   2.500   6.053  12.076  0.1505 -0.1402 -0.2887
 6355TIP3    H140480   2.591   6.079  12.063  0.4546 -1.3806 -0.8139
 6355TIP3    H240481   2.468   6.034  11.988 -1.4637  2.8143 -0.4414
 6356TIP3   OH240482   2.921   1.917   3.909  0.4260  0.5363  0.0533
 6356TIP3    H140483   2.981   1.849   3.877  0.1064  1.8796 -3.8685
 6356TIP3    H240484   2.836   1.894   3.871 -0.5571  1.2179  1.7153
 6357TIP3   OH240485   6.664   2.903   1.773 -0.4335  0.0275 -0.4334
 6357TIP3    H140486   6.627   2.924   1.687  0.0034 -0.7485 -0.8165
 6357TIP3    H240487   6.756   2.926   1.766 -0.6643  1.2382  0.2773
 6358TIP3   OH240488   6.103   2.692  11.793 -0.4747  0.2325 -0.1640
 6358TIP3    H140489   6.113   2.724  11.703  0.7985  2.4123  0.6636
 6358TIP3    H240490   6.193   2.680  11.824 -0.8680  0.5137  1.1373
 6359TIP3   OH240491   2.737   1.203   3.003 -0.7143 -0.0451 -0.0154
 6359TIP3    H140492   2.831   1.207   3.022 -0.5725  0.9707 -0.8356
 6359TIP3    H240493   2.732   1.170   2.913 -1.1923 -0.7660  0.2583
 6360TIP3   OH240494   6.738   5.793  13.224 -0.0652  0.2283  0.4099
 6360TIP3    H140495   6.822   5.756  13.198 -0.1740  1.0069 -1.1472
 6360TIP3    H240496   6.756   5.885  13.244 -0.5391  0.3936  0.1005
 6361TIP3   OH240497   2.571   3.259   2.057 -0.3811 -0.3428 -0.4495
 6361TIP3    H140498   2.576   3.190   2.123  0.2179 -0.1397 -0.2796
 6361TIP3    H240499   2.486   3.301   2.073 -0.9122 -1.2437 -0.7737
 6362TIP3   OH240500   1.569   6.083  14.423 -0.0555 -0.4191  0.1326
 6362TIP3    H140501   1.605   6.044  14.344 -0.5896 -0.1670 -0.2399
 6362TIP3    H240502   1.607   6.032  14.495  0.5333 -0.5611 -0.2771
 6363TIP3   OH240503   0.927   6.561  14.274 -0.4596 -0.4159  0.4269
 6363TIP3    H140504   0.937   6.492  14.208 -0.5352  0.4695 -0.5378
 6363TIP3    H240505   0.887   6.516  14.349  1.4678 -1.8613  0.6517
 6364TIP3   OH240506   0.426   3.015   3.791  0.7355 -0.2881  0.0464
 6364TIP3    H140507   0.422   2.986   3.700 -0.9328  0.0506 -0.0110
 6364TIP3    H240508   0.371   3.093   3.794  1.0134 -0.1183  1.2962
 6365TIP3   OH240509   5.111   5.269  12.345 -0.2002  0.0489  0.1276
 6365TIP3    H140510   5.083   5.186  12.306 -1.2742  0.0406  0.8863
 6365TIP3    H240511   5.176   5.244  12.411  0.8270 -0.0222 -0.8771
 6366TIP3   OH240512   1.971   4.695   1.427  0.1338  0.3194 -0.0342
 6366TIP3    H140513   2.021   4.614   1.421  0.1960  0.2470  1.2011
 6366TIP3    H240514   1.920   4.698   1.346  1.2005 -0.2190 -0.7530
 6367TIP3   OH240515   1.481   2.330  13.005  0.1239  0.7594 -0.4262
 6367TIP3    H140516   1.560   2.284  13.034 -0.1288  1.6568  1.9270
 6367TIP3    H240517   1.447   2.277  12.933  0.8931 -1.6600  0.8751
 6368TIP3   OH240518   0.182   2.370   0.748 -0.1637  0.2612  0.0480
 6368TIP3    H140519   0.160   2.462   0.738 -0.5645 -0.0234 -2.0429
 6368TIP3    H240520   0.248   2.353   0.681  1.3302 -0.5672  1.6367
 6369TIP3   OH240521   3.113   5.691   2.078 -0.2591 -0.7524 -0.5128
 6369TIP3    H140522   3.029   5.663   2.115 -0.9517  1.6958 -0.1035
 6369TIP3    H240523   3.173   5.693   2.153  0.3301 -2.7842 -0.8512
 6370TIP3   OH240524   1.866   0.097   4.567 -0.0169 -0.5973 -0.3365
 6370TIP3    H140525   1.909   0.047   4.498  1.2752 -1.5924  1.1423
 6370TIP3    H240526   1.897   0.187   4.554 -0.6435 -0.5407 -1.6692
 6371TIP3   OH240527   6.217   0.394  16.490 -0.3072 -0.3519 -0.3784
 6371TIP3    H140528   6.306   0.359  16.488 -0.4112 -0.5939 -2.1215
 6371TIP3    H240529   6.220   0.464  16.556  0.8805 -1.0635  0.3552
 6372TIP3   OH240530   5.417   3.639   3.182  0.2185  0.6575 -0.1697
 6372TIP3    H140531   5.454   3.651   3.094  1.4867 -2.6951 -0.2525
 6372TIP3    H240532   5.483   3.674   3.241  0.4252  0.8540 -0.5179
 6373TIP3   OH240533   3.335   1.923  15.878  0.1373 -0.3722  0.3981
 6373TIP3    H140534   3.300   1.859  15.816 -0.5944 -0.6985  1.1321
 6373TIP3    H240535   3.291   2.005  15.856  0.7347 -0.2180 -0.2476
 6374TIP3   OH240536   0.587   0.072   0.123  0.4568  0.3146 -0.0802
 6374TIP3    H140537   0.523   0.113   0.181  0.2124 -0.0556 -0.0858
 6374TIP3    H240538   0.601  -0.015   0.160  1.0153  0.4185 -0.0378
 6375TIP3   OH240539   0.832   5.901   2.802 -0.0628  0.1299  0.6000
 6375TIP3    H140540   0.907   5.848   2.830  0.0413  0.1114  0.2900
 6375TIP3    H240541   0.756   5.853   2.834  0.0590  0.1999  1.0039
 6376TIP3   OH240542   1.271   0.460  16.835 -0.0680 -0.0228  0.1250
 6376TIP3    H140543   1.257   0.549  16.868  0.7741  0.9272 -1.9134
 6376TIP3    H240544   1.251   0.404  16.909  1.2938  1.9376  2.1137
 6377TIP3   OH240545   4.290   0.692  14.659  0.0964  0.5629 -0.0061
 6377TIP3    H140546   4.339   0.762  14.616  0.7441 -0.4131 -0.9202
 6377TIP3    H240547   4.199   0.707  14.634  0.3952  0.3469 -1.2881
 6378TIP3   OH240548   5.329   6.723   3.201  0.8090 -0.1744 -0.1255
 6378TIP3    H140549   5.411   6.767   3.226 -0.2897  0.6001  2.5042
 6378TIP3    H240550   5.262   6.791   3.211 -0.4773 -1.4740  0.4490
 6379TIP3   OH240551   1.119   4.907   0.874  0.7553  0.2739 -0.8794
 6379TIP3    H140552   1.139   4.974   0.939 -0.7766  0.5118 -0.6164
 6379TIP3    H240553   1.126   4.824   0.922 -0.0948  0.4321 -0.4617
 6380TIP3   OH240554   1.046   6.489   0.958  0.5851  0.0919 -0.0411
 6380TIP3    H140555   1.086   6.558   0.905  0.6653  0.4389  0.4642
 6380TIP3    H240556   1.029   6.531   1.042  1.1235 -0.6534  0.4455
 6381TIP3   OH240557   0.458   0.464  14.501  0.4859 -0.3289 -0.0212
 6381TIP3    H140558   0.393   0.503  14.559  2.3962  0.5012  1.6617
 6381TIP3    H240559   0.416   0.465  14.415 -1.8757 -0.2589  1.0432
 6382TIP3   OH240560   1.778   4.522  17.159 -0.2422 -0.0888  0.7792
 6382TIP3    H140561   1.739   4.505  17.074 -2.1980 -0.7932  1.7489
 6382TIP3    H240562   1.850   4.460  17.165 -2.9206 -3.4507  1.3868
 6383TIP3   OH240563   3.939   6.116  12.978 -0.5607  0.5668 -0.0909
 6383TIP3    H140564   3.934   6.026  13.008  1.9904  0.4341  0.1670
 6383TIP3    H240565   3.957   6.167  13.056  0.6507  0.9321 -0.5847
 6384TIP3   OH240566   4.503   5.719  16.366 -0.2836  0.4081 -0.7280
 6384TIP3    H140567   4.408   5.730  16.373 -0.3436 -0.1763 -0.6069
 6384TIP3    H240568   4.525   5.756  16.281 -0.4877  1.3915 -0.3657
 6385TIP3   OH240569   5.872   3.489  16.379 -0.2375 -0.8652  0.2609
 6385TIP3    H140570   5.910   3.569  16.415 -1.3898 -0.1619 -0.0404
 6385TIP3    H240571   5.884   3.497  16.285 -1.8290 -0.2073  0.0677
 6386TIP3   OH240572   3.163   1.866  13.377  0.5394  0.2525 -0.0983
 6386TIP3    H140573   3.069   1.854  13.364  0.5972  0.5641 -0.8464
 6386TIP3    H240574   3.169   1.917  13.458  0.0395  0.7176 -0.3467
 6387TIP3   OH240575   1.504   3.422   2.717 -0.2559  0.0073  0.4303
 6387TIP3    H140576   1.481   3.377   2.635 -0.2881 -0.9889  0.9624
 6387TIP3    H240577   1.469   3.365   2.786 -2.0981  1.8501  1.1290
 6388TIP3   OH240578   6.724   4.220  11.292 -0.0661  0.0836  0.8237
 6388TIP3    H140579   6.734   4.316  11.292 -0.5230  0.1331  0.1907
 6388TIP3    H240580   6.810   4.188  11.265 -0.1675  0.3494  0.1611
 6389TIP3   OH240581   2.458   4.924   4.217  0.5181 -0.1309 -0.2434
 6389TIP3    H140582   2.417   4.838   4.229 -0.1047 -0.1726 -2.2121
 6389TIP3    H240583   2.522   4.930   4.288  0.8003 -2.3716 -0.2171
 6390TIP3   OH240584   0.196   3.211  16.162  0.3283  0.1896  0.0662
 6390TIP3    H140585   0.229   3.293  16.125  0.8419 -0.0918 -0.1157
 6390TIP3    H240586   0.141   3.238  16.236 -0.8205  0.7620 -0.9650
 6391TIP3   OH240587   6.599   2.386   0.467 -0.2641  0.2497  0.5374
 6391TIP3    H140588   6.585   2.475   0.436 -0.7354 -0.0832 -0.2272
 6391TIP3    H240589   6.693   2.372   0.456 -0.6960 -0.6904 -3.1615
 6392TIP3   OH240590   3.094   5.663   5.257 -0.4698  0.2930  0.2909
 6392TIP3    H140591   3.067   5.576   5.289  0.2627 -0.7169 -1.6506
 6392TIP3    H240592   3.012   5.710   5.245 -0.8425  0.2117  2.1715
 6393TIP3   OH240593   0.243   2.897  15.225 -0.6328  0.3349  0.4070
 6393TIP3    H140594   0.310   2.921  15.161 -1.4121 -0.2357 -0.6559
 6393TIP3    H240595   0.212   2.981  15.261 -2.0103  0.8933 -1.8860
 6394TIP3   OH240596   4.881   1.323   5.447  0.1017 -0.0646  0.2525
 6394TIP3    H140597   4.880   1.300   5.540 -1.4089 -2.6128 -0.3028
 6394TIP3    H240598   4.789   1.333   5.424  0.3669 -0.8338 -1.2492
 6395TIP3   OH240599   5.874   3.877  11.446 -0.5441 -0.1115 -0.5913
 6395TIP3    H140600   5.922   3.795  11.433 -0.5257 -0.1329 -0.4028
 6395TIP3    H240601   5.855   3.909  11.358  0.4487  0.2726 -0.6670
 6396TIP3   OH240602   6.191   3.901   4.422  0.2706 -0.0286 -0.0041
 6396TIP3    H140603   6.193   3.886   4.517  1.7857 -0.8893 -0.1406
 6396TIP3    H240604   6.222   3.992   4.412  1.7004 -0.4589  0.2655
 6397TIP3   OH240605   4.515   3.396   2.535  0.2018 -0.3238  0.2885
 6397TIP3    H140606   4.515   3.311   2.491  1.5360  0.5446 -1.5764
 6397TIP3    H240607   4.608   3.418   2.544 -0.1087  1.1580  0.2232
 6398TIP3   OH240608   4.789   3.961  13.640 -0.0035 -0.0307 -0.4384
 6398TIP3    H140609   4.817   4.044  13.600 -1.6589  0.8670  0.1933
 6398TIP3    H240610   4.721   3.986  13.702  1.1747 -1.5933  1.6183
 6399TIP3   OH240611   6.143   3.981   2.992  0.5569  0.4242  0.3569
 6399TIP3    H140612   6.103   4.003   2.908  2.8901 -0.3890 -1.0809
 6399TIP3    H240613   6.119   3.890   3.007 -0.1011  0.6550  0.7467
 6400TIP3   OH240614   6.664   4.536   3.438  1.2188 -1.3037  0.3202
 6400TIP3    H140615   6.622   4.453   3.464 -1.3030  0.2266  1.5781
 6400TIP3    H240616   6.665   4.588   3.519 -0.6342  1.1716 -1.1176
 6401TIP3   OH240617   3.408   1.558  16.366  0.2607 -0.0420 -0.1747
 6401TIP3    H140618   3.494   1.516  16.369  0.4932  0.4586  0.7488
 6401TIP3    H240619   3.354   1.500  16.313  0.5881 -1.4800  0.9974
 6402TIP3   OH240620   0.637   3.598   1.088  0.0195 -0.5526 -0.2967
 6402TIP3    H140621   0.550   3.631   1.109 -0.2757 -0.4798 -1.5402
 6402TIP3    H240622   0.698   3.664   1.122 -0.4523 -0.1197 -0.2870
 6403TIP3   OH240623   6.179   1.656  16.758  0.2642  0.0882  0.7786
 6403TIP3    H140624   6.153   1.607  16.681 -1.2223  2.8628 -0.6522
 6403TIP3    H240625   6.102   1.654  16.815  1.2763 -1.7542  2.1598
 6404TIP3   OH240626   3.229   6.145  14.613  0.3977 -0.5847  0.3703
 6404TIP3    H140627   3.218   6.225  14.663 -1.2526 -0.1802 -0.5546
 6404TIP3    H240628   3.279   6.171  14.535  0.3819 -0.5776  0.3625
 6405TIP3   OH240629   0.107   5.020   2.970  0.0619  0.1345 -0.2570
 6405TIP3    H140630   0.197   5.015   2.938  0.4055  0.2324  0.6660
 6405TIP3    H240631   0.092   5.113   2.988  0.0891  0.0048  0.4531
 6406TIP3   OH240632   2.062   0.824   2.963 -0.5270 -0.5158 -0.2028
 6406TIP3    H140633   1.967   0.837   2.968 -0.5311 -1.1576  2.2760
 6406TIP3    H240634   2.075   0.731   2.977  0.5122 -0.3837 -0.2185
 6407TIP3   OH240635   0.239   4.149   2.596  0.2465  0.1591 -0.6892
 6407TIP3    H140636   0.247   4.228   2.542 -0.4792 -0.0608 -1.1196
 6407TIP3    H240637   0.203   4.083   2.538  1.3561 -0.6657 -0.4894
 6408TIP3   OH240638   0.917   4.191  16.526  0.3045  0.9751  0.3228
 6408TIP3    H140639   0.939   4.112  16.476 -2.7526  0.6748 -0.7609
 6408TIP3    H240640   0.999   4.218  16.566  1.8108 -1.7719 -0.6692
 6409TIP3   OH240641   6.577   0.154   2.818  0.4225  0.3918  0.0444
 6409TIP3    H140642   6.648   0.204   2.777  0.9100 -1.0613 -0.9544
 6409TIP3    H240643   6.622   0.095   2.879 -0.1796  1.4444  1.5603
 6410TIP3   OH240644   0.095   6.222  12.233 -0.3226  0.4367  0.3167
 6410TIP3    H140645   0.189   6.208  12.234 -0.2180  0.9614 -0.9341
 6410TIP3    H240646   0.066   6.197  12.322  1.3709  2.9616  1.6920
 6411TIP3   OH240647   1.472   5.977   3.820 -0.4842  0.2890  0.0248
 6411TIP3    H140648   1.420   6.045   3.777 -1.2168  0.6543  1.4055
 6411TIP3    H240649   1.417   5.899   3.816 -0.2642  0.1526 -0.3038
 6412TIP3   OH240650   0.359   3.692   3.390  0.3582 -0.2415  0.4294
 6412TIP3    H140651   0.382   3.697   3.483  1.2559 -0.7887  0.2495
 6412TIP3    H240652   0.386   3.776   3.354  3.5447 -1.3268 -0.0541
 6413TIP3   OH240653   5.030   0.412  12.895  0.2020  0.6644 -0.1217
 6413TIP3    H140654   4.980   0.332  12.881  2.8929 -1.1864  0.1224
 6413TIP3    H240655   5.073   0.428  12.811  0.0420  1.6443 -0.0300
 6414TIP3   OH240656   1.013   4.380   1.029 -0.0208  0.1503 -0.2506
 6414TIP3    H140657   1.004   4.285   1.037 -0.8610  0.3019  0.9860
 6414TIP3    H240658   0.943   4.406   0.968  0.1753 -0.0166 -0.5479
 6415TIP3   OH240659   3.975   3.083   4.194 -0.2873  0.0161  0.2610
 6415TIP3    H140660   3.960   3.112   4.284 -0.6523 -2.5729  1.1227
 6415TIP3    H240661   4.046   3.019   4.201 -0.0630  0.0544 -1.3619
 6416TIP3   OH240662   1.754   3.904   1.577  0.1427  0.6815  0.3762
 6416TIP3    H140663   1.711   3.818   1.580  0.0641  0.7208  0.3949
 6416TIP3    H240664   1.830   3.891   1.522 -1.0811  1.1312 -1.5186
 6417TIP3   OH240665   1.011   2.872  16.932  0.6554 -0.1790 -0.4368
 6417TIP3    H140666   1.013   2.789  16.884 -0.3368 -0.0793 -0.6780
 6417TIP3    H240667   1.095   2.877  16.976  0.9308 -1.0643 -0.8520
 6418TIP3   OH240668   1.379   4.952  13.906  0.2041 -0.9605 -0.3251
 6418TIP3    H140669   1.359   5.000  13.826  0.4166  0.5586  0.4906
 6418TIP3    H240670   1.463   4.910  13.889  0.5557 -0.1291 -0.6820
 6419TIP3   OH240671   4.533   2.913  13.557  0.1904 -0.2928  0.0681
 6419TIP3    H140672   4.589   2.845  13.595  1.2209 -0.0197 -0.9077
 6419TIP3    H240673   4.544   2.903  13.463 -0.9194  0.1903 -0.1210
 6420TIP3   OH240674   0.817   6.351   4.177 -0.7169 -0.0305 -1.1079
 6420TIP3    H140675   0.726   6.325   4.169 -1.3155  2.3426 -3.4627
 6420TIP3    H240676   0.817   6.420   4.243 -0.8965  0.7747 -1.9173
 6421TIP3   OH240677   0.882   0.274  13.869  0.8165  0.0903  0.3449
 6421TIP3    H140678   0.865   0.183  13.893  1.4810 -0.2675 -0.4765
 6421TIP3    H240679   0.970   0.272  13.831  0.1295  0.7559 -1.3477
 6422TIP3   OH240680   6.053   1.028  10.910  0.0139  0.9009  0.9318
 6422TIP3    H140681   6.106   1.051  10.833 -0.9732  2.7359  0.7319
 6422TIP3    H240682   6.015   0.943  10.888 -1.5066  2.0579 -1.3693
 6423TIP3   OH240683   4.958   5.267   6.324 -0.2832  0.4663 -0.1804
 6423TIP3    H140684   4.999   5.186   6.294  1.7030  0.4861  2.2126
 6423TIP3    H240685   4.872   5.240   6.355 -0.1655 -0.4819 -0.6420
 6424TIP3   OH240686   5.046   0.510   2.772  0.4202 -0.0995 -0.2011
 6424TIP3    H140687   5.082   0.517   2.860  1.0500 -0.1616 -0.4495
 6424TIP3    H240688   5.021   0.599   2.748  1.2914  0.0990 -0.3897
 6425TIP3   OH240689   4.457   4.146  12.067  0.3565 -0.0099  0.2121
 6425TIP3    H140690   4.436   4.238  12.052  1.0705  0.1934  0.4189
 6425TIP3    H240691   4.378   4.099  12.043  0.7800  0.4376 -2.3507
 6426TIP3   OH240692   0.615   2.714   4.453  0.6689 -0.2378  0.1030
 6426TIP3    H140693   0.538   2.692   4.505  1.1713 -1.1368  0.4808
 6426TIP3    H240694   0.669   2.767   4.512  0.6528 -0.1869  0.0716
 6427TIP3   OH240695   5.395   0.709   2.891 -0.3750  0.2823  0.1158
 6427TIP3    H140696   5.344   0.686   2.813  1.5670  0.4106 -1.2758
 6427TIP3    H240697   5.389   0.804   2.896 -2.0882  0.1598  1.3322
 6428TIP3   OH240698   1.472   3.519  11.813 -0.2724 -0.5297  0.1710
 6428TIP3    H140699   1.486   3.487  11.724 -2.1694 -0.5554 -0.1692
 6428TIP3    H240700   1.416   3.596  11.803 -0.2201 -0.3177  1.3242
 6429TIP3   OH240701   6.572   5.825  14.699 -0.4247 -0.4175 -0.2142
 6429TIP3    H140702   6.477   5.835  14.692 -0.4717  1.6635  2.0809
 6429TIP3    H240703   6.607   5.878  14.628 -0.9771 -0.0218 -0.1965
 6430TIP3   OH240704   2.544   6.535   3.880  0.3017  0.1490  0.5613
 6430TIP3    H140705   2.629   6.578   3.870  1.0651 -1.6710 -1.5246
 6430TIP3    H240706   2.481   6.599   3.848  0.9462  1.2717  1.4851
 6431TIP3   OH240707   5.885   2.847   2.084  0.3977  0.2308  0.0240
 6431TIP3    H140708   5.817   2.913   2.094 -0.8834 -1.0419  0.1253
 6431TIP3    H240709   5.859   2.777   2.144  1.0565 -0.8567 -0.9213
 6432TIP3   OH240710   6.298   2.410   5.394  0.1169  0.2325 -0.8218
 6432TIP3    H140711   6.212   2.369   5.387 -0.5316  1.4920 -0.6849
 6432TIP3    H240712   6.340   2.367   5.468 -1.8140  1.9055  1.4138
 6433TIP3   OH240713   0.594   3.894  12.186 -0.6253 -0.3908 -0.4391
 6433TIP3    H140714   0.534   3.842  12.132 -1.0007 -0.2497 -0.1652
 6433TIP3    H240715   0.543   3.914  12.265 -1.0177  1.6358 -1.1547
 6434TIP3   OH240716   2.526   4.306   6.086  0.7137  0.5590  0.0653
 6434TIP3    H140717   2.481   4.283   6.167  0.5712  0.1192 -0.1319
 6434TIP3    H240718   2.616   4.273   6.098  0.5964  0.1655 -0.0891
 6435TIP3   OH240719   2.135   3.862  11.988  0.5480 -0.1416  0.4447
 6435TIP3    H140720   2.187   3.827  12.060  2.0692  1.7010  0.3163
 6435TIP3    H240721   2.112   3.950  12.016  1.8378  0.9092 -1.6027
 6436TIP3   OH240722   0.286   4.987  11.359 -0.8609 -0.1039 -0.3723
 6436TIP3    H140723   0.230   4.930  11.306 -1.5891 -0.7396  1.0060
 6436TIP3    H240724   0.224   5.046  11.403 -0.1971  1.0584 -0.9508
 6437TIP3   OH240725   4.400   0.521   5.423  0.4583 -0.3190  0.0070
 6437TIP3    H140726   4.405   0.615   5.438  2.2201 -0.3393 -0.1594
 6437TIP3    H240727   4.327   0.491   5.477 -1.4088  1.3899 -1.4566
 6438TIP3   OH240728   0.537   3.443   5.291  0.8084  0.4716 -0.2994
 6438TIP3    H140729   0.609   3.382   5.273  0.9208  1.1302 -2.2139
 6438TIP3    H240730   0.501   3.465   5.205 -1.4506  0.4831  0.5695
 6439TIP3   OH240731   1.322   2.374   0.429 -0.0466 -0.4206  0.0101
 6439TIP3    H140732   1.324   2.417   0.515  0.1329  1.6767 -0.9970
 6439TIP3    H240733   1.379   2.297   0.440  0.9168  0.4420  1.4585
 6440TIP3   OH240734   0.227   2.252   4.638  0.1635  0.1107  0.0344
 6440TIP3    H140735   0.133   2.234   4.639  0.1484  0.1624  1.5656
 6440TIP3    H240736   0.267   2.167   4.618 -0.2120  0.3087 -1.7428
 6441TIP3   OH240737   2.245   4.127   0.646 -0.4163 -0.4210 -0.5001
 6441TIP3    H140738   2.248   4.215   0.609  1.0592 -0.0775  0.3639
 6441TIP3    H240739   2.170   4.085   0.603 -2.0435  1.6951  0.0812
 6442TIP3   OH240740   0.651   2.371   6.599  0.1948 -0.5451  0.1548
 6442TIP3    H140741   0.630   2.337   6.512  1.5670 -2.0348  0.3503
 6442TIP3    H240742   0.665   2.293   6.653 -1.5206  0.3095  1.9927
 6443TIP3   OH240743   6.392   0.711  12.769  0.4076 -0.2778  0.2035
 6443TIP3    H140744   6.452   0.733  12.698  0.3314 -0.1431  0.1785
 6443TIP3    H240745   6.317   0.670  12.726 -0.6724  1.8141 -0.0829
 6444TIP3   OH240746   4.995   0.215   4.186  0.8858 -0.3699  0.0207
 6444TIP3    H140747   5.039   0.133   4.165 -1.5384 -2.1249  1.1993
 6444TIP3    H240748   4.922   0.220   4.123 -2.1552 -2.0389  3.0428
 6445TIP3   OH240749   3.255   1.583   2.835 -0.4774 -0.0718 -1.1035
 6445TIP3    H140750   3.224   1.524   2.904  0.2950  2.0234  1.2379
 6445TIP3    H240751   3.348   1.562   2.827 -0.6576 -0.6012 -1.8447
 6446TIP3   OH240752   3.820   2.626   6.120 -0.7828  0.7890 -0.3371
 6446TIP3    H140753   3.782   2.625   6.207 -0.0379  0.3007 -0.0037
 6446TIP3    H240754   3.754   2.668   6.065 -1.8224 -0.0783  0.2056
 6447TIP3   OH240755   4.277   6.554  13.180  1.3176  0.2815 -0.3959
 6447TIP3    H140756   4.214   6.531  13.111 -0.1340 -0.0982  1.0044
 6447TIP3    H240757   4.333   6.621  13.140 -0.1382  0.8321 -1.6077
 6448TIP3   OH240758   1.502   5.958   3.300  0.0786 -0.1481  0.2220
 6448TIP3    H140759   1.570   6.026   3.297  0.2839 -0.3341  0.6223
 6448TIP3    H240760   1.501   5.930   3.391 -0.3315 -0.3572  0.1515
 6449TIP3   OH240761   0.961   5.459  14.230  0.5427  0.8591  0.1368
 6449TIP3    H140762   0.997   5.475  14.317  1.9362 -0.7836 -0.0825
 6449TIP3    H240763   1.036   5.469  14.171  0.1695 -0.4909 -0.5970
 6450TIP3   OH240764   2.067   0.329  15.555 -0.1986  0.0241  0.2198
 6450TIP3    H140765   2.159   0.341  15.532 -0.4788  1.2662 -0.3693
 6450TIP3    H240766   2.033   0.269  15.489 -0.4267  1.7087 -1.2954
 6451TIP3   OH240767   4.145   1.980  15.302  0.0518 -0.1724  0.0798
 6451TIP3    H140768   4.145   1.976  15.398  0.2671 -1.3438  0.0520
 6451TIP3    H240769   4.053   1.975  15.278 -0.1600  2.0328  0.2489
 6452TIP3   OH240770   0.591   3.235   0.766  0.0511  0.4867 -0.4554
 6452TIP3    H140771   0.624   3.264   0.851  1.7732  0.9811 -1.2645
 6452TIP3    H240772   0.523   3.299   0.745 -0.9662 -0.0960  0.8752
 6453TIP3   OH240773   5.054   1.753   1.566 -0.0119 -0.6120  0.2159
 6453TIP3    H140774   5.010   1.720   1.487  0.2303  0.6301 -0.4788
 6453TIP3    H240775   5.141   1.780   1.535 -1.2261  3.7275 -0.1317
 6454TIP3   OH240776   5.970   0.887  15.526 -0.0952 -0.1837  0.0354
 6454TIP3    H140777   5.974   0.816  15.461 -0.2911  0.6906 -0.9577
 6454TIP3    H240778   5.890   0.935  15.505  1.7999  2.5142 -1.7054
 6455TIP3   OH240779   1.061   5.836  10.655 -0.5947  0.3206 -0.3490
 6455TIP3    H140780   1.105   5.920  10.650 -1.8381  1.0292  0.1719
 6455TIP3    H240781   0.968   5.857  10.655 -0.9522 -0.8944  1.8228
 6456TIP3   OH240782   3.251   2.785   1.171 -0.2295 -1.2502  0.1976
 6456TIP3    H140783   3.160   2.808   1.150  0.1920  0.0728 -0.2636
 6456TIP3    H240784   3.296   2.786   1.087  0.8946  1.3771  0.7404
 6457TIP3   OH240785   0.591   5.622   0.575  0.0947 -0.5177 -0.2922
 6457TIP3    H140786   0.547   5.537   0.576 -0.1091 -0.4142 -0.4352
 6457TIP3    H240787   0.660   5.613   0.508  0.5080 -0.7861  0.1623
 6458TIP3   OH240788   6.379   4.461   3.239  0.0047  0.0988  0.9769
 6458TIP3    H140789   6.410   4.537   3.286  1.7637 -0.1519  0.2887
 6458TIP3    H240790   6.458   4.410   3.220 -0.7748 -0.4329 -1.1080
 6459TIP3   OH240791   1.240   0.047  16.044 -0.5078 -0.6505 -0.5302
 6459TIP3    H140792   1.198   0.091  15.970 -1.0719  0.2882  0.3179
 6459TIP3    H240793   1.330   0.080  16.044 -0.4189 -0.8856 -0.9714
 6460TIP3   OH240794   2.240   0.657  14.817  0.1163 -0.4185  0.2183
 6460TIP3    H140795   2.249   0.661  14.722 -0.6531  2.3897  0.1914
 6460TIP3    H240796   2.330   0.662  14.850  0.2652  2.7359 -0.3820
 6461TIP3   OH240797   2.047   3.851   0.314  0.3390  0.2727  0.6965
 6461TIP3    H140798   2.109   3.915   0.350  1.3080  0.1071 -0.5889
 6461TIP3    H240799   2.099   3.772   0.301  0.1373  0.4081 -1.2694
 6462TIP3   OH240800   2.497   0.086  11.125 -0.5012 -0.5595  0.0199
 6462TIP3    H140801   2.517   0.103  11.033 -0.7323  0.2423  0.1053
 6462TIP3    H240802   2.457  -0.001  11.125  0.8447 -1.2097 -0.4356
 6463TIP3   OH240803   2.398   6.359  15.969  0.1625 -0.2380 -0.1983
 6463TIP3    H140804   2.405   6.455  15.973  0.5544 -0.2839  0.3973
 6463TIP3    H240805   2.488   6.328  15.960  0.3758 -0.6344  2.3445
 6464TIP3   OH240806   0.882   3.706   0.717  0.1873  0.6705  0.2925
 6464TIP3    H140807   0.946   3.662   0.772 -1.8953 -1.6024  1.0976
 6464TIP3    H240808   0.801   3.658   0.732 -1.7000  3.2744 -0.7968
 6465TIP3   OH240809   0.339   3.224   5.198  0.1115 -0.2664 -0.1584
 6465TIP3    H140810   0.353   3.189   5.110  0.2080  1.3670 -0.8453
 6465TIP3    H240811   0.410   3.287   5.210  0.5166 -0.9743  1.4024
 6466TIP3   OH240812   5.842   5.438  11.728 -0.0310  0.1708 -0.1836
 6466TIP3    H140813   5.872   5.355  11.767  0.3918  1.1256  1.6076
 6466TIP3    H240814   5.923   5.481  11.700  0.0337  1.2134  1.4990
 6467TIP3   OH240815   1.979   2.927   2.016 -0.1383 -0.2690 -0.5747
 6467TIP3    H140816   2.034   2.851   1.999 -0.1525 -0.4963  0.3556
 6467TIP3    H240817   1.969   2.969   1.931 -1.4749 -2.1921 -1.4412
 6468TIP3   OH240818   5.009   6.314   3.555  0.4494 -0.2637 -0.2953
 6468TIP3    H140819   4.947   6.243   3.536  1.2868 -1.1426  0.1742
 6468TIP3    H240820   4.987   6.382   3.492 -1.7059 -0.1007  0.5352
 6469TIP3   OH240821   2.048   4.227   1.573  0.1223  0.0066  0.0037
 6469TIP3    H140822   2.007   4.157   1.624  0.5193  0.7261  1.3633
 6469TIP3    H240823   1.982   4.296   1.570 -0.6868 -0.7672 -2.2573
 6470TIP3   OH240824   6.068   4.567  15.149 -0.5567  0.6093 -0.1380
 6470TIP3    H140825   6.038   4.476  15.151  1.6053 -0.1425  0.4100
 6470TIP3    H240826   6.155   4.563  15.110 -0.1029  2.3458  0.5961
 6471TIP3   OH240827   0.243   4.537  14.388  0.1323  0.3706 -0.0316
 6471TIP3    H140828   0.151   4.519  14.410  0.1175 -0.2405 -0.5648
 6471TIP3    H240829   0.268   4.609  14.446 -1.2660  1.8987 -1.1957
 6472TIP3   OH240830   2.779   6.000  13.064  0.1961  0.7607 -0.4307
 6472TIP3    H140831   2.690   6.030  13.082 -0.1999 -0.0602 -0.9327
 6472TIP3    H240832   2.792   6.016  12.971  0.6637  1.0742 -0.3176
 6473TIP3   OH240833   6.195   5.118   6.001  0.1291 -0.0418 -0.0059
 6473TIP3    H140834   6.169   5.064   5.927 -0.4135  0.6747 -0.3447
 6473TIP3    H240835   6.143   5.198   5.993  1.4602  0.8620  0.0627
 6474TIP3   OH240836   3.869   1.994   0.211  0.3715  0.0950  0.4951
 6474TIP3    H140837   3.898   1.950   0.291  0.5585  0.3846  0.5902
 6474TIP3    H240838   3.841   2.081   0.241 -2.6221 -0.8411  0.7537
 6475TIP3   OH240839   5.976   3.505  14.087 -0.4959  0.3270  0.3799
 6475TIP3    H140840   5.928   3.447  14.028 -1.3223  0.4480  0.9190
 6475TIP3    H240841   5.908   3.555  14.131  0.1899  1.3857  0.2612
 6476TIP3   OH240842   0.625   1.769   2.256  0.1156 -1.0793  0.0825
 6476TIP3    H140843   0.616   1.713   2.179  1.0317 -1.4274  0.2149
 6476TIP3    H240844   0.709   1.745   2.294 -0.7239 -1.5639  1.7250
 6477TIP3   OH240845   2.740   6.312  13.384  0.5839 -0.7221  0.7355
 6477TIP3    H140846   2.828   6.280  13.368  0.4805  0.0487 -1.9847
 6477TIP3    H240847   2.702   6.322  13.296 -1.6297  0.5288  1.7450
 6478TIP3   OH240848   1.410   0.521   4.255  0.5725 -0.4477 -0.1471
 6478TIP3    H140849   1.483   0.583   4.254  0.4841 -0.2459  1.8635
 6478TIP3    H240850   1.408   0.488   4.345 -0.5488 -1.9883 -0.6966
 6479TIP3   OH240851   5.318   5.543   1.827  0.8749  0.3147 -0.5169
 6479TIP3    H140852   5.411   5.553   1.804  1.0192  0.2046 -0.0048
 6479TIP3    H240853   5.296   5.625   1.871  0.5622  0.5844 -1.1701
 6480TIP3   OH240854   5.576   0.305  15.581 -0.2836 -0.1808  0.0871
 6480TIP3    H140855   5.659   0.295  15.628 -0.6339 -0.1745  0.7208
 6480TIP3    H240856   5.510   0.273  15.642 -0.6010 -1.8605 -1.0515
 6481TIP3   OH240857   5.279   1.295   0.960  0.0402 -0.1191  0.5034
 6481TIP3    H140858   5.236   1.210   0.968  1.4575 -0.9476 -0.3265
 6481TIP3    H240859   5.330   1.303   1.041  1.8487 -1.2437 -0.4439
 6482TIP3   OH240860   6.297   0.866  14.658  0.4348 -0.5861  0.1865
 6482TIP3    H140861   6.313   0.951  14.617  1.1954 -0.5761  0.4876
 6482TIP3    H240862   6.288   0.886  14.751  1.1074 -0.8985  0.3188
 6483TIP3   OH240863   6.619   3.535   4.770  0.5483  0.8358 -0.0460
 6483TIP3    H140864   6.528   3.515   4.791  0.8664 -1.6698 -0.8248
 6483TIP3    H240865   6.669   3.491   4.839  1.2325  0.5929 -0.6984
 6484TIP3   OH240866   1.265   6.080  15.156  0.1513 -0.1232 -0.0807
 6484TIP3    H140867   1.274   5.993  15.195  1.0097 -0.0010  0.0213
 6484TIP3    H240868   1.186   6.075  15.103  0.1820 -0.9628 -0.0538
 6485TIP3   OH240869   2.030   2.204  13.111 -0.1886  0.2523  0.3530
 6485TIP3    H140870   1.941   2.186  13.081 -0.1977 -1.5217  1.3015
 6485TIP3    H240871   2.024   2.202  13.207  0.7561  0.7985  0.4350
 6486TIP3   OH240872   5.127   3.647  15.426 -0.0658  0.0225  0.3686
 6486TIP3    H140873   5.216   3.621  15.448 -0.1388 -0.2507  0.3440
 6486TIP3    H240874   5.120   3.630  15.332  0.4420  1.7465 -0.0204
 6487TIP3   OH240875   5.474   0.756   3.553 -0.3654  0.0073  0.4463
 6487TIP3    H140876   5.475   0.789   3.643 -0.7383  0.0316  0.4450
 6487TIP3    H240877   5.443   0.666   3.561 -0.9319  0.1811  0.2957
 6488TIP3   OH240878   4.937   3.773   6.183  0.1130  0.0309 -0.5614
 6488TIP3    H140879   5.027   3.773   6.216 -0.4444  0.5508  1.0552
 6488TIP3    H240880   4.901   3.858   6.210 -1.1311 -0.5299 -0.3660
 6489TIP3   OH240881   1.787   5.549  12.833  0.1274  0.3758 -0.7132
 6489TIP3    H140882   1.716   5.485  12.841  0.6161  0.0538  2.0856
 6489TIP3    H240883   1.849   5.526  12.902  2.6750  1.0914 -2.5958
 6490TIP3   OH240884   5.358   4.669   0.491  0.3805  0.1250 -0.1735
 6490TIP3    H140885   5.318   4.670   0.578 -0.5937  1.1318 -0.6053
 6490TIP3    H240886   5.331   4.585   0.453 -0.2751  0.2448  0.0223
 6491TIP3   OH240887   4.494   5.483  16.906  0.4896 -0.0901  0.3665
 6491TIP3    H140888   4.415   5.536  16.905  0.5762  0.1558  2.4237
 6491TIP3    H240889   4.543   5.511  16.828 -0.9768  0.4547 -0.3823
 6492TIP3   OH240890   1.877   5.692  14.868 -0.3166  0.6874 -0.0861
 6492TIP3    H140891   1.893   5.598  14.863 -0.1595  0.7306 -0.5134
 6492TIP3    H240892   1.858   5.709  14.960 -1.2392  0.0967 -0.1580
 6493TIP3   OH240893   0.389   3.909  13.383  0.0823  0.5158  0.1333
 6493TIP3    H140894   0.373   3.938  13.473  2.4034  0.0261  0.7594
 6493TIP3    H240895   0.383   3.989  13.330 -0.4549  0.9491  0.8335
 6494TIP3   OH240896   5.828   2.679  13.480  0.2430 -0.1428 -0.0819
 6494TIP3    H140897   5.827   2.676  13.384 -2.3252  0.9496 -0.1722
 6494TIP3    H240898   5.895   2.744  13.501 -0.7611  1.3713 -1.3031
 6495TIP3   OH240899   1.947   5.699  14.270  0.4676  0.1951  0.4182
 6495TIP3    H140900   1.965   5.654  14.353  0.2310  0.8736  0.8493
 6495TIP3    H240901   1.915   5.786  14.297  2.0947  1.0882 -0.3818
 6496TIP3   OH240902   1.349   3.252  17.009  0.1910 -0.6675 -0.3078
 6496TIP3    H140903   1.358   3.180  16.947 -2.8754 -1.6774  0.2883
 6496TIP3    H240904   1.255   3.268  17.015  0.6289  1.9087  1.2911
 6497TIP3   OH240905   0.471   6.272   6.416  0.2817  0.1312 -0.1363
 6497TIP3    H140906   0.420   6.215   6.472 -0.2752 -0.7868 -1.5357
 6497TIP3    H240907   0.501   6.343   6.474 -0.6148 -0.5530  1.1948
 6498TIP3   OH240908   5.599   2.291   4.183  0.0283  0.1883  0.1155
 6498TIP3    H140909   5.506   2.290   4.160 -0.0714  1.1305  0.4537
 6498TIP3    H240910   5.642   2.245   4.110 -0.7800 -1.0451  0.3843
 6499TIP3   OH240911   2.087   2.197  10.840 -0.1555  0.5032  0.1066
 6499TIP3    H140912   2.030   2.274  10.845  1.3310  1.7380 -0.6893
 6499TIP3    H240913   2.175   2.233  10.851  0.6624 -0.9517 -1.3117
 6500TIP3   OH240914   6.680   5.139  11.279  0.4237  0.1840  0.0237
 6500TIP3    H140915   6.763   5.143  11.327  0.1293 -3.4294  1.1907
 6500TIP3    H240916   6.695   5.074  11.210 -0.9231  0.8647 -0.9600
 6501TIP3   OH240917   2.500   5.482  11.388 -0.5597 -0.1492 -0.4204
 6501TIP3    H140918   2.589   5.465  11.418  0.1905  0.2851 -2.3265
 6501TIP3    H240919   2.481   5.412  11.326 -0.6606  1.0575 -1.7878
 6502TIP3   OH240920   2.612   3.172   4.491 -0.2604 -0.1811 -0.8190
 6502TIP3    H140921   2.585   3.260   4.462  0.9185  0.6727  0.5439
 6502TIP3    H240922   2.633   3.126   4.410 -0.3384  0.9959 -1.5365
 6503TIP3   OH240923   3.855   2.360  16.120 -0.4216 -0.2074 -0.2044
 6503TIP3    H140924   3.942   2.322  16.110 -0.3715  0.3254 -2.1375
 6503TIP3    H240925   3.797   2.302  16.070 -0.7532  0.8199 -1.0494
 6504TIP3   OH240926   3.959   0.293  12.981 -0.3646  0.0805 -0.1223
 6504TIP3    H140927   3.865   0.305  12.998  0.2117  1.8541  2.4610
 6504TIP3    H240928   3.980   0.209  13.022 -0.5588  0.4897  0.8598
 6505TIP3   OH240929   4.820   1.343   4.350 -0.3311 -0.0785  0.1493
 6505TIP3    H140930   4.833   1.429   4.311 -1.0815 -0.3195 -0.6580
 6505TIP3    H240931   4.727   1.342   4.375  0.2943  0.3766  2.7224
 6506TIP3   OH240932   3.028   0.688  12.878 -0.4540 -0.1974 -0.4083
 6506TIP3    H140933   2.939   0.654  12.877 -0.7064  0.4505 -0.0110
 6506TIP3    H240934   3.019   0.783  12.873  0.2793 -0.1794 -3.0070
 6507TIP3   OH240935   1.858   4.678   4.871  0.4050  0.1130 -0.2341
 6507TIP3    H140936   1.813   4.638   4.945 -1.3264  3.1544  0.5091
 6507TIP3    H240937   1.807   4.651   4.795  0.6495 -0.9116 -0.0521
 6508TIP3   OH240938   0.716   1.525  13.887 -0.0829  0.2208 -0.0455
 6508TIP3    H140939   0.682   1.553  13.802  1.7771 -0.1420 -0.9604
 6508TIP3    H240940   0.664   1.573  13.951 -0.2747  1.9504 -1.4403
 6509TIP3   OH240941   6.057   5.460  12.045  0.7699  0.0767 -0.4158
 6509TIP3    H140942   5.974   5.489  12.008 -0.0607  0.1557  1.4023
 6509TIP3    H240943   6.071   5.373  12.006 -0.1825  0.0477 -0.7314
 6510TIP3   OH240944   0.037   2.439  13.599 -0.4671  0.4287 -0.3346
 6510TIP3    H140945   0.095   2.364  13.583 -0.2308  0.9019 -1.9648
 6510TIP3    H240946  -0.044   2.417  13.554  0.1275  1.7351 -2.1815
 6511TIP3   OH240947   3.145   6.567   1.486 -0.1315 -0.2827  0.5319
 6511TIP3    H140948   3.134   6.655   1.450 -1.4205 -0.2258  1.0003
 6511TIP3    H240949   3.120   6.576   1.578  1.8097 -0.7053  1.1504
 6512TIP3   OH240950   3.396   3.974   4.649  0.1679 -0.0202  0.1698
 6512TIP3    H140951   3.452   3.942   4.578 -1.8755 -0.3941 -1.3730
 6512TIP3    H240952   3.309   3.982   4.609 -0.6231  1.8754  2.0727
 6513TIP3   OH240953   6.661   3.209  11.817  0.3250  0.1671 -0.1531
 6513TIP3    H140954   6.576   3.168  11.804  0.1261  0.5617 -0.1120
 6513TIP3    H240955   6.720   3.162  11.758  0.3440 -0.9187  0.7159
 6514TIP3   OH240956   3.512   4.095  13.023 -0.1825  0.0625 -0.1136
 6514TIP3    H140957   3.555   4.035  13.083 -0.3786  0.1038  0.0680
 6514TIP3    H240958   3.500   4.175  13.073 -1.1494 -0.1946  0.0877
 6515TIP3   OH240959   1.815   2.477   3.046 -0.2330 -0.4060 -0.9740
 6515TIP3    H140960   1.881   2.484   2.976  0.1556 -1.6195 -0.7672
 6515TIP3    H240961   1.732   2.496   3.002  0.1805  0.5039 -1.3873
 6516TIP3   OH240962   5.566   2.420  17.065  0.0071 -0.2786 -0.3792
 6516TIP3    H140963   5.526   2.507  17.060  1.7655  0.5101 -3.0356
 6516TIP3    H240964   5.616   2.422  17.147  1.4433  1.9453 -1.2193
 6517TIP3   OH240965   2.173   4.948   4.038 -0.0510  0.2950  0.4862
 6517TIP3    H140966   2.170   4.875   4.100  0.3120 -0.9705 -0.8945
 6517TIP3    H240967   2.109   5.010   4.070 -1.8946 -1.5732  0.6485
 6518TIP3   OH240968   1.943   0.000  10.659 -0.2478  0.4215  0.3213
 6518TIP3    H140969   1.920  -0.092  10.666 -1.1063  0.6815  1.1427
 6518TIP3    H240970   2.003   0.005  10.584  0.0528 -0.8373  0.4632
 6519TIP3   OH240971   1.630   4.256  11.700 -0.0476  0.3285 -0.3056
 6519TIP3    H140972   1.645   4.286  11.610  0.6734  0.0658 -0.2786
 6519TIP3    H240973   1.687   4.311  11.753  1.2144 -0.9978 -0.2446
 6520TIP3   OH240974   1.955   4.607   2.156 -0.6618 -0.3960  0.4486
 6520TIP3    H140975   1.919   4.601   2.068 -0.1798 -1.9720  0.3366
 6520TIP3    H240976   1.953   4.701   2.176 -2.7355 -0.2056 -0.3967
 6521TIP3   OH240977   5.341   3.448   5.832  1.0307 -0.0357 -0.6529
 6521TIP3    H140978   5.247   3.433   5.835  0.7908  1.3286  2.6026
 6521TIP3    H240979   5.377   3.384   5.895  1.9038  1.3145  0.2664
 6522TIP3   OH240980   4.729   2.841   4.942 -0.1756 -0.1846  0.0280
 6522TIP3    H140981   4.728   2.937   4.951 -1.3661 -0.3416  2.0228
 6522TIP3    H240982   4.781   2.811   5.017  0.0764 -1.1260 -0.5120
 6523TIP3   OH240983   2.731   0.658  10.878 -0.2423  0.1747  0.7853
 6523TIP3    H140984   2.738   0.753  10.867 -1.2845  0.3645  1.6160
 6523TIP3    H240985   2.769   0.621  10.798 -2.0608  1.3425 -0.6779
 6524TIP3   OH240986   5.036   0.631  17.229  0.0229 -0.2364  0.1800
 6524TIP3    H140987   5.078   0.561  17.179 -0.6054 -0.5703  0.1160
 6524TIP3    H240988   5.028   0.595  17.318  0.0492 -0.0989  0.2388
 6525TIP3   OH240989   6.550   0.441  11.033  0.1992  0.0069  0.0476
 6525TIP3    H140990   6.563   0.380  10.961  2.6133 -3.2699  2.9072
 6525TIP3    H240991   6.456   0.454  11.038 -0.1154 -0.5934 -2.8267
 6526TIP3   OH240992   5.738   5.797  14.394 -0.2977 -0.6517  0.3304
 6526TIP3    H140993   5.748   5.872  14.453 -1.1334  0.2217 -0.6000
 6526TIP3    H240994   5.756   5.721  14.449  1.4779  0.2489  1.0963
 6527TIP3   OH240995   5.869   2.711   0.827 -0.1151  0.2952  0.3791
 6527TIP3    H140996   5.951   2.710   0.777 -0.5850  0.9942 -0.4296
 6527TIP3    H240997   5.810   2.765   0.775 -1.3259 -0.7690  0.6050
 6528TIP3   OH240998   2.976   5.877   0.798 -0.0884  0.1618 -0.2046
 6528TIP3    H140999   2.962   5.784   0.780 -0.6414  0.0312  0.7989
 6528TIP3    H241000   3.006   5.913   0.715  2.4226 -1.3436 -0.0633
 6529TIP3   OH241001   0.792   1.348   4.147  0.0460  0.1926  0.0559
 6529TIP3    H141002   0.733   1.273   4.134  0.6613 -0.3458  0.3241
 6529TIP3    H241003   0.734   1.424   4.150 -0.4439 -0.0484 -2.0804
 6530TIP3   OH241004   1.082   1.455  15.076 -0.4865  0.2261 -0.1243
 6530TIP3    H141005   1.073   1.404  14.996 -1.3834  0.0317  0.0924
 6530TIP3    H241006   1.028   1.408  15.140  0.5789  0.1105  0.7293
 6531TIP3   OH241007   3.717   2.066   1.916 -1.1053  0.4560 -0.0118
 6531TIP3    H141008   3.642   2.047   1.860 -2.0845 -0.0905  1.4419
 6531TIP3    H241009   3.685   2.131   1.978  0.1476  1.5248 -0.4222
 6532TIP3   OH241010   5.715   2.247  12.762  0.0349  0.4238 -0.4596
 6532TIP3    H141011   5.628   2.255  12.803 -0.4051  0.0722 -1.2858
 6532TIP3    H241012   5.745   2.337  12.751 -0.4150  0.5703 -0.5345
 6533TIP3   OH241013   3.149   2.326   4.661  0.4372  0.6702 -0.4042
 6533TIP3    H141014   3.139   2.363   4.748  0.8216 -2.3610  1.0504
 6533TIP3    H241015   3.186   2.397   4.609 -0.7801  2.8940  1.5966
 6534TIP3   OH241016   5.635   4.200   4.513 -0.2791  0.0446  0.5850
 6534TIP3    H141017   5.637   4.119   4.462  0.2222  1.3077 -1.5169
 6534TIP3    H241018   5.723   4.209   4.548 -0.2754 -0.2252  0.6447
 6535TIP3   OH241019   5.816   4.251   3.792  0.1997 -0.5828 -0.4221
 6535TIP3    H141020   5.846   4.241   3.702  0.8975 -1.5109 -0.1092
 6535TIP3    H241021   5.895   4.242   3.845 -0.1625  0.1926  0.2831
 6536TIP3   OH241022   5.252   2.904  11.795 -0.0106  0.6161 -0.5019
 6536TIP3    H141023   5.300   2.859  11.864  0.0681 -0.6319 -1.3501
 6536TIP3    H241024   5.165   2.920  11.833 -0.1220 -0.4834 -0.2597
 6537TIP3   OH241025   4.215   4.238  15.996 -0.5723 -0.0964 -0.1275
 6537TIP3    H141026   4.305   4.236  16.029 -0.3792  0.4631 -0.5994
 6537TIP3    H241027   4.183   4.148  16.005 -0.4222 -0.0228  1.2956
 6538TIP3   OH241028   4.472   2.241  14.358  0.1795 -0.8441  0.4445
 6538TIP3    H141029   4.550   2.275  14.314 -2.3302  2.6618 -1.9457
 6538TIP3    H241030   4.472   2.284  14.444  1.3417 -1.6854  0.8776
 6539TIP3   OH241031   1.017   2.392   2.109 -0.1121 -0.1479 -0.2168
 6539TIP3    H141032   1.007   2.314   2.054 -0.6961 -0.9570  0.9733
 6539TIP3    H241033   0.947   2.450   2.081 -0.6612 -0.7246 -0.0850
 6540TIP3   OH241034   0.004   6.109  16.836  0.1549 -0.3269 -0.6967
 6540TIP3    H141035   0.014   6.204  16.833 -0.3336 -0.2679 -0.6245
 6540TIP3    H241036  -0.076   6.095  16.886 -0.9097 -0.6810 -2.3938
 6541TIP3   OH241037   6.381   2.697  11.877 -0.7238  0.0374 -0.0508
 6541TIP3    H141038   6.406   2.640  11.804  1.1474  0.0327  0.5445
 6541TIP3    H241039   6.463   2.714  11.923 -1.7408  0.6832  1.6002
 6542TIP3   OH241040   6.125   2.533  16.000  0.0017  0.1382  0.1004
 6542TIP3    H141041   6.144   2.566  15.913  1.2778 -0.2660  0.2034
 6542TIP3    H241042   6.087   2.607  16.047  0.5408  0.7352 -0.4008
 6543TIP3   OH241043   4.225   3.962   0.465 -0.5303 -0.1052 -0.1191
 6543TIP3    H141044   4.302   3.978   0.520 -0.5575 -0.3791  0.0043
 6543TIP3    H241045   4.193   3.876   0.495 -0.2147 -0.5200 -0.9431
 6544TIP3   OH241046   0.834   6.115  12.062 -1.1401 -0.1326 -0.2379
 6544TIP3    H141047   0.831   6.108  12.158 -2.3733  0.0865 -0.2470
 6544TIP3    H241048   0.833   6.209  12.046  1.8635 -0.0105 -0.4466
 6545TIP3   OH241049   5.906   2.218   6.632 -0.0671  0.2271  0.3614
 6545TIP3    H141050   5.902   2.314   6.626 -0.2285  0.1388 -1.4082
 6545TIP3    H241051   5.826   2.188   6.589  1.1551 -0.7406 -1.3299
 6546TIP3   OH241052   5.055   2.430  11.563  0.3148  0.7572 -0.0554
 6546TIP3    H141053   5.135   2.393  11.526  1.3687  0.8256  1.9655
 6546TIP3    H241054   5.083   2.463  11.649 -2.0740 -0.0839  1.1220
 6547TIP3   OH241055   0.343   5.830  13.111  0.6733 -0.0324  0.4244
 6547TIP3    H141056   0.306   5.863  13.193  0.2455  0.7471 -0.0723
 6547TIP3    H241057   0.272   5.780  13.071 -0.3230  2.4286 -1.0897
 6548TIP3   OH241058   2.551   5.038   4.480 -0.2137 -0.3551 -0.0612
 6548TIP3    H141059   2.553   5.065   4.572 -1.3944 -1.5102  0.3271
 6548TIP3    H241060   2.506   5.110   4.435 -0.5959 -0.2649  0.4557
 6549TIP3   OH241061   0.729   0.057  14.043  0.2122 -0.0832 -0.1292
 6549TIP3    H141062   0.824   0.064  14.043  0.3052 -1.1040 -0.4958
 6549TIP3    H241063   0.698   0.144  14.066  1.2633 -0.1750  1.7820
 6550TIP3   OH241064   0.601   6.594  16.338  0.6130  0.1590 -0.2952
 6550TIP3    H141065   0.657   6.649  16.282  0.7700 -0.7946 -1.0938
 6550TIP3    H241066   0.609   6.634  16.425  1.9948  0.4627 -0.5343
 6551TIP3   OH241067   0.274   0.421   0.422  0.4729 -0.7322 -0.0747
 6551TIP3    H141068   0.201   0.378   0.377  2.0561 -2.7509 -0.9156
 6551TIP3    H241069   0.280   0.508   0.382 -0.6197 -1.0355 -0.9356
 6552TIP3   OH241070   1.472   1.151  11.145 -0.1675  0.0554 -0.2099
 6552TIP3    H141071   1.408   1.157  11.074  0.1872 -3.2458 -0.9811
 6552TIP3    H241072   1.529   1.227  11.132 -0.6755  0.0896 -2.9011
 6553TIP3   OH241073   1.484   6.228   3.611 -0.7276  0.1201 -0.4777
 6553TIP3    H141074   1.557   6.243   3.552 -1.0820 -0.0619 -0.9694
 6553TIP3    H241075   1.479   6.307   3.665  0.0446 -0.0148 -0.1991
 6554TIP3   OH241076   3.687   5.653  15.709 -0.8590 -0.1118 -0.5827
 6554TIP3    H141077   3.775   5.655  15.746 -1.1803 -1.9650  0.3855
 6554TIP3    H241078   3.685   5.726  15.647  1.6396 -0.5591 -1.2808
 6555TIP3   OH241079   3.201   6.294  14.987  0.2024  0.0639  0.4055
 6555TIP3    H141080   3.225   6.346  14.910  1.3983 -2.0540 -0.7346
 6555TIP3    H241081   3.210   6.203  14.959 -0.2130 -0.7988  2.7993
 6556TIP3   OH241082   5.436   3.801   4.905  0.3801 -0.3269  0.0229
 6556TIP3    H141083   5.387   3.884   4.904 -0.7971 -1.0152 -0.8849
 6556TIP3    H241084   5.369   3.733   4.909  1.3230 -1.2628  0.4442
 6557TIP3   OH241085   0.745   0.295   6.013  0.6398  0.1149 -0.6818
 6557TIP3    H141086   0.810   0.255   6.071 -0.2179  1.0587  1.0105
 6557TIP3    H241087   0.752   0.389   6.030 -0.8640  0.2649 -0.7696
 6558TIP3   OH241088   2.974   0.258  16.927 -0.2973  0.0135  0.1154
 6558TIP3    H141089   2.987   0.199  17.001 -1.5028 -0.7257 -0.2341
 6558TIP3    H241090   2.891   0.231  16.888 -0.0419  0.8442 -1.0912
 6559TIP3   OH241091   1.708   0.557   2.767 -0.5430 -0.7127  0.5991
 6559TIP3    H141092   1.642   0.519   2.825 -0.4154  2.6603  3.2180
 6559TIP3    H241093   1.789   0.554   2.818  0.1701  0.0109 -0.4620
 6560TIP3   OH241094   0.372   6.607   1.035  0.4929 -0.2208 -0.1133
 6560TIP3    H141095   0.439   6.675   1.028 -1.3292  1.6879  0.3287
 6560TIP3    H241096   0.292   6.653   1.058 -1.0478 -2.4240 -0.7165
 6561TIP3   OH241097   3.047   5.896  13.024  0.2377 -0.0691  0.3907
 6561TIP3    H141098   3.105   5.949  13.078  1.1242  1.2887 -1.7571
 6561TIP3    H241099   2.959   5.927  13.044  0.6037  0.8832  0.5703
 6562TIP3   OH241100   1.902   6.514  10.607  0.5640 -1.2876 -0.2229
 6562TIP3    H141101   1.949   6.520  10.524  0.7300 -2.0059 -0.1845
 6562TIP3    H241102   1.810   6.506  10.583  0.2886  1.2624 -0.2895
 6563TIP3   OH241103   1.662   2.929   0.860 -0.4105 -0.5458 -0.0136
 6563TIP3    H141104   1.611   2.900   0.936 -1.2424 -0.1851 -0.4132
 6563TIP3    H241105   1.621   3.012   0.835 -1.3681 -1.5217 -1.9595
 6564TIP3   OH241106   0.046   0.102  15.213 -0.0847  0.0402 -0.1049
 6564TIP3    H141107   0.074   0.151  15.136  0.8501 -1.4601 -0.7643
 6564TIP3    H241108   0.042   0.011  15.184 -1.1022 -0.3829  1.2588
 6565TIP3   OH241109   5.462   4.530  11.967  0.2668 -0.2725  0.1650
 6565TIP3    H141110   5.541   4.538  11.914 -1.0052  0.4363 -1.7173
 6565TIP3    H241111   5.439   4.437  11.962  0.2136 -0.2289 -0.4397
 6566TIP3   OH241112   3.002   0.907  10.758 -0.2700  0.2397  0.6230
 6566TIP3    H141113   2.907   0.911  10.769 -0.6358  0.4376 -1.9571
 6566TIP3    H241114   3.018   0.819  10.725  0.1206  0.9686 -1.2117
 6567TIP3   OH241115   3.816   4.432  14.787 -0.6374  0.3624  0.0352
 6567TIP3    H141116   3.872   4.510  14.786 -0.7041  0.4064 -0.4260
 6567TIP3    H241117   3.855   4.374  14.722  0.1254 -0.5049  1.2308
 6568TIP3   OH241118   1.513   1.125   4.340  0.6277  0.1022 -0.2601
 6568TIP3    H141119   1.430   1.082   4.362 -0.1732  1.1768 -1.1026
 6568TIP3    H241120   1.579   1.058   4.359 -0.6316 -1.9427 -2.4540
 6569TIP3   OH241121   4.627   5.492  14.769  0.4329  0.8069  0.6451
 6569TIP3    H141122   4.534   5.475  14.783  0.4583 -0.6597 -0.6464
 6569TIP3    H241123   4.629   5.570  14.714  0.0741  1.9048  2.1194
 6570TIP3   OH241124   2.570   6.037   1.531 -0.1136  0.2519 -0.0342
 6570TIP3    H141125   2.515   6.051   1.608  2.0231  0.8826  1.4679
 6570TIP3    H241126   2.599   6.125   1.507  0.0190 -0.0385 -0.9679
 6571TIP3   OH241127   0.343   2.277  14.868 -0.2136 -0.6934 -0.2107
 6571TIP3    H141128   0.305   2.226  14.796 -0.7949 -1.1389  0.3947
 6571TIP3    H241129   0.425   2.311  14.833 -1.6632  1.2242 -1.9174
 6572TIP3   OH241130   1.030   5.758  15.693 -0.4882 -0.0679 -0.0642
 6572TIP3    H141131   1.022   5.841  15.739 -1.5065 -0.2298  0.0711
 6572TIP3    H241132   1.104   5.714  15.735 -1.9492 -0.6280  2.1099
 6573TIP3   OH241133   4.337   4.308   5.865 -0.7539 -0.0714  0.4459
 6573TIP3    H141134   4.427   4.308   5.898 -0.9102  1.4458  0.9562
 6573TIP3    H241135   4.315   4.401   5.856 -1.7828 -0.4292 -1.0611
 6574TIP3   OH241136   1.693   1.377  11.919  0.2557  0.3565  0.0118
 6574TIP3    H141137   1.621   1.404  11.861 -0.2930  3.6678  1.9775
 6574TIP3    H241138   1.650   1.324  11.986  0.5447 -1.6565 -1.3013
 6575TIP3   OH241139   6.048   3.652  12.135  0.3070  0.2537 -0.0852
 6575TIP3    H141140   5.997   3.615  12.206  1.3538  1.3616  1.2996
 6575TIP3    H241141   6.092   3.577  12.095 -0.5041 -0.4091  0.2434
 6576TIP3   OH241142   4.154   0.000   1.642 -0.4262  0.3252  0.6833
 6576TIP3    H141143   4.199  -0.074   1.601 -1.7986  0.0211 -0.3496
 6576TIP3    H241144   4.120  -0.035   1.724  0.1812  0.2393  0.9084
 6577TIP3   OH241145   5.060   2.607   2.216 -0.0813 -0.0806 -0.1705
 6577TIP3    H141146   5.139   2.579   2.261  0.2676  0.3165 -0.5289
 6577TIP3    H241147   5.085   2.614   2.124 -0.1738  1.2998 -0.1113
 6578TIP3   OH241148   4.758   5.131  13.416  0.0990  0.6980 -0.0755
 6578TIP3    H141149   4.840   5.154  13.373  0.0579 -0.3843 -0.7859
 6578TIP3    H241150   4.698   5.111  13.343 -0.3139 -0.0753  0.4626
 6579TIP3   OH241151   1.226   3.108  16.809 -0.6289 -0.3331 -0.3220
 6579TIP3    H141152   1.137   3.074  16.794  0.1928 -2.3546 -0.9753
 6579TIP3    H241153   1.281   3.057  16.750  1.0925  0.2840  0.6799
 6580TIP3   OH241154   5.545   3.082   5.864  0.0709 -0.3873  0.2034
 6580TIP3    H141155   5.605   3.155   5.850 -1.9071  1.0847 -1.0414
 6580TIP3    H241156   5.481   3.115   5.926  0.5502 -1.9896  1.6353
 6581TIP3   OH241157   1.700   0.985  13.848  0.3751 -0.2172  0.2850
 6581TIP3    H141158   1.632   0.947  13.905 -0.2616 -0.0425 -0.3494
 6581TIP3    H241159   1.729   0.912  13.794 -0.7512  0.1326 -0.8393
 6582TIP3   OH241160   0.477   3.230  13.424  0.1390 -0.3789  0.5392
 6582TIP3    H141161   0.385   3.257  13.422  0.1117 -0.4982 -0.0639
 6582TIP3    H241162   0.517   3.286  13.490  0.0040  0.8832 -0.4289
 6583TIP3   OH241163   4.321   6.201  12.334  0.2183  0.0428 -0.3494
 6583TIP3    H141164   4.302   6.131  12.272  0.5266  0.7896 -1.3109
 6583TIP3    H241165   4.398   6.170  12.382  0.4300 -0.2255 -0.8552
 6584TIP3   OH241166   1.774   6.210   2.790 -0.7106 -0.0334 -0.2973
 6584TIP3    H141167   1.839   6.140   2.787  0.5006  1.0753 -2.5429
 6584TIP3    H241168   1.762   6.227   2.883  3.4573  0.7474  0.3142
 6585TIP3   OH241169   2.952   0.904  16.673  0.3777 -0.0501 -0.2784
 6585TIP3    H141170   3.045   0.896  16.649  0.6463 -0.1402  0.7118
 6585TIP3    H241171   2.947   0.863  16.760 -0.3520  0.9822  0.1891
 6586TIP3   OH241172   0.500   2.615  17.065 -0.1642 -0.0698  0.2020
 6586TIP3    H141173   0.570   2.633  17.002 -0.2316 -0.2013  0.0865
 6586TIP3    H241174   0.543   2.571  17.138 -0.2957 -1.1458 -0.3582
 6587TIP3   OH241175   5.682   5.696  15.524 -0.2408 -0.6739 -0.1411
 6587TIP3    H141176   5.727   5.651  15.595  1.2417 -1.5478 -1.5494
 6587TIP3    H241177   5.648   5.626  15.469  0.4100 -0.0715 -1.3466
 6588TIP3   OH241178   5.483   5.490   1.456  0.0725 -0.0374 -0.2726
 6588TIP3    H141179   5.408   5.547   1.438  0.8391  0.9200 -0.5171
 6588TIP3    H241180   5.444   5.405   1.474 -1.4219  1.2112  3.4392
 6589TIP3   OH241181   5.862   5.213  16.220 -0.1498  0.0834 -0.0675
 6589TIP3    H141182   5.803   5.138  16.221  0.7385 -0.6459  1.7743
 6589TIP3    H241183   5.883   5.229  16.312  1.0055  1.5371 -0.5409
 6590TIP3   OH241184   2.500   0.517   6.127  0.0261  0.1799 -0.0109
 6590TIP3    H141185   2.434   0.489   6.190  0.7287  1.0572  1.1722
 6590TIP3    H241186   2.571   0.454   6.137  0.3885  0.6596  0.5405
 6591TIP3   OH241187   3.694   1.500   2.404 -0.1262  0.0818  0.0630
 6591TIP3    H141188   3.613   1.509   2.454 -1.9193 -0.8305 -2.4680
 6591TIP3    H241189   3.672   1.529   2.315  1.6531 -2.1986 -1.2642
 6592TIP3   OH241190   3.972   6.026   5.123  0.1340  0.4246 -0.0158
 6592TIP3    H141191   4.003   5.973   5.196 -2.2948 -2.3402 -0.7828
 6592TIP3    H241192   3.876   6.023   5.130 -0.1533  2.9422 -1.4230
 6593TIP3   OH241193   3.235   0.147  16.779 -0.3862 -0.1156 -0.1234
 6593TIP3    H141194   3.184   0.200  16.841  0.8555  0.4724  0.4408
 6593TIP3    H241195   3.252   0.065  16.826 -1.0131 -0.4203 -0.4141
 6594TIP3   OH241196   0.411   4.222  13.767  0.1682  0.1203 -0.0612
 6594TIP3    H141197   0.402   4.216  13.862  1.1231 -1.0178 -0.0316
 6594TIP3    H241198   0.493   4.269  13.754  0.0523  0.2507 -0.3362
 6595TIP3   OH241199   3.467   1.543   5.210 -0.2941 -0.3012  0.7421
 6595TIP3    H141200   3.509   1.553   5.295  0.0581  1.8267  0.3693
 6595TIP3    H241201   3.537   1.514   5.152 -0.3060 -0.7634  0.9506
 6596TIP3   OH241202   1.974   2.950   0.870 -0.1748 -0.8312 -0.5216
 6596TIP3    H141203   1.979   3.040   0.837 -0.0967 -1.3294 -1.9756
 6596TIP3    H241204   1.885   2.921   0.846 -0.2635 -1.0861  0.0961
 6597TIP3   OH241205   4.356   6.353  13.580  0.4084 -0.5183  0.2732
 6597TIP3    H141206   4.438   6.322  13.617 -0.7374 -1.6525  1.9673
 6597TIP3    H241207   4.289   6.331  13.645 -1.1254  1.3100 -0.5664
 6598TIP3   OH241208   1.842   0.102   2.914  0.9933 -0.0823  1.2026
 6598TIP3    H141209   1.874   0.182   2.874  0.0998 -0.3107 -0.0212
 6598TIP3    H241210   1.896   0.033   2.875  0.7054 -0.2225  1.0514
 6599TIP3   OH241211   0.580   3.468  12.217  0.0771 -0.2164  0.4734
 6599TIP3    H141212   0.518   3.397  12.233 -1.1893  0.6754 -0.2654
 6599TIP3    H241213   0.594   3.509  12.303 -1.2754  0.2705  0.4872
 6600TIP3   OH241214   5.333   3.017  13.421 -0.0546 -0.7599  0.0042
 6600TIP3    H141215   5.291   2.938  13.453  1.2465 -1.5151 -0.0836
 6600TIP3    H241216   5.427   2.999  13.427  0.3514  1.5338  1.9288
 6601TIP3   OH241217   0.710   4.836   6.386  0.6212  0.2291  0.5566
 6601TIP3    H141218   0.654   4.783   6.329  0.9378  0.8648 -0.3628
 6601TIP3    H241219   0.746   4.773   6.448 -0.5717 -0.3009  0.7414
 6602TIP3   OH241220   1.657   1.021  15.719  0.3744  0.2108 -0.0135
 6602TIP3    H141221   1.577   1.034  15.770  0.8684 -0.1735  0.8824
 6602TIP3    H241222   1.656   0.929  15.696  0.8333  0.0637  0.5088
 6603TIP3   OH241223   4.648   2.955  14.399 -0.0048  0.5286  0.4447
 6603TIP3    H141224   4.633   2.910  14.482 -0.3602  1.0968  0.6917
 6603TIP3    H241225   4.703   3.030  14.422 -1.3861  1.5754  0.4378
 6604TIP3   OH241226   4.329   5.762   6.381  0.4271  0.1631  0.2637
 6604TIP3    H141227   4.264   5.831   6.368 -0.6500 -0.7301  0.7250
 6604TIP3    H241228   4.310   5.699   6.312  1.3515  0.2642 -0.1028
 6605TIP3   OH241229   6.003   0.630   5.082 -0.0599  0.1479  0.1560
 6605TIP3    H141230   5.996   0.543   5.042 -2.2988 -0.0833  0.9131
 6605TIP3    H241231   6.041   0.614   5.168  1.9822  0.2958 -0.6535
 6606TIP3   OH241232   0.371   6.725  12.401 -0.4678 -0.0243  0.2150
 6606TIP3    H141233   0.459   6.690  12.420 -0.4543 -0.4227 -0.5283
 6606TIP3    H241234   0.319   6.702  12.478 -0.2397 -0.9528  0.1063
 6607TIP3   OH241235   2.841   3.266  16.132 -0.2136  0.1273 -0.3282
 6607TIP3    H141236   2.862   3.338  16.192 -0.1370 -0.6809  0.6364
 6607TIP3    H241237   2.862   3.301  16.045  0.5435  1.0092  0.1892
 6608TIP3   OH241238   0.877   2.565  12.096  0.3670  0.5620 -0.4692
 6608TIP3    H141239   0.900   2.506  12.025 -0.7840  2.1952 -2.3097
 6608TIP3    H241240   0.878   2.652  12.056  0.3087  1.6187  1.6970
 6609TIP3   OH241241   6.579   1.680  11.158  1.0029 -0.2707 -0.2697
 6609TIP3    H141242   6.575   1.588  11.134 -1.1956  0.1179 -1.6531
 6609TIP3    H241243   6.545   1.684  11.247  0.9613 -0.7925 -0.2632
 6610TIP3   OH241244   2.689   1.869   3.756 -0.0639 -0.3530 -0.1734
 6610TIP3    H141245   2.712   1.920   3.678 -0.8429 -1.4525 -1.1490
 6610TIP3    H241246   2.710   1.779   3.733 -2.4742 -1.0260 -0.0270
 6611TIP3   OH241247   0.425   4.721   1.941 -0.6416 -0.0709  0.5073
 6611TIP3    H141248   0.452   4.735   2.031  0.4907 -1.0245  0.3461
 6611TIP3    H241249   0.507   4.716   1.892 -1.2559  1.3712 -0.7340
 6612TIP3   OH241250   1.081   4.689  11.693 -0.1174  0.3821 -0.3186
 6612TIP3    H141251   0.987   4.682  11.676  0.1259 -0.1411 -1.5505
 6612TIP3    H241252   1.113   4.599  11.686  0.4450  0.5104  0.4094
 6613TIP3   OH241253   3.073   4.275   6.089  0.1899  0.2667  0.3361
 6613TIP3    H141254   3.132   4.319   6.151 -0.9984  0.0805  1.6491
 6613TIP3    H241255   3.038   4.200   6.138 -2.2995  1.2259  0.1787
 6614TIP3   OH241256   1.912   5.981   2.781  0.2275 -0.0095  0.3994
 6614TIP3    H141257   1.944   5.895   2.755  0.4929  0.2593 -0.1680
 6614TIP3    H241258   1.873   5.966   2.867 -1.4534 -1.0970 -0.4902
 6615TIP3   OH241259   5.818   5.512  16.253  0.0784 -0.1518  0.6502
 6615TIP3    H141260   5.736   5.505  16.301 -0.3142  1.3196  0.2409
 6615TIP3    H241261   5.816   5.599  16.214  1.9717  0.0388  0.8824
 6616TIP3   OH241262   3.413   6.281  13.311  0.3074 -0.2322 -0.5991
 6616TIP3    H141263   3.405   6.291  13.406  0.5763 -0.8041 -0.5123
 6616TIP3    H241264   3.330   6.313  13.276 -0.2829 -1.1651 -0.0857
 6617TIP3   OH241265   1.889   0.456   4.276  0.7514  0.2464 -0.3033
 6617TIP3    H141266   1.978   0.487   4.290  0.3954  0.6567  1.2963
 6617TIP3    H241267   1.894   0.401   4.199  2.2400  0.8767 -0.6852
 6618TIP3   OH241268   0.693   4.021  11.502  1.2899 -0.2641 -0.2700
 6618TIP3    H141269   0.758   4.019  11.572  0.5536 -0.7996  0.4214
 6618TIP3    H241270   0.744   4.014  11.421  2.0655 -0.9598  0.2617
 6619TIP3   OH241271   4.165   3.371  10.927 -0.2348 -0.0465  0.5112
 6619TIP3    H141272   4.079   3.358  10.968 -0.2328  0.1505  0.5809
 6619TIP3    H241273   4.177   3.466  10.928 -0.2939 -0.0309 -0.0616
 6620TIP3   OH241274   6.341   3.327  12.585 -0.1886 -0.0633 -0.4887
 6620TIP3    H141275   6.349   3.379  12.665 -0.1169 -0.2345 -0.3842
 6620TIP3    H241276   6.426   3.335  12.542  0.3025 -1.2455  0.2313
 6621TIP3   OH241277   5.807   2.700  10.914 -0.3259 -0.5986  0.1200
 6621TIP3    H141278   5.855   2.630  10.957  2.5083  0.6585 -0.7650
 6621TIP3    H241279   5.850   2.710  10.829  0.7732  3.4361  0.9343
 6622TIP3   OH241280   3.396   2.522   5.113 -0.3190 -0.2239  0.3022
 6622TIP3    H141281   3.372   2.611   5.088  0.4420 -0.2146 -0.4279
 6622TIP3    H241282   3.470   2.533   5.173 -1.1079 -0.3183  1.3195
 6623TIP3   OH241283   6.734   2.312   6.069  0.3820 -0.0098 -0.3083
 6623TIP3    H141284   6.666   2.324   6.136 -1.4066  1.2154 -2.1929
 6623TIP3    H241285   6.796   2.383   6.086 -1.2980  1.8086 -1.2410
 6624TIP3   OH241286   3.407   3.508   5.047 -0.5882 -0.1146 -0.2309
 6624TIP3    H141287   3.363   3.490   4.964 -0.0492 -0.4190 -0.4521
 6624TIP3    H241288   3.453   3.591   5.033  0.4183 -0.7232 -0.6109
 6625TIP3   OH241289   4.123   6.387   0.467  0.0091  0.2084 -0.2215
 6625TIP3    H141290   4.173   6.469   0.466  0.8303 -0.2685  0.2520
 6625TIP3    H241291   4.036   6.411   0.436 -0.0150  1.4250  0.7075
 6626TIP3   OH241292   5.688   0.472   3.700  0.3253 -0.0709 -0.4035
 6626TIP3    H141293   5.651   0.412   3.636  1.0326 -0.0968 -0.7858
 6626TIP3    H241294   5.702   0.553   3.652  1.0656 -0.1592 -0.3493
 6627TIP3   OH241295   6.762   1.178  13.533  0.0975 -0.0693 -0.2485
 6627TIP3    H141296   6.672   1.208  13.520  0.3014  0.2765 -0.9002
 6627TIP3    H241297   6.807   1.198  13.451  0.1167 -2.7807 -0.9870
 6628TIP3   OH241298   5.366   3.331  13.779  0.7013  0.9256 -0.5368
 6628TIP3    H141299   5.339   3.240  13.777  0.0706  1.1280 -2.0744
 6628TIP3    H241300   5.460   3.329  13.757  0.9125  0.5898  0.3582
 6629TIP3   OH241301   1.995   3.192   6.115 -0.4465  0.2187 -0.2164
 6629TIP3    H141302   1.975   3.235   6.199 -0.3302  0.5476 -0.3563
 6629TIP3    H241303   2.081   3.226   6.091 -0.9652  1.0140 -1.0368
 6630TIP3   OH241304   1.156   2.954  14.422  0.0755 -0.0774  0.8721
 6630TIP3    H141305   1.144   2.929  14.514 -0.4060 -1.0037  0.5752
 6630TIP3    H241306   1.228   3.018  14.423  0.7373 -0.8097  1.7819
 6631TIP3   OH241307   2.620   6.781   5.775 -0.0410 -0.7089  0.3960
 6631TIP3    H141308   2.533   6.756   5.806 -0.0188 -1.7732 -0.3729
 6631TIP3    H241309   2.619   6.762   5.682 -0.6716  3.9256 -0.8214
 6632TIP3   OH241310   0.707   3.878  13.618 -0.3311  0.3083 -0.5469
 6632TIP3    H141311   0.758   3.919  13.688  0.5414 -1.6994  0.0761
 6632TIP3    H241312   0.744   3.913  13.537 -0.2793  1.4594 -0.0423
 6633TIP3   OH241313   5.711   2.270   1.712  0.1764 -0.1109  0.2382
 6633TIP3    H141314   5.797   2.230   1.727 -0.6504 -1.6564  1.0573
 6633TIP3    H241315   5.731   2.353   1.668  2.0803 -0.4301  0.4079
 6634TIP3   OH241316   4.712   6.748   4.361  0.8653 -0.2947  0.0428
 6634TIP3    H141317   4.686   6.839   4.345  0.7929 -0.2596  0.3692
 6634TIP3    H241318   4.630   6.700   4.365  0.8689 -0.2430  0.7048
 6635TIP3   OH241319   1.669   1.641   5.687 -0.0778  0.3725  0.0037
 6635TIP3    H141320   1.622   1.641   5.603 -1.1633  1.6866  0.5605
 6635TIP3    H241321   1.708   1.729   5.692 -0.1347  0.3580  0.9196
 6636TIP3   OH241322   2.226   1.802   2.083 -0.0151 -0.1276  0.1699
 6636TIP3    H141323   2.314   1.789   2.117  0.0063 -0.7217 -0.1097
 6636TIP3    H241324   2.169   1.791   2.159  0.2120  1.5259  0.6317
 6637TIP3   OH241325   4.204   1.989  16.487  0.0615 -0.3732  0.1892
 6637TIP3    H141326   4.140   2.021  16.550 -0.1092  1.2147 -0.7261
 6637TIP3    H241327   4.164   1.911  16.449 -0.5927 -0.3379  0.7936
 6638TIP3   OH241328   4.119   5.706   2.548 -0.1274 -0.0778 -0.2118
 6638TIP3    H141329   4.060   5.749   2.486  0.5434 -1.3666 -1.8282
 6638TIP3    H241330   4.064   5.641   2.592 -0.3676  0.0884 -0.2664
 6639TIP3   OH241331   1.788   2.296   1.877  0.0528 -0.3125  0.1861
 6639TIP3    H141332   1.812   2.271   1.788 -0.3894  0.0107 -0.0320
 6639TIP3    H241333   1.692   2.301   1.874  0.1256  2.0922  0.0126
 6640TIP3   OH241334   3.499   2.589  14.237 -0.2727 -0.8124 -0.0126
 6640TIP3    H141335   3.541   2.675  14.240  0.1460 -1.0391  1.0650
 6640TIP3    H241336   3.405   2.608  14.245 -0.1201 -0.4997  1.1816
 6641TIP3   OH241337   2.392   3.799   1.321 -0.6763 -0.5972 -0.5556
 6641TIP3    H141338   2.387   3.894   1.313 -1.5306 -0.4286  1.5075
 6641TIP3    H241339   2.483   3.781   1.341 -0.6091 -0.1787 -0.4795
 6642TIP3   OH241340   4.352   0.447  13.077  0.4758  0.1373 -0.0941
 6642TIP3    H141341   4.344   0.385  13.150  3.0243 -1.6255 -1.1613
 6642TIP3    H241342   4.280   0.423  13.018  0.6289 -0.9388  0.1283
 6643TIP3   OH241343   1.503   2.480  13.656  0.0587 -0.2965  0.1372
 6643TIP3    H141344   1.490   2.539  13.730  0.6193  1.4102 -1.0779
 6643TIP3    H241345   1.598   2.466  13.653  0.0394 -0.3455 -0.2642
 6644TIP3   OH241346   2.831   5.308  14.786 -0.4214 -0.0117  0.0171
 6644TIP3    H141347   2.802   5.339  14.701  0.1337 -0.1382 -0.2289
 6644TIP3    H241348   2.856   5.217  14.771  2.9349  0.8668 -0.5317
 6645TIP3   OH241349   4.496   3.388  13.465 -0.4681  0.3414 -0.5941
 6645TIP3    H141350   4.443   3.308  13.468  0.2376 -0.1949 -1.7150
 6645TIP3    H241351   4.524   3.402  13.556 -1.9067  0.2313 -0.1141
 6646TIP3   OH241352   5.275   1.322   6.485  0.2586  0.3516  0.0178
 6646TIP3    H141353   5.202   1.260   6.488  1.4466 -1.2435 -1.4986
 6646TIP3    H241354   5.352   1.269   6.507  1.2596  1.3668 -0.8984
 6647TIP3   OH241355   2.946   6.323   2.962 -0.5285  0.1155  0.2869
 6647TIP3    H141356   2.868   6.268   2.948  1.1442 -2.4161  0.2677
 6647TIP3    H241357   3.018   6.261   2.970  1.6163  2.3681 -0.2355
 6648TIP3   OH241358   2.650   4.317   3.570  0.0152 -0.3702 -0.1141
 6648TIP3    H141359   2.626   4.275   3.653  0.3284 -0.5959 -0.1391
 6648TIP3    H241360   2.616   4.259   3.502 -0.1007 -0.2664 -0.1453
 6649TIP3   OH241361   0.970   1.370  11.779 -0.3921 -0.2012  0.1988
 6649TIP3    H141362   1.020   1.359  11.698 -1.1514  0.5856 -0.3921
 6649TIP3    H241363   1.033   1.348  11.848  0.3515 -0.6082 -0.5817
 6650TIP3   OH241364   3.831   4.203   1.079  0.3108 -0.4969  0.7464
 6650TIP3    H141365   3.880   4.198   1.161  0.7285 -1.5941  0.4534
 6650TIP3    H241366   3.764   4.135   1.087  1.6153 -2.0436 -0.5817
 6651TIP3   OH241367   4.819   0.830  16.971  0.5472  0.0716  0.1684
 6651TIP3    H141368   4.745   0.827  17.032  0.2185 -0.2043 -0.2458
 6651TIP3    H241369   4.846   0.922  16.971 -0.8939  0.5281 -0.9928
 6652TIP3   OH241370   2.951   1.973   2.242 -0.0268 -0.0122  0.4252
 6652TIP3    H141371   2.995   2.058   2.251  0.4747 -0.1723 -0.3636
 6652TIP3    H241372   3.023   1.911   2.225 -0.5366 -0.2711 -0.9478
 6653TIP3   OH241373   4.615   6.641  11.841  0.5036 -0.1322  0.4353
 6653TIP3    H141374   4.709   6.630  11.827  0.0552 -2.1459 -1.4069
 6653TIP3    H241375   4.599   6.604  11.928  1.3894  0.3724  0.8348
 6654TIP3   OH241376   2.850   0.862  11.579  0.1736  0.5121  0.1588
 6654TIP3    H141377   2.773   0.904  11.615 -1.1590 -0.6290 -1.2122
 6654TIP3    H241378   2.821   0.827  11.495  1.8355 -1.0847  0.1904
 6655TIP3   OH241379   0.407   3.655  16.592 -0.3791  0.1239  0.1445
 6655TIP3    H141380   0.450   3.574  16.620  1.1020  0.9249  0.2609
 6655TIP3    H241381   0.321   3.652  16.634 -0.4934 -1.5460 -0.1266
 6656TIP3   OH241382   6.454   6.223   5.488 -0.5886  0.1972  0.3858
 6656TIP3    H141383   6.471   6.316   5.469 -1.9497  0.5274  0.6588
 6656TIP3    H241384   6.536   6.190   5.522 -0.2109  1.4367  0.7434
 6657TIP3   OH241385   3.911   3.554   1.685 -0.1336 -0.4720  0.0854
 6657TIP3    H141386   3.948   3.585   1.602  1.4405  1.9177  1.5451
 6657TIP3    H241387   3.877   3.633   1.726  0.9790 -1.2010  2.5785
 6658TIP3   OH241388   2.921   3.559   5.178 -0.1269 -0.0101  0.9885
 6658TIP3    H141389   2.941   3.643   5.137 -1.0546  0.2692  1.0940
 6658TIP3    H241390   2.842   3.528   5.134  0.6545 -1.2236  0.3836
 6659TIP3   OH241391   2.523   3.162  14.246  0.1754  0.5592 -0.7823
 6659TIP3    H141392   2.535   3.247  14.203  1.4120  0.5323 -0.5347
 6659TIP3    H241393   2.515   3.184  14.339  0.6978  0.3965 -0.6967
 6660TIP3   OH241394   5.465   6.631   5.448  0.0757 -0.0572 -0.5391
 6660TIP3    H141395   5.378   6.603   5.477  0.0746 -1.9140 -2.1083
 6660TIP3    H241396   5.448   6.704   5.389 -0.3259  0.2232 -0.0826
 6661TIP3   OH241397   1.856   0.030  12.845  0.1673  0.0214 -0.0971
 6661TIP3    H141398   1.814  -0.056  12.845 -0.4375  0.2664  1.6112
 6661TIP3    H241399   1.949   0.011  12.862 -0.0672 -0.2788  0.9178
 6662TIP3   OH241400   5.017   5.183  11.933  0.5771  0.7274 -0.1818
 6662TIP3    H141401   4.974   5.105  11.897 -1.3886  1.2725  0.8210
 6662TIP3    H241402   5.108   5.176  11.903  1.3478 -3.4840  2.3251
 6663TIP3   OH241403   4.740   1.067  13.318  0.0457  0.1273 -0.2421
 6663TIP3    H141404   4.820   1.022  13.290 -0.2595 -1.4159  1.2087
 6663TIP3    H241405   4.686   0.999  13.358 -0.4158  1.7485  2.1521
 6664TIP3   OH241406   4.468   6.137  13.205  0.2596 -0.1244  0.3216
 6664TIP3    H141407   4.559   6.147  13.176  0.0752  0.6991 -0.0138
 6664TIP3    H241408   4.453   6.213  13.261 -0.3714  0.0230 -0.0376
 6665TIP3   OH241409   0.069   4.638  16.374  0.1733 -0.3393  0.5510
 6665TIP3    H141410   0.103   4.591  16.450  2.6218  1.2849  0.5855
 6665TIP3    H241411   0.138   4.701  16.353 -1.4424  0.8178 -1.6176
 6666TIP3   OH241412   4.489   0.091  10.965 -0.5748  0.1722  0.3594
 6666TIP3    H141413   4.581   0.116  10.959 -0.0189 -1.9597 -1.5484
 6666TIP3    H241414   4.444   0.172  10.989  1.9376  0.8748  3.3256
 6667TIP3   OH241415   2.921   2.640  15.222 -0.4263 -0.1312  0.0316
 6667TIP3    H141416   2.943   2.551  15.195 -0.3718 -0.2310  0.3907
 6667TIP3    H241417   2.863   2.673  15.153  1.5610  0.4887 -1.4379
 6668TIP3   OH241418   2.573   4.087   1.108 -0.0830  0.3074  0.3894
 6668TIP3    H141419   2.586   4.131   1.024 -2.1473  0.3891  0.0567
 6668TIP3    H241420   2.653   4.036   1.121 -0.7197 -1.8824 -3.0031
 6669TIP3   OH241421   4.919   5.498  13.393  0.1137  0.0285 -0.4379
 6669TIP3    H141422   4.871   5.568  13.349 -0.6186  0.7649  1.4317
 6669TIP3    H241423   5.010   5.511  13.365 -0.0058  1.7410 -0.1471
 6670TIP3   OH241424   1.933   4.243   1.238 -0.3828  0.2401  0.0374
 6670TIP3    H141425   2.012   4.216   1.192 -0.9335 -0.1283 -0.7065
 6670TIP3    H241426   1.965   4.281   1.320  0.5605  0.1051 -0.2568
 6671TIP3   OH241427   3.176   3.617   1.270  0.2097 -0.0256 -0.0502
 6671TIP3    H141428   3.226   3.662   1.338  0.1507  1.3168 -0.8557
 6671TIP3    H241429   3.242   3.571   1.219  0.9868  2.9908 -2.0676
 6672TIP3   OH241430   5.817   5.204  14.188 -0.5271  0.4875 -0.6784
 6672TIP3    H141431   5.758   5.249  14.248 -1.8800 -0.4549 -1.2530
 6672TIP3    H241432   5.764   5.134  14.150  0.4872  0.6165 -2.4434
 6673TIP3   OH241433   1.481   6.192   5.201  0.2565 -0.7044  0.1592
 6673TIP3    H141434   1.517   6.280   5.212  1.2786 -0.6112 -2.9878
 6673TIP3    H241435   1.523   6.141   5.270  1.9595  0.6533  0.2112
 6674TIP3   OH241436   3.343   4.700  12.391  0.0788  0.0520 -0.1125
 6674TIP3    H141437   3.300   4.770  12.342 -1.0171 -1.1530 -0.9408
 6674TIP3    H241438   3.429   4.692  12.351 -0.7976 -0.9055 -1.8950
 6675TIP3   OH241439   1.883   5.995   0.369  0.2502 -0.3328 -0.0687
 6675TIP3    H141440   1.864   5.962   0.281  1.1717  0.8681 -0.7570
 6675TIP3    H241441   1.806   5.972   0.421  0.3720 -2.5243 -0.7562
 6676TIP3   OH241442   2.456   5.675  14.605 -0.5337  0.2196 -0.4364
 6676TIP3    H141443   2.544   5.708  14.588 -1.3154  2.1595 -1.0424
 6676TIP3    H241444   2.405   5.703  14.530 -1.5631 -1.4596 -0.4173
 6677TIP3   OH241445   4.920   1.844  15.437 -0.4173  0.3390  0.4850
 6677TIP3    H141446   4.842   1.787  15.433 -0.6125  0.5975  0.6238
 6677TIP3    H241447   4.992   1.783  15.453 -0.4896  0.0113 -0.3860
 6678TIP3   OH241448   2.355   0.407  13.730  0.3476 -0.0896  0.2431
 6678TIP3    H141449   2.433   0.456  13.707  0.9680 -0.6561  1.0970
 6678TIP3    H241450   2.360   0.395  13.825 -0.1240 -1.2147  0.1491
 6679TIP3   OH241451   1.144   4.944   2.524  0.2776  0.0950 -0.9276
 6679TIP3    H141452   1.127   4.855   2.554 -0.3741  0.4943 -0.0734
 6679TIP3    H241453   1.240   4.948   2.517  0.7709  0.5613  3.2450
 6680TIP3   OH241454   3.522   6.726  14.999 -0.2411  0.4452  0.9164
 6680TIP3    H141455   3.486   6.657  15.056  1.6011 -1.3912 -0.0039
 6680TIP3    H241456   3.607   6.746  15.037  0.4120  0.2109 -0.3703
 6681TIP3   OH241457   0.137   6.193  15.880  0.8281 -0.0213  0.4636
 6681TIP3    H141458   0.166   6.206  15.970 -2.4021 -0.6017  1.7219
 6681TIP3    H241459   0.171   6.107  15.856  0.3002 -0.6487  1.8292
 6682TIP3   OH241460   1.164   4.223  16.607 -0.9170  0.1038 -0.3830
 6682TIP3    H141461   1.180   4.191  16.519  1.1965 -0.0745  0.0102
 6682TIP3    H241462   1.246   4.209  16.653 -2.1847 -0.5304  1.8622
 6683TIP3   OH241463   3.766   6.592  15.714 -0.1391  0.8131  0.2719
 6683TIP3    H141464   3.701   6.536  15.757 -0.2723  1.0264  0.3496
 6683TIP3    H241465   3.760   6.676  15.760  0.6570  0.6390  0.7155
 6684TIP3   OH241466   1.838   5.516   3.822  0.4156 -0.1283  0.4900
 6684TIP3    H141467   1.922   5.547   3.789  0.2488  1.2089  1.2408
 6684TIP3    H241468   1.851   5.506   3.916 -0.0483 -0.6521  0.5027
 6685TIP3   OH241469   1.387   1.853  11.909  0.1993 -0.5799  0.4685
 6685TIP3    H141470   1.425   1.836  11.823 -0.0020 -2.6421  0.7230
 6685TIP3    H241471   1.442   1.921  11.947  1.3987 -0.9211 -0.5919
 6686TIP3   OH241472   3.797   3.803   5.297  0.2230  0.1315 -0.2603
 6686TIP3    H141473   3.885   3.765   5.295 -0.0027 -0.3805 -1.6487
 6686TIP3    H241474   3.745   3.739   5.346  0.5911  0.4124  0.5252
 6687TIP3   OH241475   3.805   6.405   5.238 -0.7488  0.3011 -0.2516
 6687TIP3    H141476   3.793   6.310   5.232 -1.6513  0.1090  2.9667
 6687TIP3    H241477   3.899   6.417   5.245 -0.6576 -0.4210 -0.1440
 6688TIP3   OH241478   4.137   6.212  11.966  0.3909 -0.3269  0.3006
 6688TIP3    H141479   4.109   6.243  11.880  0.5621 -1.7849 -0.3030
 6688TIP3    H241480   4.219   6.165  11.949  0.9888  0.2819  1.4277
 6689TIP3   OH241481   3.116   1.887  14.684 -0.3054  0.2620  0.1142
 6689TIP3    H141482   3.174   1.814  14.706 -0.7886  0.1032  0.8992
 6689TIP3    H241483   3.150   1.960  14.735  0.5124  0.7468 -1.0910
 6690TIP3   OH241484   0.130   5.693   1.916 -0.2432 -0.5653  0.1563
 6690TIP3    H141485   0.087   5.733   1.992  1.8413 -0.0847  1.1431
 6690TIP3    H241486   0.151   5.604   1.944 -0.6429 -0.8231 -0.3461
 6691TIP3   OH241487   5.997   5.435   4.988 -0.1631  0.1847 -0.2710
 6691TIP3    H141488   6.003   5.362   5.050  1.0758  0.6976  0.2537
 6691TIP3    H241489   6.087   5.450   4.960 -0.6751  0.1326 -2.0373
 6692TIP3   OH241490   3.565   1.729  14.734  0.1238 -0.8469  0.3241
 6692TIP3    H141491   3.483   1.684  14.751  0.1075 -0.3198  1.8532
 6692TIP3    H241492   3.619   1.665  14.688 -2.2112 -0.1593 -3.8521
 6693TIP3   OH241493   3.600   5.606   0.397 -0.3230 -0.2438  0.0341
 6693TIP3    H141494   3.535   5.635   0.461  0.4469 -0.3416  0.8842
 6693TIP3    H241495   3.661   5.552   0.447  1.1152  0.8527 -0.4586
 6694TIP3   OH241496   3.774   1.921  12.190  0.5652 -0.2279  0.6790
 6694TIP3    H141497   3.864   1.911  12.221  1.8791  1.3003 -2.2041
 6694TIP3    H241498   3.783   1.958  12.103 -2.8649 -1.3256 -0.3165
 6695TIP3   OH241499   2.214   6.676  16.657  0.3905 -0.3800 -0.1710
 6695TIP3    H141500   2.232   6.611  16.725 -0.2265  1.0484  1.4309
 6695TIP3    H241501   2.294   6.728  16.651 -0.2371  0.7904  1.0122
 6696TIP3   OH241502   4.942   0.682   6.397  0.0602  0.4708 -0.1285
 6696TIP3    H141503   5.001   0.627   6.345  0.2156  0.4926  0.0234
 6696TIP3    H241504   4.983   0.686   6.484 -0.5604 -0.1537  0.2068
 6697TIP3   OH241505   0.906   2.985   0.585  0.7213 -0.3261 -0.3921
 6697TIP3    H141506   0.858   2.985   0.502  2.0673  0.9453 -1.2086
 6697TIP3    H241507   0.837   2.990   0.652 -0.3361  0.7453 -1.4955
 6698TIP3   OH241508   1.437   4.655   2.364  0.5666 -0.2180 -0.5479
 6698TIP3    H141509   1.395   4.577   2.328 -0.7831  0.1706  0.1135
 6698TIP3    H241510   1.419   4.724   2.299  0.3182 -0.0830 -0.3350
 6699TIP3   OH241511   3.468   5.363  12.581  0.1285 -0.0290  0.1870
 6699TIP3    H141512   3.541   5.380  12.641  0.0336  0.3270  0.2048
 6699TIP3    H241513   3.480   5.272  12.553 -0.7142 -0.7501  1.9915
 6700TIP3   OH241514   5.392   1.538  15.210 -0.1349  0.7917  0.5573
 6700TIP3    H141515   5.364   1.629  15.205  1.3194  1.3233  1.5709
 6700TIP3    H241516   5.389   1.517  15.303 -0.9999 -0.3944  0.2832
 6701TIP3   OH241517   4.398   0.003   4.059  0.4198 -0.1565  0.5460
 6701TIP3    H141518   4.480  -0.011   4.013 -0.1072 -1.1785 -0.1413
 6701TIP3    H241519   4.412  -0.037   4.145  0.2728 -1.3962  0.0126
 6702TIP3   OH241520   1.248   6.574   0.246  0.9924 -0.4838  0.2915
 6702TIP3    H141521   1.247   6.602   0.154 -1.4778  2.0440  0.9295
 6702TIP3    H241522   1.184   6.503   0.250  0.4274  0.0121  0.1899
 6703TIP3   OH241523   6.574   1.365  12.811  0.1390 -0.0342 -0.1220
 6703TIP3    H141524   6.507   1.352  12.743  0.1630  0.3616 -0.2221
 6703TIP3    H241525   6.536   1.325  12.889 -2.0372  3.5913  0.9247
 6704TIP3   OH241526   3.389   2.600  12.852 -0.1783  0.0088 -0.1395
 6704TIP3    H141527   3.373   2.530  12.915  0.6837 -0.0802 -0.0027
 6704TIP3    H241528   3.346   2.570  12.772  1.6358 -1.5394 -0.6134
 6705TIP3   OH241529   0.376   1.567  12.258  0.3451  0.3032  0.1740
 6705TIP3    H141530   0.402   1.504  12.326 -0.3145 -0.2390 -0.0601
 6705TIP3    H241531   0.349   1.512  12.185  0.1571  0.8771 -0.1891
 6706TIP3   OH241532   0.285   3.798   2.019 -0.2800  0.7644  0.3654
 6706TIP3    H141533   0.381   3.793   2.015 -0.3290  0.1640 -0.5782
 6706TIP3    H241534   0.256   3.753   1.939 -1.4036 -1.0755  1.7375
 6707TIP3   OH241535   1.562   0.215  13.406  0.0838  0.4139 -0.3926
 6707TIP3    H141536   1.563   0.195  13.499  0.2111 -0.6155 -0.6094
 6707TIP3    H241537   1.600   0.139  13.364  0.7550  1.1912 -1.2411
 6708TIP3   OH241538   2.710   0.842  15.031  0.4297  0.3312  0.4428
 6708TIP3    H141539   2.666   0.765  14.993  2.0683  0.2700 -1.4466
 6708TIP3    H241540   2.650   0.915  15.013 -0.0413 -0.1159  0.1587
 6709TIP3   OH241541   4.978   2.425   5.759  0.2987  0.0690 -0.4475
 6709TIP3    H141542   5.030   2.505   5.769  0.8663 -0.3294 -0.1445
 6709TIP3    H241543   5.039   2.362   5.721  0.2266 -0.6073  0.5410
 6710TIP3   OH241544   1.792   1.017  15.180  0.5668 -0.4662 -0.5465
 6710TIP3    H141545   1.876   0.993  15.219 -0.8237  0.8481  3.8758
 6710TIP3    H241546   1.751   0.933  15.160  1.7731 -1.2545  0.1296
 6711TIP3   OH241547   3.494   3.884  14.578 -0.6857 -0.0578 -1.1623
 6711TIP3    H141548   3.472   3.977  14.577  0.0206  0.2047  1.0608
 6711TIP3    H241549   3.589   3.882  14.593 -0.6995 -1.1371 -1.1440
 6712TIP3   OH241550   0.123   2.746   5.212 -0.2453 -0.1532  0.5141
 6712TIP3    H141551   0.183   2.687   5.167  0.8670 -0.0729  1.8304
 6712TIP3    H241552   0.055   2.689   5.247 -0.4680 -0.3537 -0.2315
 6713TIP3   OH241553   2.706   2.527  11.977 -0.0797 -0.2484 -0.0279
 6713TIP3    H141554   2.797   2.511  11.953  0.0383 -0.5406  0.6009
 6713TIP3    H241555   2.701   2.505  12.070 -0.4442  1.2088  0.3193
 6714TIP3   OH241556   2.469   3.442   0.747 -0.4775 -0.8184  0.2239
 6714TIP3    H141557   2.392   3.444   0.802 -0.2612  0.4583  0.5172
 6714TIP3    H241558   2.541   3.420   0.806 -0.2922  0.2402  0.4076
 6715TIP3   OH241559   2.810   2.991   2.100 -0.2394  0.4133  0.2981
 6715TIP3    H141560   2.824   2.980   2.194  3.3929 -0.3052 -0.1547
 6715TIP3    H241561   2.841   3.079   2.082 -2.2758  1.0835 -0.0787
 6716TIP3   OH241562   3.666   3.071  15.786 -0.5202 -0.0332  0.5101
 6716TIP3    H141563   3.657   2.988  15.739  0.9334  0.3300 -0.4730
 6716TIP3    H241564   3.579   3.110  15.784 -0.6831 -0.4305 -1.1398
 6717TIP3   OH241565   5.996   2.317  13.939  0.0963 -0.0701  0.2644
 6717TIP3    H141566   5.940   2.337  13.865 -0.3854 -0.2470  0.5774
 6717TIP3    H241567   6.071   2.271  13.901 -0.7947 -1.3978  0.0326
 6718TIP3   OH241568   1.307   0.628  15.573 -0.1876  0.3845  0.0800
 6718TIP3    H141569   1.294   0.648  15.481  1.1605 -0.4971 -0.3320
 6718TIP3    H241570   1.338   0.538  15.574 -0.8840  0.1324  1.4630
 6719TIP3   OH241571   2.058   5.781   1.476  0.1150  0.6313  0.2059
 6719TIP3    H141572   1.979   5.730   1.495 -1.1330  2.2768 -0.3015
 6719TIP3    H241573   2.085   5.752   1.389  0.6697 -0.6227  0.7705
 6720TIP3   OH241574   6.139   1.305   2.666  0.1264  0.1831  0.9135
 6720TIP3    H141575   6.062   1.309   2.610  0.0090 -0.8407  0.9855
 6720TIP3    H241576   6.211   1.286   2.606 -0.0449 -1.2301  1.1122
 6721TIP3   OH241577   2.997   3.980   3.775 -0.6289 -0.6687 -0.2529
 6721TIP3    H141578   2.968   4.066   3.805 -1.3238 -1.5005  1.6528
 6721TIP3    H241579   2.954   3.968   3.690  0.2753  1.2361 -1.0097
 6722TIP3   OH241580   1.390   4.107   0.984 -0.2296 -0.4983 -0.3115
 6722TIP3    H141581   1.437   4.032   0.946  1.2417  0.1397  0.1905
 6722TIP3    H241582   1.328   4.132   0.916  0.3162 -1.2206 -1.1112
 6723TIP3   OH241583   5.121   0.637   3.371 -0.5433 -0.3126  0.3345
 6723TIP3    H141584   5.103   0.717   3.420 -1.5542  0.8420 -1.7919
 6723TIP3    H241585   5.215   0.640   3.355 -0.8304  1.6582 -1.5243
 6724TIP3   OH241586   0.886   1.138   4.726  0.4222 -0.6162  0.6027
 6724TIP3    H141587   0.809   1.139   4.669 -0.0849 -0.1576  1.2749
 6724TIP3    H241588   0.930   1.056   4.705 -0.0369 -0.7042 -0.0662
 6725TIP3   OH241589   6.714   5.952   0.901 -0.0479  0.5369  0.1161
 6725TIP3    H141590   6.793   5.994   0.935 -0.4391  1.3490  0.0410
 6725TIP3    H241591   6.645   5.979   0.961 -0.2385 -0.3328  0.2971
 6726TIP3   OH241592   3.510   1.998  14.029 -0.4110  0.2355 -0.3255
 6726TIP3    H141593   3.450   1.972  14.098 -0.6283 -0.0108 -0.6006
 6726TIP3    H241594   3.472   2.078  13.992  0.1405  0.8357  0.3763
 6727TIP3   OH241595   6.490   3.842  13.746  0.4550 -0.1341 -0.3524
 6727TIP3    H141596   6.405   3.806  13.773  0.8531  0.0025  1.1497
 6727TIP3    H241597   6.477   3.867  13.654 -1.6785  1.5073  0.3119
 6728TIP3   OH241598   2.405   0.867  14.890  0.1870  0.2074  0.6744
 6728TIP3    H141599   2.318   0.887  14.858  0.4143  0.1105 -0.0320
 6728TIP3    H241600   2.410   0.908  14.976 -0.8418 -0.4882  1.0838
 6729TIP3   OH241601   1.371   5.335   2.055 -0.6693 -0.1640  0.5520
 6729TIP3    H141602   1.396   5.331   1.962 -1.0886 -1.5843  0.4738
 6729TIP3    H241603   1.363   5.243   2.081 -0.4786  0.2247  2.0270
 6730TIP3   OH241604   3.027   3.805   3.324 -0.3119  0.4883 -0.1318
 6730TIP3    H141605   3.043   3.740   3.255 -0.8236 -0.9110  1.0249
 6730TIP3    H241606   2.944   3.846   3.298  0.0527  0.7638 -0.9100
 6731TIP3   OH241607   0.600   2.251  14.482  0.5199  0.4498  0.3927
 6731TIP3    H141608   0.603   2.156  14.475 -0.2888  0.3000  1.7455
 6731TIP3    H241609   0.617   2.282  14.393 -1.0071 -0.9947 -0.4715
 6732TIP3   OH241610   4.133   2.602  12.974  0.2957  0.0048 -0.9284
 6732TIP3    H141611   4.165   2.549  13.046 -0.7702 -0.7772 -1.0173
 6732TIP3    H241612   4.147   2.693  13.002  0.8501 -0.3048 -0.1963
 6733TIP3   OH241613   0.233   2.065   3.548 -0.1064 -0.1673  0.9017
 6733TIP3    H141614   0.201   2.042   3.636 -3.2340  1.2631  0.2915
 6733TIP3    H241615   0.153   2.072   3.496  1.2721  3.2139 -1.0092
 6734TIP3   OH241616   2.466   5.899   2.806  0.1658  0.0158 -0.2149
 6734TIP3    H141617   2.493   5.810   2.828 -1.1498 -0.1514  0.8978
 6734TIP3    H241618   2.537   5.955   2.839  2.0048 -0.6660 -2.7469
 6735TIP3   OH241619   0.455   1.219   0.812  0.6921  0.1418 -0.1931
 6735TIP3    H141620   0.437   1.128   0.790  1.0605  0.0231 -0.0186
 6735TIP3    H241621   0.386   1.269   0.770  0.6487 -0.1965 -0.5197
 6736TIP3   OH241622   2.567   2.293  16.173 -0.2108  0.2606 -0.3290
 6736TIP3    H141623   2.626   2.244  16.115 -1.2973  0.0501 -1.3017
 6736TIP3    H241624   2.625   2.345  16.228  1.0453 -2.6395  1.2678
 6737TIP3   OH241625   3.196   1.576   5.238  0.1899 -0.2878 -0.0991
 6737TIP3    H141626   3.189   1.672   5.244  0.6931  0.1405 -4.1166
 6737TIP3    H241627   3.288   1.560   5.216 -0.3374 -1.4789 -1.6120
 6738TIP3   OH241628   0.889   6.220   1.152 -0.2882 -0.5034  0.0356
 6738TIP3    H141629   0.886   6.134   1.195  2.0859 -0.6712  0.0064
 6738TIP3    H241630   0.933   6.276   1.215  0.3580  0.0667 -0.8981
 6739TIP3   OH241631   0.722   5.361   1.134 -0.8500 -0.1385  0.7194
 6739TIP3    H141632   0.649   5.371   1.073 -1.4214 -3.2420  0.7248
 6739TIP3    H241633   0.680   5.339   1.217  0.0392 -1.1188  0.9310
 6740TIP3   OH241634   2.203   3.617  11.302  0.1320 -0.2096  0.5605
 6740TIP3    H141635   2.247   3.662  11.374 -0.4117  0.2764  0.5947
 6740TIP3    H241636   2.173   3.534  11.340  2.3499 -1.2782  0.1410
 6741TIP3   OH241637   4.014   6.295   5.037 -0.0155  0.7259 -0.1978
 6741TIP3    H141638   3.962   6.269   4.961  0.2913  0.6817 -0.3988
 6741TIP3    H241639   4.009   6.220   5.097  1.4224 -0.1299 -1.0625
 6742TIP3   OH241640   0.069   1.889   2.478 -0.5317 -0.8256  0.2178
 6742TIP3    H141641   0.034   1.825   2.540 -0.5789 -0.8479  0.1676
 6742TIP3    H241642   0.103   1.836   2.406 -1.5158 -0.7491 -0.3174
 6743TIP3   OH241643   5.057   2.980   0.058 -0.2911  0.0438 -0.6733
 6743TIP3    H141644   5.008   2.962   0.139 -0.6399 -0.6753 -1.0277
 6743TIP3    H241645   5.059   3.075   0.052 -1.8508  0.1047 -0.7491
 6744TIP3   OH241646   4.342   3.576  11.572  0.3749 -0.5856  0.1872
 6744TIP3    H141647   4.304   3.498  11.613  0.4702 -1.1804 -0.8104
 6744TIP3    H241648   4.273   3.642  11.577  0.1795 -0.8266  0.7756
 6745TIP3   OH241649   1.746   5.440   3.409 -0.3049  0.4164 -0.4046
 6745TIP3    H141650   1.750   5.365   3.468 -1.2925  0.3558 -0.3950
 6745TIP3    H241651   1.760   5.516   3.466 -2.2925  0.4370  0.1346
 6746TIP3   OH241652   4.502   1.942   0.442  1.3418  0.1115  0.0588
 6746TIP3    H141653   4.469   1.921   0.529 -0.4433  2.4061  0.0342
 6746TIP3    H241654   4.592   1.908   0.441  1.1180 -0.7277  2.4451
 6747TIP3   OH241655   4.073   0.134  12.270 -0.5011 -0.2149  1.0829
 6747TIP3    H141656   4.054   0.101  12.357 -0.9266  0.1203  1.1181
 6747TIP3    H241657   4.011   0.206  12.256 -1.0155 -0.8068  0.1787
 6748TIP3   OH241658   4.107   4.882  17.213  0.0970 -0.1928  0.2358
 6748TIP3    H141659   4.185   4.839  17.249 -0.4422 -1.1683  0.2843
 6748TIP3    H241660   4.139   4.932  17.138  0.3996 -3.0960 -1.7696
 6749TIP3   OH241661   4.593   3.028   3.414  0.4799  0.0010  0.1120
 6749TIP3    H141662   4.560   3.117   3.431 -2.6032 -1.3383  2.0774
 6749TIP3    H241663   4.539   2.972   3.469  0.3504 -3.4388 -3.1380
 6750TIP3   OH241664   6.258   2.363  12.772  0.0946  0.1719  0.5269
 6750TIP3    H141665   6.210   2.381  12.692  0.0049  0.9023  0.7330
 6750TIP3    H241666   6.192   2.369  12.842 -0.2436 -2.4052  0.5137
 6751TIP3   OH241667   1.697   4.566  15.866 -0.2661 -0.6726 -0.1826
 6751TIP3    H141668   1.781   4.548  15.823  1.0677  1.2405  1.4403
 6751TIP3    H241669   1.662   4.479  15.885  0.6006 -1.5448 -2.1858
 6752TIP3   OH241670   3.580   6.529  12.343  0.1075  0.3200  0.3238
 6752TIP3    H141671   3.573   6.536  12.248 -1.3051 -3.0485  0.0232
 6752TIP3    H241672   3.629   6.448  12.358 -3.1816 -1.5423  2.2709
 6753TIP3   OH241673   6.027   3.135   6.396 -0.1619 -0.2562  0.0497
 6753TIP3    H141674   5.979   3.057   6.366 -0.0432 -0.8364  1.2827
 6753TIP3    H241675   5.984   3.159   6.478 -0.0369  0.8421 -0.1989
 6754TIP3   OH241676   4.644   3.656  14.168 -0.0898 -0.1588  0.4980
 6754TIP3    H141677   4.700   3.594  14.121 -2.4766 -0.6030 -1.9767
 6754TIP3    H241678   4.644   3.625  14.259  2.8240 -0.6685  0.4126
 6755TIP3   OH241679   0.049   1.167  16.442  0.1236  0.0164  0.3688
 6755TIP3    H141680   0.034   1.213  16.359  1.2888  1.5837  0.9810
 6755TIP3    H241681   0.103   1.092  16.417 -1.6374 -0.9966 -0.6200
 6756TIP3   OH241682   6.286   1.713   4.687 -0.3847 -0.3396  0.2161
 6756TIP3    H141683   6.300   1.802   4.655  2.4808 -0.5597  0.5777
 6756TIP3    H241684   6.191   1.702   4.688 -0.8416  2.7673  0.3260
 6757TIP3   OH241685   1.418   2.670  16.194 -0.0937  0.1285 -0.6469
 6757TIP3    H141686   1.375   2.635  16.116 -0.9405  1.4637 -0.7957
 6757TIP3    H241687   1.476   2.599  16.222  0.2475 -0.3866 -2.4834
 6758TIP3   OH241688   4.881   3.507  14.235 -0.6970  0.2098  0.4006
 6758TIP3    H141689   4.872   3.416  14.263 -0.0549  0.1677  0.4955
 6758TIP3    H241690   4.971   3.513  14.203 -1.2648  0.3829 -1.2393
 6759TIP3   OH241691   5.315   5.622   2.800  0.1667  0.0088  0.2942
 6759TIP3    H141692   5.242   5.568   2.833  0.1077 -0.5033 -0.6230
 6759TIP3    H241693   5.372   5.559   2.757 -0.2152  0.7521 -1.3523
 6760TIP3   OH241694   2.934   5.299  14.297  0.0769  0.5534 -0.1243
 6760TIP3    H141695   3.018   5.254  14.307  0.3761  1.4426  1.7479
 6760TIP3    H241696   2.949   5.363  14.227  1.0916  0.9804  0.4653
 6761TIP3   OH241697   1.602   3.228  15.654 -0.1795  0.1433 -0.3444
 6761TIP3    H141698   1.679   3.266  15.696  0.3196  0.2234 -1.3163
 6761TIP3    H241699   1.569   3.165  15.718  0.2273  0.6756  0.4023
 6762TIP3   OH241700   4.997   1.552  12.340 -0.0050  0.3676  0.5355
 6762TIP3    H141701   4.994   1.646  12.356 -0.3697  0.1472  1.8424
 6762TIP3    H241702   5.010   1.513  12.426 -0.4027 -0.8078  0.0837
 6763TIP3   OH241703   1.549   0.720   1.139 -0.4873  0.0298 -0.3522
 6763TIP3    H141704   1.477   0.656   1.136  0.0221 -0.6371  0.7012
 6763TIP3    H241705   1.628   0.667   1.128 -0.0091  0.3508  1.2658
 6764TIP3   OH241706   2.902   0.393  11.584 -0.0157  0.4542 -0.4677
 6764TIP3    H141707   2.987   0.376  11.623 -0.1545  0.8066 -0.0096
 6764TIP3    H241708   2.920   0.454  11.512  0.3129 -0.6166 -1.3314
 6765TIP3   OH241709   6.643   4.580   4.932  0.2186  0.3413  0.0106
 6765TIP3    H141710   6.629   4.527   4.854  0.4250 -0.2061  0.3393
 6765TIP3    H241711   6.607   4.528   5.004 -0.8181  1.2471  0.1663
 6766TIP3   OH241712   2.722   5.357  12.701 -0.5500  0.5933  0.2264
 6766TIP3    H141713   2.643   5.393  12.661 -0.1948  2.8393  1.3919
 6766TIP3    H241714   2.718   5.384  12.792  1.3113  0.3279  0.4367
 6767TIP3   OH241715   0.368   5.544   0.173  0.0903 -0.0964  0.4050
 6767TIP3    H141716   0.446   5.597   0.187 -0.5694  1.2522 -0.7730
 6767TIP3    H241717   0.342   5.516   0.260  0.6605  1.2426  1.0244
 6768TIP3   OH241718   1.306   2.328   4.404 -0.1732  0.6311  0.2284
 6768TIP3    H141719   1.279   2.408   4.359 -0.0186  0.4067 -0.2712
 6768TIP3    H241720   1.374   2.356   4.465 -0.1807  0.8913  0.1169
 6769TIP3   OH241721   5.160   1.589   0.094  0.6371 -0.0580  0.3015
 6769TIP3    H141722   5.244   1.544   0.083  0.0155 -0.8799 -1.2827
 6769TIP3    H241723   5.146   1.633   0.010 -0.1612  0.7128  0.8269
 6770TIP3   OH241724   3.255   3.782  10.951 -0.2097  0.1171  0.1084
 6770TIP3    H141725   3.232   3.853  11.010  1.0231  0.8269 -0.2233
 6770TIP3    H241726   3.184   3.719  10.960 -0.5217  0.6492  1.6071
 6771TIP3   OH241727   1.813   0.531  14.700 -0.1352  0.4173 -0.7693
 6771TIP3    H141728   1.754   0.462  14.730 -0.7810  1.2602 -0.0946
 6771TIP3    H241729   1.899   0.503  14.732  0.1713 -1.5754 -3.0005
 6772TIP3   OH241730   1.879   0.151  14.670 -0.3630 -0.1527 -0.7221
 6772TIP3    H141731   1.806   0.187  14.721  0.3861  0.1603  0.1517
 6772TIP3    H241732   1.882   0.059  14.695 -1.3578 -0.5277 -1.8639
 6773TIP3   OH241733   6.121   4.776   5.051 -0.3471 -0.2334  0.4681
 6773TIP3    H141734   6.053   4.829   5.093  1.1876  1.3740  1.0810
 6773TIP3    H241735   6.200   4.796   5.101  0.7313 -1.4564 -0.6838
 6774TIP3   OH241736   6.318   0.190  11.651  0.6123  0.1573 -0.7920
 6774TIP3    H141737   6.372   0.113  11.670  1.0512  0.5428 -0.4418
 6774TIP3    H241738   6.266   0.164  11.575 -1.2378 -1.4560  0.9255
 6775TIP3   OH241739   1.582   0.290   1.076 -0.1509 -0.2577 -0.4473
 6775TIP3    H141740   1.658   0.238   1.102  0.5613  1.0150  0.0908
 6775TIP3    H241741   1.618   0.375   1.051 -1.2269 -0.1799 -1.8866
 6776TIP3   OH241742   4.672   1.340  13.233 -0.3845 -0.9586  0.1465
 6776TIP3    H141743   4.695   1.250  13.257  1.4097 -0.3870  0.7362
 6776TIP3    H241744   4.750   1.375  13.190 -0.6042  0.6744  0.9729
 6777TIP3   OH241745   4.035   4.498   6.630  0.1578  0.5709  0.2876
 6777TIP3    H141746   4.027   4.441   6.706  0.1282  0.8311  0.4818
 6777TIP3    H241747   4.043   4.586   6.666 -0.0610  0.7196 -0.0131
 6778TIP3   OH241748   4.599   4.635  16.290  0.3150  0.3324  0.4578
 6778TIP3    H141749   4.604   4.602  16.380  0.2556 -1.6304 -0.2124
 6778TIP3    H241750   4.684   4.615  16.252  0.2826  1.0048  0.0030
 6779TIP3   OH241751   2.400   5.984  14.722  0.7188  0.1827 -0.3293
 6779TIP3    H141752   2.467   5.937  14.672  1.2393  0.7749 -0.1982
 6779TIP3    H241753   2.388   5.933  14.802  2.8961  1.4176  0.8636
 6780TIP3   OH241754   1.158   3.437  16.046 -1.2091  0.6532 -0.0919
 6780TIP3    H141755   1.243   3.481  16.043 -0.3534 -0.9556 -0.9877
 6780TIP3    H241756   1.136   3.433  16.139 -0.0744  0.7023  0.1997
 6781TIP3   OH241757   1.686   2.020   1.397 -0.3585  0.2038 -0.4423
 6781TIP3    H141758   1.729   1.973   1.469 -2.3092 -1.6117 -0.3518
 6781TIP3    H241759   1.616   2.070   1.440 -1.6355 -1.0138 -1.0109
 6782TIP3   OH241760   4.836   2.337  14.825  0.5948  0.0861 -0.2085
 6782TIP3    H141761   4.846   2.242  14.825  0.0129  0.0235 -0.1991
 6782TIP3    H241762   4.741   2.352  14.826  0.6605  0.6570  1.4054
 6783TIP3   OH241763   3.475   0.136   3.907 -0.1922  0.3017  0.1970
 6783TIP3    H141764   3.393   0.182   3.893  0.3953  0.9563 -1.2675
 6783TIP3    H241765   3.512   0.176   3.986 -0.8439  0.6176  0.3463
 6784TIP3   OH241766   6.620   1.691   4.589 -0.1313  0.3233 -0.1456
 6784TIP3    H141767   6.569   1.690   4.508 -0.1540 -2.0059 -0.1653
 6784TIP3    H241768   6.649   1.782   4.598  0.5667  0.5049 -3.2009
 6785TIP3   OH241769   2.129   5.530  12.247 -0.1814  0.0344 -0.1093
 6785TIP3    H141770   2.181   5.451  12.232  0.5607  0.8846 -2.4458
 6785TIP3    H241771   2.065   5.530  12.176 -0.8892  0.9864  0.5099
 6786TIP3   OH241772   0.245   0.458  14.907  0.8183  0.2799 -0.2039
 6786TIP3    H141773   0.193   0.500  14.839  1.1937  1.3825  0.1800
 6786TIP3    H241774   0.183   0.442  14.978  0.6775  0.1780 -0.3481
 6787TIP3   OH241775   1.920   1.887   3.397  0.0196 -0.0515  0.7666
 6787TIP3    H141776   1.988   1.953   3.409 -0.0716  0.2678 -0.3356
 6787TIP3    H241777   1.964   1.812   3.357 -0.2451  0.1471  0.0711
 6788TIP3   OH241778   3.500   3.035  14.881 -0.5757  0.7669 -0.3713
 6788TIP3    H141779   3.548   2.967  14.832 -0.4491 -1.0911  2.1526
 6788TIP3    H241780   3.562   3.108  14.887 -0.0630  0.4766 -1.6350
 6789TIP3   OH241781   2.418   2.211   0.018  0.1913  0.3684 -0.3821
 6789TIP3    H141782   2.479   2.246  -0.046  0.0425  0.0255 -0.7168
 6789TIP3    H241783   2.392   2.126  -0.018  0.5681 -0.0992  0.4263
 6790TIP3   OH241784   2.651   3.482   4.864 -0.1279 -0.0305  0.7401
 6790TIP3    H141785   2.631   3.487   4.770  0.6423  1.4821  0.6423
 6790TIP3    H241786   2.624   3.567   4.899  1.4848  0.1928  1.5095
 6791TIP3   OH241787   4.327   1.803  16.223  0.5753 -0.2302  0.0803
 6791TIP3    H141788   4.317   1.776  16.132  1.1004 -1.1107  0.2662
 6791TIP3    H241789   4.244   1.779  16.265  1.6420 -3.3701  0.6443
 6792TIP3   OH241790   6.525   4.653  15.358  0.0081 -0.7513 -0.0150
 6792TIP3    H141791   6.448   4.674  15.411  0.7906  0.1361  0.8133
 6792TIP3    H241792   6.524   4.558  15.351 -0.6786 -0.8085  0.7311
 6793TIP3   OH241793   6.039   5.950  10.486 -0.1794  0.1020  0.2733
 6793TIP3    H141794   6.045   5.893  10.409  1.9280 -0.1218  0.5464
 6793TIP3    H241795   5.949   5.940  10.516  0.2215 -3.6946  0.7211
 6794TIP3   OH241796   1.049   4.724   5.803 -0.0936 -0.0688  0.1784
 6794TIP3    H141797   1.121   4.740   5.743  1.8928  1.8287  2.8389
 6794TIP3    H241798   1.065   4.636   5.837 -2.4470 -2.1354 -3.3135
 6795TIP3   OH241799   1.199   1.199  17.176  0.1138 -0.2097  0.5803
 6795TIP3    H141800   1.205   1.146  17.255 -0.5481 -0.4816  0.4550
 6795TIP3    H241801   1.197   1.290  17.208 -1.0128 -0.3496  0.9364
 6796TIP3   OH241802   4.742   2.988  16.676  0.1478  0.1431 -0.6342
 6796TIP3    H141803   4.838   2.994  16.678  0.1081  0.9478  0.9729
 6796TIP3    H241804   4.721   2.974  16.584  1.8372 -0.7814 -0.9382
 6797TIP3   OH241805   5.536   0.094   3.282 -0.1272 -0.4636 -0.1413
 6797TIP3    H141806   5.568   0.183   3.299  0.1066 -0.1503 -2.0674
 6797TIP3    H241807   5.541   0.051   3.368 -0.4813  1.4339  0.8977
 6798TIP3   OH241808   3.151   4.556   5.199  0.3820 -0.1126  0.2131
 6798TIP3    H141809   3.082   4.555   5.133 -0.3792 -1.0656  0.9889
 6798TIP3    H241810   3.114   4.605   5.272  1.5452  1.7110 -0.3672
 6799TIP3   OH241811   5.450   4.953  15.169  0.3669 -0.3441 -0.0751
 6799TIP3    H141812   5.470   4.881  15.110  2.2563  0.5129 -0.5541
 6799TIP3    H241813   5.421   5.024  15.112 -2.1913 -0.8791  0.4494
 6800TIP3   OH241814   3.678   5.461   5.620 -0.8543  0.0439  0.0466
 6800TIP3    H141815   3.744   5.440   5.554 -2.4829 -0.5670 -1.4454
 6800TIP3    H241816   3.669   5.381   5.672  0.0086  0.3395  0.6806
 6801TIP3   OH241817   6.370   3.091  13.347  0.1492  0.4285  0.1237
 6801TIP3    H141818   6.449   3.050  13.312 -0.0741  0.0205  0.0824
 6801TIP3    H241819   6.299   3.035  13.317 -0.3082  1.6216 -1.1096
 6802TIP3   OH241820   1.226   2.841  11.483 -0.6388  0.1099 -0.1714
 6802TIP3    H141821   1.140   2.849  11.442 -0.0204  1.4119 -1.2887
 6802TIP3    H241822   1.284   2.812  11.413  0.2066  1.2003  0.0407
 6803TIP3   OH241823   5.010   2.969   3.383 -0.8084  0.1906  0.0615
 6803TIP3    H141824   5.094   2.926   3.368  0.2236  1.1499  2.5608
 6803TIP3    H241825   4.962   2.958   3.301  2.9504  2.4141 -2.7457
 6804TIP3   OH241826   4.042   0.888  15.678 -0.2864 -0.1368 -0.2107
 6804TIP3    H141827   4.032   0.803  15.636 -1.7406  0.0550 -0.2987
 6804TIP3    H241828   3.953   0.917  15.695  0.2151  0.6028  1.3871
 6805TIP3   OH241829   0.885   4.059   5.180 -0.0990  0.4703  0.1492
 6805TIP3    H141830   0.895   4.021   5.093  0.4641  0.4234  0.2363
 6805TIP3    H241831   0.792   4.046   5.200 -0.0338 -0.3833 -0.0443
 6806TIP3   OH241832   4.792   4.226  14.263  0.1266  0.5549  0.1208
 6806TIP3    H141833   4.815   4.318  14.248 -2.2810  1.2089 -0.0604
 6806TIP3    H241834   4.715   4.211  14.209 -0.0355 -1.3409  0.7861
 6807TIP3   OH241835   0.477   0.302   2.447  0.2665 -0.1668 -0.0676
 6807TIP3    H141836   0.463   0.389   2.485 -0.3046  0.5049 -1.7084
 6807TIP3    H241837   0.566   0.279   2.472 -0.2676 -0.0295  2.1008
 6808TIP3   OH241838   1.633   2.088  14.635 -0.4771 -0.0281  0.2415
 6808TIP3    H141839   1.726   2.075  14.617 -0.7635 -0.2545 -1.1976
 6808TIP3    H241840   1.589   2.018  14.587 -1.3010 -1.5357  2.9414
 6809TIP3   OH241841   3.936   6.690   1.447  0.1871 -0.0915  0.0312
 6809TIP3    H141842   3.972   6.650   1.368  0.8958 -0.6711  0.6178
 6809TIP3    H241843   4.011   6.734   1.488 -0.0212 -0.3098  0.6721
 6810TIP3   OH241844   5.188   2.440   4.289  0.0454 -0.0976 -0.0931
 6810TIP3    H141845   5.194   2.407   4.378  1.0777  0.0298 -0.0956
 6810TIP3    H241846   5.215   2.366   4.234  0.4448  0.1400 -0.2225
 6811TIP3   OH241847   3.731   1.092   4.027 -0.3062  0.3567  0.5021
 6811TIP3    H141848   3.696   1.150   4.095 -3.0030  0.2497 -0.6846
 6811TIP3    H241849   3.657   1.037   4.002  1.0908 -0.8163 -1.3165
 6812TIP3   OH241850   4.153   0.143  16.903  0.1363 -0.3022  0.0042
 6812TIP3    H141851   4.190   0.156  16.815 -0.5718  1.2180 -0.0973
 6812TIP3    H241852   4.068   0.102  16.886  0.5114 -1.1363  0.0723
 6813TIP3   OH241853   6.394   2.352  10.853 -0.4379 -0.4155 -0.2675
 6813TIP3    H141854   6.359   2.265  10.832  1.0237 -1.2806  0.7408
 6813TIP3    H241855   6.448   2.375  10.777 -1.5607  0.0671 -0.9542
 6814TIP3   OH241856   2.633   0.321   4.708  0.5020  0.1639  0.1065
 6814TIP3    H141857   2.649   0.412   4.682 -0.6713 -0.3351 -2.7567
 6814TIP3    H241858   2.719   0.286   4.731  0.9604  1.9646  1.2934
 6815TIP3   OH241859   3.756   3.891   2.040 -0.3495  0.0072  0.2367
 6815TIP3    H141860   3.708   3.970   2.064 -0.1524  0.1193  0.2651
 6815TIP3    H241861   3.689   3.830   2.010 -0.6570 -0.3096  1.5409
 6816TIP3   OH241862   2.706   0.927   0.545 -0.0815 -0.6928  0.3971
 6816TIP3    H141863   2.652   0.855   0.578  0.0584 -0.3217  1.4924
 6816TIP3    H241864   2.646   1.001   0.536 -0.1503 -0.8372 -0.3585
 6817TIP3   OH241865   5.153   5.049   3.532  0.4470 -0.1062  0.1778
 6817TIP3    H141866   5.081   5.084   3.584 -1.1553 -3.0867  0.2143
 6817TIP3    H241867   5.146   5.095   3.448 -2.0679 -0.8199 -0.0930
 6818TIP3   OH241868   3.644   4.060  13.305  0.1786 -0.4417  0.4015
 6818TIP3    H141869   3.580   3.989  13.305  0.0049 -0.3029 -0.4709
 6818TIP3    H241870   3.726   4.020  13.332 -0.4403 -0.4484  2.4482
 6819TIP3   OH241871   5.248   0.280  16.366  0.0328  0.4181  0.4954
 6819TIP3    H141872   5.295   0.278  16.283 -2.2503  0.2981 -0.8737
 6819TIP3    H241873   5.215   0.191  16.377  2.7502 -0.4397  3.1328
 6820TIP3   OH241874   3.162   5.170  10.719 -0.3182 -0.0160  0.0111
 6820TIP3    H141875   3.093   5.135  10.663  0.1648 -0.6372 -0.2137
 6820TIP3    H241876   3.201   5.241  10.668 -0.2681 -0.1933 -0.1971
 6821TIP3   OH241877   6.120   5.384  15.130  0.8647  0.4928 -0.0853
 6821TIP3    H141878   6.135   5.350  15.218 -0.5625  0.2039  0.0700
 6821TIP3    H241879   6.188   5.450  15.118  1.0825  0.5401  1.2295
 6822TIP3   OH241880   6.739   5.249  13.156  0.2570 -0.0331 -0.1771
 6822TIP3    H141881   6.674   5.180  13.147  0.1933  0.1458 -1.2719
 6822TIP3    H241882   6.688   5.329  13.168  0.3274 -0.1468  0.9480
 6823TIP3   OH241883   3.567   1.482  13.279 -0.1748 -0.4676 -0.4601
 6823TIP3    H141884   3.513   1.406  13.262  1.6270 -2.0404  0.4487
 6823TIP3    H241885   3.516   1.535  13.340 -0.9618 -1.5577 -0.1431
 6824TIP3   OH241886   5.542   5.674  14.862  0.1982  0.3282 -0.7733
 6824TIP3    H141887   5.524   5.681  14.768  0.7212  0.2394 -0.8793
 6824TIP3    H241888   5.455   5.677  14.903 -0.0011  0.9221 -1.2214
 6825TIP3   OH241889   4.548   5.997  14.703  0.2141 -0.2720 -0.5223
 6825TIP3    H141890   4.471   6.020  14.755  0.7848 -1.5540  0.9810
 6825TIP3    H241891   4.541   6.051  14.625 -0.9223  1.4445  0.6853
 6826TIP3   OH241892   0.450   3.697   0.700 -0.0392 -0.1084 -0.2669
 6826TIP3    H141893   0.371   3.694   0.646  0.5358  1.2465 -1.2341
 6826TIP3    H241894   0.504   3.766   0.661  1.1595 -0.2595  1.0220
 6827TIP3   OH241895   3.972   5.501   2.716  0.3183 -0.2903  0.0847
 6827TIP3    H141896   4.016   5.463   2.793  1.9399 -0.2613 -0.7795
 6827TIP3    H241897   3.944   5.587   2.745 -1.3510 -1.2057  1.3828
 6828TIP3   OH241898   6.303   2.477   4.433  0.7575  0.0010  0.1748
 6828TIP3    H141899   6.358   2.402   4.453  0.3630 -0.2304  0.4126
 6828TIP3    H241900   6.256   2.452   4.353  1.2116  0.3165 -0.1956
 6829TIP3   OH241901   0.460   2.336   2.756 -0.4730  0.7531 -0.0142
 6829TIP3    H141902   0.483   2.250   2.721  2.4536  1.9062 -1.2046
 6829TIP3    H241903   0.367   2.329   2.778 -1.1808 -1.7206 -3.1249
 6830TIP3   OH241904   3.597   6.050   3.560  0.0452  0.1916  0.0386
 6830TIP3    H141905   3.554   6.052   3.645  0.4340 -1.7378  0.3408
 6830TIP3    H241906   3.543   6.105   3.503 -0.4333  1.1944  1.4151
 6831TIP3   OH241907   0.441   2.930   2.479  0.4616  0.4135 -0.7541
 6831TIP3    H141908   0.528   2.920   2.440  0.8918  1.9087 -0.2428
 6831TIP3    H241909   0.409   3.013   2.445 -0.9075 -0.2463 -1.1545
 6832TIP3   OH241910   1.580   1.838  14.538  0.8613 -0.0996 -0.6616
 6832TIP3    H141911   1.636   1.767  14.570  0.0623 -0.4967 -0.1332
 6832TIP3    H241912   1.597   1.841  14.443  0.3862 -1.4678 -0.8083
 6833TIP3   OH241913   4.088   3.881   3.330  0.6632  0.1768  0.2425
 6833TIP3    H141914   4.029   3.948   3.294  2.6484  0.1712 -3.4743
 6833TIP3    H241915   4.054   3.799   3.295  0.8898 -0.2514  1.0080
 6834TIP3   OH241916   5.312   2.171   5.436  0.2403 -0.2050 -0.3388
 6834TIP3    H141917   5.361   2.196   5.358 -1.4453  0.2746 -1.3104
 6834TIP3    H241918   5.339   2.235   5.502  0.0493  0.8035 -1.1981
 6835TIP3   OH241919   0.290   4.354   1.875  0.5057 -0.4741 -0.1301
 6835TIP3    H141920   0.249   4.372   1.790 -1.6047 -0.3365  0.8536
 6835TIP3    H241921   0.268   4.430   1.929  2.3837 -0.2547  0.3834
 6836TIP3   OH241922   5.406   6.289   1.960 -0.1323 -0.3014  0.2134
 6836TIP3    H141923   5.396   6.380   1.990  0.4317  0.5554 -1.9994
 6836TIP3    H241924   5.325   6.246   1.986  0.0666  0.4933  2.3457
 6837TIP3   OH241925   2.184   2.224  12.368 -0.1997 -0.3285  0.1564
 6837TIP3    H141926   2.177   2.251  12.460  2.0394 -0.1420  0.3327
 6837TIP3    H241927   2.095   2.230  12.334 -0.5249  3.3447  1.2863
 6838TIP3   OH241928   2.035   3.186  17.235  0.0859  0.2979 -0.6636
 6838TIP3    H141929   2.036   3.142  17.320 -0.2768  0.4625 -0.5733
 6838TIP3    H241930   2.026   3.279  17.256 -1.7890  0.2108 -0.9160
 6839TIP3   OH241931   2.499   4.951   5.179  0.4668  0.1044  0.2690
 6839TIP3    H141932   2.514   4.880   5.241  3.6153 -0.1608 -0.6488
 6839TIP3    H241933   2.542   5.027   5.218  0.9140  0.3881 -0.7587
 6840TIP3   OH241934   0.996   4.371   3.457 -0.3303 -0.4750  0.1853
 6840TIP3    H141935   0.916   4.354   3.508 -0.4268  1.6633  0.8454
 6840TIP3    H241936   1.062   4.391   3.523  0.8934 -2.4969 -0.3416
 6841TIP3   OH241937   3.181   4.212  16.789 -0.3373  0.3730 -0.1799
 6841TIP3    H141938   3.196   4.123  16.822  0.9905 -0.0810 -1.8775
 6841TIP3    H241939   3.102   4.205  16.734  0.8846 -0.2583 -1.9293
 6842TIP3   OH241940   1.193   0.136   3.014  0.6524  0.5201  0.5674
 6842TIP3    H141941   1.277   0.113   2.974  1.3324  0.0291  2.2163
 6842TIP3    H241942   1.130   0.126   2.943  1.9238  0.4817 -0.5985
 6843TIP3   OH241943   0.738   0.389   2.451 -0.0643 -0.5647  0.4520
 6843TIP3    H141944   0.794   0.388   2.528  0.1468 -0.2162  0.3062
 6843TIP3    H241945   0.766   0.312   2.400  1.7906  0.7737 -0.6720
 6844TIP3   OH241946   1.716   2.181   4.625 -0.1577  0.2899  0.0853
 6844TIP3    H141947   1.753   2.245   4.685 -1.2893  1.1871 -0.1192
 6844TIP3    H241948   1.749   2.207   4.539 -1.2313  1.1159 -0.1025
 6845TIP3   OH241949   5.470   4.780  16.136  0.3255 -0.1174 -0.0653
 6845TIP3    H141950   5.540   4.738  16.086  0.2841  0.2127 -0.3995
 6845TIP3    H241951   5.494   4.765  16.228  1.4643  0.9892 -0.1496
 6846TIP3   OH241952   1.196   4.125  11.294 -0.0072  0.6560 -0.2785
 6846TIP3    H141953   1.107   4.136  11.263 -0.3968 -0.5558  0.3401
 6846TIP3    H241954   1.229   4.048  11.247  0.3124  0.4131  0.3205
 6847TIP3   OH241955   6.082   6.240   3.841 -0.0396 -0.1952  0.4000
 6847TIP3    H141956   6.127   6.251   3.758  2.4140  2.8130  1.9047
 6847TIP3    H241957   6.142   6.189   3.895 -1.0634 -1.0855  0.7315
 6848TIP3   OH241958   3.414   1.675  10.531  0.4187  0.3646 -0.1288
 6848TIP3    H141959   3.428   1.753  10.585 -1.0406  1.9602 -1.8919
 6848TIP3    H241960   3.325   1.647  10.555 -0.2497  1.1013 -1.6100
 6849TIP3   OH241961   4.336   4.796  13.963  0.2666 -0.2847 -0.1889
 6849TIP3    H141962   4.253   4.749  13.970  0.1035 -0.0267 -0.3474
 6849TIP3    H241963   4.313   4.878  13.919  0.5485 -0.0612  0.0748
 6850TIP3   OH241964   4.618   4.577   0.109 -0.0695 -0.9827 -0.1159
 6850TIP3    H141965   4.670   4.501   0.082  0.7160 -1.6012  2.7137
 6850TIP3    H241966   4.651   4.649   0.056 -0.4613 -2.4628 -2.5157
 6851TIP3   OH241967   5.660   6.565  16.845 -0.1713 -0.0014 -0.2764
 6851TIP3    H141968   5.729   6.516  16.890 -0.3451  1.6144  1.8870
 6851TIP3    H241969   5.705   6.607  16.771  1.2833  1.2304  1.2348
 6852TIP3   OH241970   5.818   1.585  16.013 -0.0184 -0.4428  0.1635
 6852TIP3    H141971   5.889   1.559  15.954 -1.0011  0.7405 -1.6140
 6852TIP3    H241972   5.854   1.570  16.100  2.3532 -0.0668 -0.6687
 6853TIP3   OH241973   0.633   3.651   2.955  0.1109  0.3243 -0.4250
 6853TIP3    H141974   0.589   3.582   3.005 -0.2509  1.1141  0.3828
 6853TIP3    H241975   0.718   3.660   2.998  0.2659  0.1885 -0.7056
 6854TIP3   OH241976   5.594   1.960  14.212  0.2331  0.7636  0.0869
 6854TIP3    H141977   5.602   1.874  14.170 -0.9751  0.9795 -0.6366
 6854TIP3    H241978   5.530   1.947  14.282  1.7567  0.5624  1.5039
 6855TIP3   OH241979   4.406   2.007  12.943 -0.9015 -0.3398  0.0180
 6855TIP3    H141980   4.410   1.956  13.023 -1.0618  0.2883  0.4383
 6855TIP3    H241981   4.496   2.035  12.927 -0.3742 -2.7122 -1.5407
 6856TIP3   OH241982   0.531   5.700  15.480  0.6346  0.5576 -0.4550
 6856TIP3    H141983   0.603   5.687  15.418 -0.4046  0.7601 -1.7721
 6856TIP3    H241984   0.502   5.790  15.464 -0.9855 -0.0441 -1.2133
 6857TIP3   OH241985   5.140   6.278  16.745  0.2334 -0.0894 -0.2683
 6857TIP3    H141986   5.228   6.295  16.778  0.7788  1.5916 -2.3650
 6857TIP3    H241987   5.096   6.233  16.817  1.7773  1.9359  2.1134
 6858TIP3   OH241988   1.159   0.659  10.162  0.4163 -0.2552 -0.3925
 6858TIP3    H141989   1.107   0.723  10.114  1.5948  0.5093 -0.6979
 6858TIP3    H241990   1.098   0.589  10.183 -0.5854  0.3399 -1.2406
 6859TIP3   OH241991   3.447   1.442   4.570  0.6354 -0.1441 -0.0039
 6859TIP3    H141992   3.528   1.482   4.539  0.5632 -1.0874 -1.4931
 6859TIP3    H241993   3.397   1.514   4.607  1.2959  0.8019 -0.9185
 6860TIP3   OH241994   5.869   6.662   1.327  0.7004  0.5159  0.7828
 6860TIP3    H141995   5.859   6.756   1.319  2.2764  0.6731  0.3019
 6860TIP3    H241996   5.867   6.629   1.237 -2.1041 -0.2317  1.0256
 6861TIP3   OH241997   5.153   3.846  14.856  1.0608  0.3813 -0.1476
 6861TIP3    H141998   5.154   3.931  14.900  1.3361  0.1365  0.3250
 6861TIP3    H241999   5.067   3.843  14.813  0.8709  0.7124  0.1996
 6862TIP3   OH242000   5.767   4.926   0.092  0.1474  0.1945  0.4327
 6862TIP3    H142001   5.745   5.002   0.147  1.4259  0.8601  0.0626
 6862TIP3    H242002   5.766   4.961   0.003  2.0596  0.1446  0.3496
 6863TIP3   OH242003   0.870   4.294  16.068 -0.6537 -0.0814 -0.3411
 6863TIP3    H142004   0.924   4.325  15.996  0.4010 -0.6501  0.1913
 6863TIP3    H242005   0.799   4.246  16.026 -0.6745  0.5323 -1.0350
 6864TIP3   OH242006   1.827   3.703   2.464 -0.5972  0.6446 -0.3904
 6864TIP3    H142007   1.757   3.764   2.484 -0.4373  0.0750  2.2334
 6864TIP3    H242008   1.786   3.617   2.467 -0.1041  0.4031 -0.3723
 6865TIP3   OH242009   4.214   0.677   1.030  0.0385  0.5131  0.5377
 6865TIP3    H142010   4.166   0.604   1.068 -1.9658  0.9872 -0.9212
 6865TIP3    H242011   4.225   0.654   0.938 -2.6754  2.8842 -0.5431
 6866TIP3   OH242012   6.210   5.761   6.846  0.2934 -0.8956  0.9822
 6866TIP3    H142013   6.127   5.717   6.825  1.1963 -2.3874  0.4219
 6866TIP3    H242014   6.193   5.853   6.828 -1.2248 -1.1804  0.7946
 6867TIP3   OH242015   6.007   3.078  12.339  0.0599 -0.2960  0.4928
 6867TIP3    H142016   6.013   3.097  12.433  0.5006 -1.0319  0.6277
 6867TIP3    H242017   6.097   3.089  12.308  0.1733 -1.3477  0.4282
 6868TIP3   OH242018   6.607   5.244  14.866 -0.5992 -0.3875  0.1094
 6868TIP3    H142019   6.574   5.229  14.778  2.5243  0.6722 -1.3666
 6868TIP3    H242020   6.574   5.331  14.890 -0.2839 -0.0541 -0.6342
 6869TIP3   OH242021   5.137   1.714   4.840 -0.4444 -0.1830  0.3232
 6869TIP3    H142022   5.062   1.677   4.887 -0.5804  2.8144  2.7593
 6869TIP3    H242023   5.211   1.661   4.869 -1.0818 -0.7626  0.9542
 6870TIP3   OH242024   6.199   0.334   5.084 -0.0492 -0.8385 -0.4678
 6870TIP3    H142025   6.134   0.340   5.014  0.1584  0.9809 -0.5546
 6870TIP3    H242026   6.149   0.347   5.164  0.3261  3.0232 -0.6270
 6871TIP3   OH242027   3.776   2.141  12.377  0.5168  0.1536  0.6948
 6871TIP3    H142028   3.816   2.186  12.302 -0.8956  0.9848  0.4128
 6871TIP3    H242029   3.791   2.048  12.359  0.7413  0.3670 -0.3036
 6872TIP3   OH242030   1.291   3.492  12.685 -0.2205  0.0660  0.2998
 6872TIP3    H142031   1.284   3.582  12.653  0.7213  0.0893  0.1281
 6872TIP3    H242032   1.377   3.489  12.727 -0.2563 -0.7545  0.3132
 6873TIP3   OH242033   4.561   5.450   1.075  0.5194  0.1265  0.6551
 6873TIP3    H142034   4.588   5.373   1.125 -0.6926 -1.1725 -0.6282
 6873TIP3    H242035   4.480   5.424   1.031 -0.4483  2.4443  0.9086
 6874TIP3   OH242036   1.284   5.928   0.855  0.2014  0.2943 -0.4965
 6874TIP3    H142037   1.308   5.892   0.940  0.5756  2.0822  0.2091
 6874TIP3    H242038   1.343   5.885   0.793  0.4001 -0.5132  0.2395
 6875TIP3   OH242039   2.979   3.853  12.738 -0.2868 -0.2745  0.7955
 6875TIP3    H142040   2.910   3.811  12.789 -2.5705  0.4759 -1.4417
 6875TIP3    H242041   2.957   3.946  12.741 -0.5818 -0.2051 -1.5147
 6876TIP3   OH242042   3.006   2.739   2.780 -0.1287  0.6818  0.0605
 6876TIP3    H142043   3.002   2.679   2.706  0.6066  0.7407 -0.0377
 6876TIP3    H242044   2.940   2.707   2.841  1.6680 -1.5335  0.9783
 6877TIP3   OH242045   3.874   2.598  14.089  0.1002  0.3209 -0.2380
 6877TIP3    H142046   3.955   2.549  14.102  0.2363  0.5687 -0.1525
 6877TIP3    H242047   3.883   2.637  14.002  0.6431  1.4205  0.2887
 6878TIP3   OH242048   0.019   4.459  15.089  0.1647  0.0412 -0.6415
 6878TIP3    H142049  -0.044   4.530  15.079 -0.0134 -0.1688 -1.0637
 6878TIP3    H242050   0.029   4.448  15.183 -1.6171 -0.9283 -0.5206
 6879TIP3   OH242051   0.465   3.198  14.656  0.2641 -0.3266 -0.0996
 6879TIP3    H142052   0.432   3.133  14.594  0.1814 -0.1051 -0.2907
 6879TIP3    H242053   0.488   3.148  14.734 -0.3089 -0.5164 -0.0493
 6880TIP3   OH242054   4.810   4.743  16.565  0.0563 -0.3352  0.5217
 6880TIP3    H142055   4.769   4.829  16.554 -1.0228 -0.8340  0.5766
 6880TIP3    H242056   4.886   4.746  16.506 -1.4585 -0.2806 -1.5161
 6881TIP3   OH242057   2.196   3.936   3.477 -0.6304 -0.1439  0.2479
 6881TIP3    H142058   2.122   3.933   3.417 -1.1862  0.3339  0.8954
 6881TIP3    H242059   2.221   3.844   3.488  0.4299 -0.1580 -1.8321
 6882TIP3   OH242060   4.772   4.605  12.411  0.4842  0.3147  0.2393
 6882TIP3    H142061   4.854   4.625  12.365  0.0390 -1.4313 -1.3891
 6882TIP3    H242062   4.797   4.603  12.503  2.0010  1.0805 -0.1201
 6883TIP3   OH242063   4.081   5.879   0.072 -0.7673  0.1554  0.6119
 6883TIP3    H142064   4.105   5.920  -0.011  0.6680  0.6664  1.2602
 6883TIP3    H242065   4.121   5.792   0.069 -0.4863  0.2739  0.8766
 6884TIP3   OH242066   0.737   1.908   5.522 -0.2714  0.2856  0.0893
 6884TIP3    H142067   0.720   1.998   5.494 -0.0174  0.3736  0.2163
 6884TIP3    H242068   0.661   1.859   5.492 -0.4017  0.5396  0.0017
 6885TIP3   OH242069   0.943   4.200  12.378  0.4675  0.2685  0.4897
 6885TIP3    H142070   0.891   4.272  12.341  1.6657 -0.2730 -2.4791
 6885TIP3    H242071   1.004   4.244  12.437 -1.4027  1.1940  1.8706
 6886TIP3   OH242072   2.969   2.439   3.906 -0.0024 -0.6272  0.5802
 6886TIP3    H142073   3.004   2.503   3.844 -0.5673 -0.2301  0.6630
 6886TIP3    H242074   2.943   2.365   3.851  0.2116 -0.5935  0.4320
 6887TIP3   OH242075   6.710   5.257  12.851  0.1883 -0.1823 -0.7470
 6887TIP3    H142076   6.615   5.254  12.841  0.1189  1.1796 -0.7946
 6887TIP3    H242077   6.737   5.166  12.857 -1.1282 -0.5880 -0.6593
 6888TIP3   OH242078   3.271   2.930   4.609  0.4406 -0.4999  0.1413
 6888TIP3    H142079   3.325   2.953   4.533 -1.0606  0.5534 -0.6749
 6888TIP3    H242080   3.181   2.944   4.579 -0.1967  0.1468  2.1780
 6889TIP3   OH242081   0.822   3.034   3.608  0.3804  0.2211  0.4932
 6889TIP3    H142082   0.827   2.960   3.669  0.5194  0.3992  0.6985
 6889TIP3    H242083   0.908   3.076   3.613  0.0634  0.8454  0.9524
 6890TIP3   OH242084   5.956   4.472  11.824 -0.6771  0.0052 -0.2249
 6890TIP3    H142085   5.988   4.418  11.752 -0.7623 -0.2653 -0.0644
 6890TIP3    H242086   6.032   4.488  11.879 -0.5192  0.5896 -0.6109
 6891TIP3   OH242087   4.819   5.917   6.364  0.0020  0.1282 -0.6982
 6891TIP3    H142088   4.855   5.986   6.309 -0.1407 -1.2591 -2.6437
 6891TIP3    H242089   4.729   5.944   6.380  0.3356  1.0272 -0.3329
 6892TIP3   OH242090   3.252   3.083  14.817 -0.2033  0.6725 -0.3241
 6892TIP3    H142091   3.248   3.166  14.770  1.5542  0.9054 -0.1225
 6892TIP3    H242092   3.345   3.070  14.836 -0.7418  0.2873  2.5321
 6893TIP3   OH242093   1.024   2.446  15.277  0.2896  0.8302 -0.6931
 6893TIP3    H142094   1.035   2.521  15.219 -0.6932 -0.8687 -3.2409
 6893TIP3    H242095   0.934   2.452  15.307  0.8995  1.9062  1.0758
 6894TIP3   OH242096   3.725   4.221  12.550 -0.2767 -0.4571 -0.6222
 6894TIP3    H142097   3.732   4.131  12.583 -1.8429 -0.6982 -0.8837
 6894TIP3    H242098   3.681   4.269  12.620 -2.9066 -0.7977 -1.9318
 6895TIP3   OH242099   0.900   3.453  10.764 -0.1904  0.3913  0.4089
 6895TIP3    H142100   0.812   3.442  10.728  0.5467  0.3168 -1.5171
 6895TIP3    H242101   0.922   3.544  10.747  0.1121  0.4072  0.8692
 6896TIP3   OH242102   6.777   0.671   4.442  0.5429  0.2910  0.5305
 6896TIP3    H142103   6.858   0.719   4.461  1.9303 -1.7340  0.1385
 6896TIP3    H242104   6.782   0.593   4.498 -0.3137 -0.6896 -0.7040
 6897TIP3   OH242105   0.434   1.664  11.796  0.1955  0.5460 -0.1430
 6897TIP3    H142106   0.517   1.700  11.828  0.2264 -1.1569  1.9244
 6897TIP3    H242107   0.459   1.607  11.724  1.0885 -1.0119  1.3090
 6898TIP3   OH242108   4.059   6.636   6.387  0.5361  0.1863 -0.0605
 6898TIP3    H142109   4.040   6.549   6.423 -0.0187  0.0788 -0.5959
 6898TIP3    H242110   4.118   6.676   6.451 -1.0216  0.3028  1.3869
 6899TIP3   OH242111   4.804   3.383   5.107 -0.3128  0.4951 -0.1772
 6899TIP3    H142112   4.804   3.434   5.188  0.3347 -0.8594  0.7017
 6899TIP3    H242113   4.715   3.347   5.101 -0.3342  0.5260 -0.0336
 6900TIP3   OH242114   1.776   0.555   2.187  0.2384  0.2911  0.1058
 6900TIP3    H142115   1.826   0.523   2.262  1.6000  2.4507  0.2089
 6900TIP3    H242116   1.830   0.533   2.111 -0.4413 -0.5998 -0.1340
 6901TIP3   OH242117   2.640   5.985  12.323  0.0463  0.0685  0.1110
 6901TIP3    H142118   2.603   5.950  12.242 -0.6448 -0.4314  0.6240
 6901TIP3    H242119   2.679   6.069  12.298 -1.5059  0.6581 -0.4546
 6902TIP3   OH242120   3.676   1.290   3.253  0.2975  0.2656  0.1775
 6902TIP3    H142121   3.709   1.249   3.334 -0.2314  1.8039  1.2062
 6902TIP3    H242122   3.728   1.369   3.243 -0.7149  0.9075 -0.1155
 6903TIP3   OH242123   2.338   2.141  12.120 -0.0740 -0.6120  0.5094
 6903TIP3    H142124   2.387   2.068  12.158  1.4142  0.1798  0.1537
 6903TIP3    H242125   2.277   2.167  12.189 -1.0693 -2.5613  0.4350
 6904TIP3   OH242126   4.800   4.986  12.797  0.1371  0.9797  0.6240
 6904TIP3    H142127   4.868   5.028  12.849 -1.7596  3.4348  1.3109
 6904TIP3    H242128   4.719   4.998  12.847 -1.1328 -0.1554 -1.0075
 6905TIP3   OH242129   0.562   3.266   2.173  0.3331 -0.1255  0.2564
 6905TIP3    H142130   0.614   3.266   2.092 -1.2002  0.0448 -0.7820
 6905TIP3    H242131   0.598   3.194   2.224  1.2889 -0.2966 -0.6162
 6906TIP3   OH242132   0.648   0.411   0.213  0.3215  0.0973  0.1103
 6906TIP3    H142133   0.585   0.342   0.236  0.4189 -0.0949 -0.1982
 6906TIP3    H242134   0.660   0.401   0.118  0.2700  0.5927  0.0494
 6907TIP3   OH242135   4.595   2.058  14.572 -0.5268 -0.0404  0.3025
 6907TIP3    H142136   4.591   2.144  14.614 -0.8655 -0.7637  1.7931
 6907TIP3    H242137   4.587   2.077  14.478  2.6955  1.8225  0.2815
 6908TIP3   OH242138   5.740   0.717   3.571 -0.5070 -0.0757 -0.2035
 6908TIP3    H142139   5.651   0.735   3.543 -0.0891  1.2404 -0.7883
 6908TIP3    H242140   5.787   0.800   3.557  1.0973 -1.0732 -1.1352
 6909TIP3   OH242141   1.740   3.414  11.824 -0.0763  0.6004 -0.3556
 6909TIP3    H142142   1.718   3.507  11.822  1.6874  1.0708  0.3550
 6909TIP3    H242143   1.664   3.372  11.864  0.3235  2.1595  2.2373
 6910TIP3   OH242144   4.650   5.833   2.791  0.5191 -0.1226  0.6434
 6910TIP3    H142145   4.565   5.795   2.812  0.3934  0.5721  1.4650
 6910TIP3    H242146   4.673   5.797   2.706 -0.5267 -0.4384  0.4904
 6911TIP3   OH242147   4.272   4.463  13.089 -0.0902  0.0575 -0.0271
 6911TIP3    H142148   4.295   4.503  13.005  1.3835 -0.8574 -0.0954
 6911TIP3    H242149   4.322   4.381  13.091  0.3448  0.3198  1.9643
 6912TIP3   OH242150   0.331   5.850   1.804 -0.6091 -0.1256  0.0125
 6912TIP3    H142151   0.364   5.892   1.883 -1.0083 -0.7754  0.5333
 6912TIP3    H242152   0.292   5.768   1.834  0.9582 -1.3352 -1.0649
 6913TIP3   OH242153   2.450   3.568  16.370 -0.0829 -0.0751  0.3050
 6913TIP3    H142154   2.378   3.561  16.306 -0.0431  2.9826 -0.2265
 6913TIP3    H242155   2.520   3.612  16.322  0.7096  0.4428  1.8656
 6914TIP3   OH242156   2.579   6.409  15.646 -0.2329  0.2661  0.0200
 6914TIP3    H142157   2.500   6.356  15.653 -0.7499  1.0880  0.5001
 6914TIP3    H242158   2.629   6.388  15.725  0.1562 -0.4288 -0.3963
 6915TIP3   OH242159   5.901   3.463   3.855  0.1018  0.6695 -0.2233
 6915TIP3    H142160   5.889   3.469   3.760  0.5536 -0.8192 -0.4039
 6915TIP3    H242161   5.935   3.374   3.869 -1.1124  0.4288  1.4467
 6916TIP3   OH242162   2.186   4.211  12.097 -0.1829 -0.1508 -0.2293
 6916TIP3    H142163   2.171   4.305  12.105 -0.5610 -0.0207 -2.0986
 6916TIP3    H242164   2.194   4.180  12.187  1.0739  1.8417  0.4081
 6917TIP3   OH242165   2.961   2.176   2.600 -0.0119  0.1187 -0.3309
 6917TIP3    H142166   3.046   2.136   2.618  1.0294  2.1365 -0.4424
 6917TIP3    H242167   2.962   2.194   2.506 -1.5957 -1.9723 -0.8189
 6918TIP3   OH242168   4.295   2.705   1.645 -0.0932 -0.3078 -0.6134
 6918TIP3    H142169   4.313   2.788   1.601  0.4321  0.0069  0.1746
 6918TIP3    H242170   4.257   2.730   1.729  1.2519 -0.8163  0.1717
 6919TIP3   OH242171   0.112   2.633   0.776  0.1093 -0.3971  0.2684
 6919TIP3    H142172   0.176   2.667   0.713 -2.1213  1.1541 -1.3138
 6919TIP3    H242173   0.122   2.689   0.853  1.2083 -0.7368  0.3921
 6920TIP3   OH242174   0.270   3.662   6.273 -0.3855  0.8712  0.0187
 6920TIP3    H142175   0.211   3.663   6.349  0.9732  1.3596  1.0948
 6920TIP3    H242176   0.323   3.584   6.286  0.3044  1.3241 -0.0769
 6921TIP3   OH242177   3.771   0.868   4.606  0.4247 -0.5098  0.6160
 6921TIP3    H142178   3.846   0.839   4.657  0.2275  2.2858  2.7322
 6921TIP3    H242179   3.721   0.924   4.665 -1.5063  0.4693 -1.7420
 6922TIP3   OH242180   1.237   5.837   0.152 -0.1222 -0.7377  0.4181
 6922TIP3    H142181   1.315   5.891   0.145 -0.7397  0.3004  1.2651
 6922TIP3    H242182   1.206   5.850   0.242 -0.2064 -2.6328  0.7094
 6923TIP3   OH242183   4.745   1.612  12.216  0.1135 -0.0072  0.5870
 6923TIP3    H142184   4.840   1.615  12.202  0.0494  1.9369  0.2166
 6923TIP3    H242185   4.734   1.626  12.310  0.2023 -0.7225  0.7059
 6924TIP3   OH242186   1.003   1.720   3.361 -0.1343 -0.2676  0.3863
 6924TIP3    H142187   0.929   1.709   3.301 -0.8423 -1.1814  1.3874
 6924TIP3    H242188   0.964   1.758   3.440  0.3722 -1.2238  1.1051
 6925TIP3   OH242189   0.916   4.556   2.376 -0.5283 -0.3193 -0.2524
 6925TIP3    H142190   0.897   4.629   2.436 -0.3416  0.0919 -0.6814
 6925TIP3    H242191   0.975   4.499   2.425  1.5972  1.2283 -0.8486
 6926TIP3   OH242192   4.225   0.623  16.562  0.4109  0.8551  0.0757
 6926TIP3    H142193   4.280   0.597  16.488  0.8150  2.2562 -0.1507
 6926TIP3    H242194   4.250   0.563  16.633  1.1069  0.4657 -0.4842
 6927TIP3   OH242195   3.401   2.663   4.638  0.8556  0.3189  0.3973
 6927TIP3    H142196   3.347   2.739   4.658 -1.0190 -1.0097  0.5669
 6927TIP3    H242197   3.364   2.628   4.557  2.0535 -0.1255  0.0185
 6928TIP3   OH242198   0.344   1.518  10.730 -0.0518  0.6812 -0.1037
 6928TIP3    H142199   0.411   1.503  10.797 -0.8564  0.0128  0.5754
 6928TIP3    H242200   0.341   1.436  10.680  0.6026  1.2059 -1.0388
 6929TIP3   OH242201   5.820   0.702   5.541 -0.3888 -0.4183  0.3790
 6929TIP3    H142202   5.814   0.621   5.491 -1.6812 -0.4199  0.4889
 6929TIP3    H242203   5.892   0.688   5.602  0.4727 -0.8444 -0.7070
 6930TIP3   OH242204   3.619   3.729  16.860  0.1838 -0.4240 -0.0815
 6930TIP3    H142205   3.642   3.706  16.950 -0.1262 -2.5859 -0.4800
 6930TIP3    H242206   3.631   3.647  16.811  1.4038  0.9646 -2.2317
 6931TIP3   OH242207   4.089   6.599  14.100 -0.6015  0.1490  0.8552
 6931TIP3    H142208   4.129   6.685  14.113 -1.4410  0.3352  2.4882
 6931TIP3    H242209   4.127   6.567  14.018  1.0014  1.3404  1.0764
 6932TIP3   OH242210   0.008   4.753   2.831 -0.2164 -0.1690 -0.1187
 6932TIP3    H142211  -0.063   4.719   2.887  0.5653  1.0938  1.7382
 6932TIP3    H242212   0.088   4.718   2.870  0.3033 -0.1910 -1.1709
 6933TIP3   OH242213   6.294   2.642   1.309  0.9377  0.5475  0.2919
 6933TIP3    H142214   6.247   2.718   1.341  1.3104  0.4300  1.1569
 6933TIP3    H242215   6.244   2.612   1.233  2.2059  3.2141 -1.7676
 6934TIP3   OH242216   5.978   1.152   3.806 -0.2774  0.4252  0.1942
 6934TIP3    H142217   6.011   1.089   3.742 -1.4525  0.4532 -0.4727
 6934TIP3    H242218   5.890   1.120   3.829 -0.3766  1.1171  0.8170
 6935TIP3   OH242219   5.413   6.160  13.988  0.1735 -0.3159  0.3215
 6935TIP3    H142220   5.375   6.165  14.076  0.5089  0.8597  0.4216
 6935TIP3    H242221   5.505   6.181  14.001  0.2785 -0.4039 -0.2755
 6936TIP3   OH242222   6.141   1.341   0.529 -0.1029 -0.4689  0.2631
 6936TIP3    H142223   6.232   1.315   0.519 -0.4437 -1.9798  0.7912
 6936TIP3    H242224   6.091   1.274   0.482 -0.9627  0.0110  0.4596
 6937TIP3   OH242225   5.426   0.374  15.307  0.1323  0.1791 -0.5036
 6937TIP3    H142226   5.490   0.353  15.375  0.0196  1.3732  0.0032
 6937TIP3    H242227   5.341   0.358  15.348  0.0821 -0.1037 -0.7169
 6938TIP3   OH242228   3.640   0.075  13.088  0.4593 -0.0287  0.2740
 6938TIP3    H142229   3.696   0.015  13.037  0.5465  1.0391 -0.9329
 6938TIP3    H242230   3.698   0.110  13.155  1.2486  0.9256 -0.8527
 6939TIP3   OH242231   0.031   2.764   4.215 -0.2805 -0.0899  0.2780
 6939TIP3    H142232   0.104   2.715   4.253 -0.2503 -0.1251  0.1757
 6939TIP3    H242233   0.073   2.834   4.164 -0.2918 -0.6901 -0.5676
 6940TIP3   OH242234   4.262   3.582   2.183 -0.2624 -0.3453 -0.7675
 6940TIP3    H142235   4.318   3.593   2.259 -0.4471  0.1596 -0.7002
 6940TIP3    H242236   4.208   3.505   2.204 -1.6534  0.9040  0.4611
 6941TIP3   OH242237   5.706   0.782   1.282  0.1332 -0.5986 -0.4436
 6941TIP3    H142238   5.648   0.706   1.289 -0.6645 -0.1512 -1.9231
 6941TIP3    H242239   5.729   0.802   1.373 -0.7851 -1.7328  0.0658
 6942TIP3   OH242240   5.833   0.441  13.952 -0.1495  0.1036  0.3697
 6942TIP3    H142241   5.854   0.513  14.012 -0.4476  0.2856  0.2588
 6942TIP3    H242242   5.740   0.422  13.970 -0.5487  0.8698 -0.7702
 6943TIP3   OH242243   3.572   1.018  11.945  0.0879 -0.5042 -0.0923
 6943TIP3    H142244   3.575   1.106  11.982  1.5157 -0.1449 -0.9833
 6943TIP3    H242245   3.663   0.999  11.921 -0.2578 -2.0651 -0.2877
 6944TIP3   OH242246   1.263   6.312  12.552  0.4285 -0.1407 -0.1114
 6944TIP3    H142247   1.238   6.350  12.467 -3.1657 -0.3683  0.6941
 6944TIP3    H242248   1.297   6.225  12.530  0.7271  0.2689 -1.3779
 6945TIP3   OH242249   0.288   0.581   4.615 -0.1493  0.2159  0.1722
 6945TIP3    H142250   0.280   0.676   4.624 -1.4943  0.0354  1.2538
 6945TIP3    H242251   0.341   0.554   4.690  1.7952  0.2551 -1.1108
 6946TIP3   OH242252   0.072   5.796   1.650  0.9266  0.0125  0.2862
 6946TIP3    H142253   0.142   5.793   1.585  0.1640 -0.5211 -0.5496
 6946TIP3    H242254   0.108   5.753   1.727  1.0629 -1.6192 -0.6252
 6947TIP3   OH242255   4.818   6.302   0.166 -0.5349  0.4067 -0.5339
 6947TIP3    H142256   4.899   6.291   0.116 -0.4446  0.5268 -0.4118
 6947TIP3    H242257   4.766   6.365   0.114 -0.0376  1.2893  0.0147
 6948TIP3   OH242258   4.743   6.697   0.433 -0.0133 -0.3737 -0.1061
 6948TIP3    H142259   4.771   6.785   0.455 -1.1586 -0.3171  1.2688
 6948TIP3    H242260   4.673   6.709   0.368  0.1760 -0.3128 -0.3024
 6949TIP3   OH242261   1.333   0.466   5.601  0.6528 -0.3411  0.7652
 6949TIP3    H142262   1.377   0.522   5.665 -0.0708 -0.4611  1.3754
 6949TIP3    H242263   1.328   0.381   5.643 -0.1738 -0.3271  0.7029
 6950TIP3   OH242264   0.468   0.996  12.138  0.2342  0.3206 -0.4416
 6950TIP3    H142265   0.500   1.075  12.094  0.7811  0.4861  0.2294
 6950TIP3    H242266   0.523   0.988  12.216  0.4004 -0.9017 -0.6582
 6951TIP3   OH242267   6.014   4.720   3.605 -0.1565 -0.6587  0.2678
 6951TIP3    H142268   5.991   4.771   3.682  1.1347  0.8933 -0.3074
 6951TIP3    H242269   5.931   4.705   3.560 -0.5984  0.9126  0.5002
 6952TIP3   OH242270   5.002   1.363   2.384  0.0669 -0.3908  0.0929
 6952TIP3    H142271   4.991   1.395   2.473  2.1459  0.6572  0.0114
 6952TIP3    H242272   4.992   1.268   2.392 -0.8979 -0.2261  1.2204
 6953TIP3   OH242273   5.045   5.810  15.667 -0.0391 -0.7120 -0.3159
 6953TIP3    H142274   4.953   5.812  15.642  0.2899 -0.1840 -1.5473
 6953TIP3    H242275   5.082   5.891  15.630  0.4804  0.1969  1.9883
 6954TIP3   OH242276   1.020   3.383  12.285 -0.5569 -0.4469 -0.2574
 6954TIP3    H142277   1.008   3.291  12.260  1.7779 -1.2981  1.3110
 6954TIP3    H242278   1.065   3.423  12.210  0.6343 -1.2847 -0.0265
 6955TIP3   OH242279   5.628   6.093  16.316 -0.0760 -0.0289  0.4396
 6955TIP3    H142280   5.671   6.029  16.259 -1.0647 -1.5649  1.3566
 6955TIP3    H242281   5.658   6.178  16.283  2.8746 -0.9761  0.4604
 6956TIP3   OH242282   1.978   0.275   2.762 -0.0543 -0.3654 -0.6092
 6956TIP3    H142283   1.968   0.242   2.673  1.7567 -2.9070  0.0222
 6956TIP3    H242284   2.073   0.280   2.776 -0.2481 -1.7658  1.7102
 6957TIP3   OH242285   2.446   2.812  14.849 -0.1501 -0.2877 -0.0036
 6957TIP3    H142286   2.405   2.780  14.929 -1.9631 -1.5706 -1.3715
 6957TIP3    H242287   2.392   2.887  14.823 -0.8981 -1.1906 -1.1260
 6958TIP3   OH242288   3.210   1.674   2.300 -0.1503  0.4908 -0.7235
 6958TIP3    H142289   3.261   1.623   2.363 -0.1158  0.7374 -0.5478
 6958TIP3    H242290   3.219   1.764   2.330 -0.8329  0.5204 -0.5841
 6959TIP3   OH242291   4.884   6.579  12.160  0.1715  0.6702  0.4341
 6959TIP3    H142292   4.885   6.675  12.152 -0.7249  0.5514 -2.7728
 6959TIP3    H242293   4.926   6.549  12.079  1.5937 -1.7145  1.9251
 6960TIP3   OH242294   6.435   1.910   1.467 -0.1459  0.7749 -0.8404
 6960TIP3    H142295   6.518   1.870   1.493 -0.7737  0.0778  0.1635
 6960TIP3    H242296   6.457   2.001   1.447  0.7315  0.7872  0.1351
 6961TIP3   OH242297   1.073   6.055  14.057 -0.0611  0.3981 -0.0635
 6961TIP3    H142298   1.128   6.029  14.130 -2.2726  0.2267  1.6430
 6961TIP3    H242299   1.042   5.973  14.019 -0.5518  0.5000  0.1148
 6962TIP3   OH242300   6.394   3.579   2.915 -0.0299  0.6052  0.2551
 6962TIP3    H142301   6.428   3.667   2.897  1.3133 -0.0197 -0.4538
 6962TIP3    H242302   6.400   3.534   2.831  0.4766 -0.5224  0.8730
 6963TIP3   OH242303   0.264   3.759  17.074 -0.2979  0.3781  0.0354
 6963TIP3    H142304   0.357   3.744  17.091 -0.2859 -0.2019 -0.5119
 6963TIP3    H242305   0.262   3.790  16.983 -0.7037 -0.4052 -0.2322
 6964TIP3   OH242306   0.939   2.384   5.087  0.3712 -0.3012  0.4349
 6964TIP3    H142307   0.888   2.303   5.086  2.0568 -1.4323  0.8900
 6964TIP3    H242308   0.874   2.453   5.097 -0.9628 -1.8217  4.0502
 6965TIP3   OH242309   0.842   2.662  13.157 -0.2204 -0.5667  0.1458
 6965TIP3    H142310   0.797   2.745  13.142 -0.5911 -0.8909 -0.5490
 6965TIP3    H242311   0.933   2.687  13.174 -0.3312 -0.0193 -0.0620
 6966TIP3   OH242312   2.435   3.071  12.485  0.1477  0.0328  0.1923
 6966TIP3    H142313   2.471   3.005  12.544  2.2940  0.2059 -0.8082
 6966TIP3    H242314   2.341   3.070  12.502  0.3972 -1.6427  1.8266
 6967TIP3   OH242315   5.054   3.938  14.495  0.3316  0.2677  0.4641
 6967TIP3    H142316   5.018   3.869  14.441  1.1904  0.6281 -0.6052
 6967TIP3    H242317   5.038   3.909  14.585 -1.4625 -0.1525  0.0395
 6968TIP3   OH242318   1.836   2.948  12.741 -0.5477  0.3888  0.0029
 6968TIP3    H142319   1.856   2.990  12.657  0.0962  0.6836  0.2997
 6968TIP3    H242320   1.913   2.893  12.759 -1.3210 -0.8502 -0.3250
 6969TIP3   OH242321   4.743   0.682  17.202  0.0808  0.1606  0.6069
 6969TIP3    H142322   4.726   0.614  17.267  0.9604  0.4616  1.1758
 6969TIP3    H242323   4.834   0.668  17.176 -0.7926 -1.1527 -2.0355
 6970TIP3   OH242324   5.256   2.309   4.505  0.1342  0.5385 -0.1286
 6970TIP3    H142325   5.286   2.229   4.547  0.1859  0.5335 -0.1751
 6970TIP3    H242326   5.169   2.324   4.541 -0.7980 -0.7151 -1.6924
 6971TIP3   OH242327   1.059   1.484  13.621  0.8730 -0.3877 -0.3506
 6971TIP3    H142328   1.098   1.569  13.644 -1.0860  0.4060  0.2458
 6971TIP3    H242329   1.064   1.482  13.525  1.5588  0.0804 -0.3387
 6972TIP3   OH242330   6.526   6.294  13.892 -0.1355  1.1424  0.0475
 6972TIP3    H142331   6.544   6.204  13.920 -1.8654  1.2353  1.6235
 6972TIP3    H242332   6.492   6.285  13.803 -0.0657  0.2755  0.0979
 6973TIP3   OH242333   1.082   2.392   3.181  0.1344 -0.6003 -0.2633
 6973TIP3    H142334   1.084   2.486   3.198  0.6851 -0.5317 -0.6610
 6973TIP3    H242335   1.044   2.354   3.260 -4.2157  0.2640 -1.6972
 6974TIP3   OH242336   5.886   0.590  15.212 -0.3104 -0.0522 -0.3399
 6974TIP3    H142337   5.853   0.552  15.294  0.7021  1.1289  0.6443
 6974TIP3    H242338   5.892   0.515  15.152 -2.9575 -0.6270 -0.0171
 6975TIP3   OH242339   3.585   2.335   5.454 -0.5442 -0.2863  0.6137
 6975TIP3    H142340   3.608   2.302   5.541 -0.3469 -1.4530  0.1372
 6975TIP3    H242341   3.661   2.314   5.399 -0.7795  0.1892  0.0888
 6976TIP3   OH242342   1.220   5.549   5.084 -0.2461  0.3412 -0.1487
 6976TIP3    H142343   1.244   5.537   5.176 -3.1513 -1.7637  0.4784
 6976TIP3    H242344   1.246   5.467   5.042  0.0645  0.8566 -0.9624
 6977TIP3   OH242345   0.588   5.673   4.932  0.4121  0.5345  0.7242
 6977TIP3    H142346   0.643   5.665   5.010  1.8717  0.3005 -0.2971
 6977TIP3    H242347   0.604   5.592   4.883  0.7111  1.3486 -0.5589
 6978TIP3   OH242348   1.964   3.213  15.229 -0.1794  0.4693 -0.0308
 6978TIP3    H142349   2.033   3.148  15.232  0.2555  0.9347  0.2849
 6978TIP3    H242350   1.992   3.275  15.161  0.2582  1.2378  0.8196
 6979TIP3   OH242351   1.210   4.450  14.671  0.0561 -0.1166 -0.1943
 6979TIP3    H142352   1.250   4.519  14.617 -1.3118  1.1363  0.3302
 6979TIP3    H242353   1.121   4.443  14.638 -0.1017 -0.9895  0.3880
 6980TIP3   OH242354   1.805   4.609  11.104  0.4989  0.1606 -0.3766
 6980TIP3    H142355   1.891   4.567  11.116  1.8808  2.7216 -0.6651
 6980TIP3    H242356   1.825   4.702  11.095 -2.0242  0.5531 -3.7237
 6981TIP3   OH242357   2.795   6.599  10.467 -0.7242  0.2038  0.4658
 6981TIP3    H142358   2.848   6.679  10.462 -0.6799  0.1370 -0.4091
 6981TIP3    H242359   2.756   6.591  10.380  1.3379 -2.1202 -0.3837
 6982TIP3   OH242360   2.055   0.568  13.587 -0.2576  0.1753 -0.4778
 6982TIP3    H142361   2.116   0.541  13.519 -0.8579 -0.1604 -0.8902
 6982TIP3    H242362   1.973   0.523  13.566 -0.6702  0.6646  0.0284
 6983TIP3   OH242363   4.584   1.474  12.710  0.4981 -0.2088 -0.0093
 6983TIP3    H142364   4.531   1.546  12.678  1.2707  0.6684  0.6132
 6983TIP3    H242365   4.616   1.504  12.795 -0.2714 -1.8432  0.9126
 6984TIP3   OH242366   5.275   0.129   4.867 -0.4165 -0.2562  0.3205
 6984TIP3    H142367   5.254   0.042   4.903 -1.4720  0.7286  2.2183
 6984TIP3    H242368   5.191   0.175   4.866  0.4658  1.5146  1.6198
 6985TIP3   OH242369   0.082   5.144  14.591  0.8808  0.0872  0.4806
 6985TIP3    H142370  -0.009   5.115  14.586 -0.1312  2.1465  3.6698
 6985TIP3    H242371   0.129   5.070  14.630  0.0398 -0.1462  1.0753
 6986TIP3   OH242372   1.486   4.435  11.217  1.2437 -0.0775  0.8038
 6986TIP3    H142373   1.474   4.369  11.149 -1.3075  0.4809  0.6234
 6986TIP3    H242374   1.415   4.417  11.280  0.0423  2.8194  0.4176
 6987TIP3   OH242375   3.184   6.007  12.360 -0.0270 -0.1667  0.3115
 6987TIP3    H142376   3.111   5.949  12.341  0.4646 -0.7775  0.2591
 6987TIP3    H242377   3.153   6.094  12.335 -0.4654 -0.5306 -0.4299
 6988TIP3   OH242378   3.569   6.292   2.187  0.6480 -0.4667 -0.1882
 6988TIP3    H142379   3.484   6.277   2.145  0.5908 -2.7376  0.6399
 6988TIP3    H242380   3.549   6.357   2.256 -0.2950 -0.5355 -0.3762
 6989TIP3   OH242381   2.683   0.587   0.572 -0.6064 -0.4884  0.4094
 6989TIP3    H142382   2.632   0.506   0.568 -2.5503  0.7066 -0.3476
 6989TIP3    H242383   2.646   0.636   0.645  1.7481 -0.9651  2.0442
 6990TIP3   OH242384   2.222   6.167  14.844  0.0264 -0.2733 -0.5241
 6990TIP3    H142385   2.300   6.122  14.812  1.5823  0.8667  1.4217
 6990TIP3    H242386   2.198   6.227  14.773  0.7280 -0.8281 -1.2483
 6991TIP3   OH242387   1.874   0.301  14.067 -1.1683 -0.2014  1.3624
 6991TIP3    H142388   1.852   0.314  13.975 -1.4565  0.1792  1.4777
 6991TIP3    H242389   1.969   0.311  14.072 -1.1809  0.0208  1.1457
 6992TIP3   OH242390   2.770   0.211   3.434  0.1059  0.1131 -0.1930
 6992TIP3    H142391   2.722   0.293   3.447 -0.6219 -0.4892  1.0272
 6992TIP3    H242392   2.800   0.187   3.522  0.0060 -1.1141 -0.4823
 6993TIP3   OH242393   0.299   6.429   1.907  0.1996 -0.7498  0.1587
 6993TIP3    H142394   0.370   6.385   1.955  0.4318 -0.5574 -0.0063
 6993TIP3    H242395   0.322   6.418   1.815  0.2446 -0.3109  0.1137
 6994TIP3   OH242396   1.223   2.460  12.066  0.3920  0.0818 -0.5487
 6994TIP3    H142397   1.154   2.464  11.999  1.2826 -0.4940 -1.5374
 6994TIP3    H242398   1.191   2.396  12.130 -1.5019  2.2793  0.8493
 6995TIP3   OH242399   6.090   5.203   1.205  0.1479 -0.0778 -0.2015
 6995TIP3    H142400   6.014   5.233   1.255  0.5955 -0.8068  0.9412
 6995TIP3    H242401   6.138   5.283   1.186  0.2856  0.1571  1.0734
 6996TIP3   OH242402   1.617   2.479   5.318  0.5777 -0.2517 -0.1961
 6996TIP3    H142403   1.569   2.488   5.236  1.1838 -1.2591 -0.6763
 6996TIP3    H242404   1.708   2.464   5.292  0.9317  0.2986  0.6756
 6997TIP3   OH242405   3.569   1.284  14.128  0.1284  0.0350  0.0260
 6997TIP3    H142406   3.476   1.295  14.145  0.0247 -0.3001 -0.3210
 6997TIP3    H242407   3.574   1.250  14.038  0.6516  1.6695 -0.6026
 6998TIP3   OH242408   5.187   0.312  15.394 -0.5541 -0.5704 -0.4280
 6998TIP3    H142409   5.131   0.259  15.338 -2.2909  0.7460 -0.0291
 6998TIP3    H242410   5.189   0.265  15.478  0.3374 -1.4571 -0.9201
 6999TIP3   OH242411   6.615   2.377  10.680  0.2087  0.0362 -0.2921
 6999TIP3    H142412   6.639   2.369  10.588  1.2610 -1.5657  0.0811
 6999TIP3    H242413   6.630   2.469  10.701  1.8027  0.0345 -1.2520
 7000TIP3   OH242414   3.769   2.368   2.009 -0.1165 -0.1318  0.6950
 7000TIP3    H142415   3.696   2.399   2.062 -0.1865  0.3697  0.3123
 7000TIP3    H242416   3.762   2.417   1.927 -1.9354 -3.1107 -1.1415
 7001TIP3   OH242417   3.017   0.810  14.401  0.3249 -0.7185  0.0842
 7001TIP3    H142418   2.985   0.898  14.421 -1.2155 -1.0510 -0.7426
 7001TIP3    H242419   3.098   0.824  14.351 -1.0722  0.3351 -2.0290
 7002TIP3   OH242420   1.546   5.370  11.154 -0.0138 -0.2688  0.2267
 7002TIP3    H142421   1.597   5.449  11.172 -0.7249  0.6013 -1.3431
 7002TIP3    H242422   1.561   5.353  11.060 -0.4939 -1.5572  0.3568
 7003TIP3   OH242423   5.948   4.197   5.055 -0.8236  0.1438 -0.0946
 7003TIP3    H142424   5.908   4.231   4.975 -0.3990 -0.4968 -0.5863
 7003TIP3    H242425   6.018   4.139   5.025  0.4169  1.1544  0.7524
 7004TIP3   OH242426   2.354   1.780   3.776  0.8355  0.0164  0.2221
 7004TIP3    H142427   2.300   1.850   3.813  1.2637  0.1242  0.6611
 7004TIP3    H242428   2.382   1.729   3.852  0.1854 -0.8845 -0.1291
 7005TIP3   OH242429   5.349   5.629   0.789  0.4150 -0.1460  0.8779
 7005TIP3    H142430   5.322   5.715   0.758 -0.3895  0.4105  2.9410
 7005TIP3    H242431   5.294   5.613   0.865  1.7340 -1.7357  1.5526
 7006TIP3   OH242432   1.272   1.800  13.060 -0.5595  0.3536 -0.4887
 7006TIP3    H142433   1.355   1.847  13.059 -0.0443 -0.5252 -0.1871
 7006TIP3    H242434   1.292   1.715  13.020 -1.3941  0.2552 -0.7223
 7007TIP3   OH242435   4.243   6.461   6.215 -0.0802 -0.1615  0.0958
 7007TIP3    H142436   4.215   6.369   6.213  1.3959 -0.6808  1.3525
 7007TIP3    H242437   4.216   6.492   6.301 -0.5181  0.5791 -0.3023
 7008TIP3   OH242438   2.617   5.798  14.997 -0.1193 -0.4229  0.5563
 7008TIP3    H142439   2.546   5.755  14.950 -0.2710  1.0814 -0.6642
 7008TIP3    H242440   2.696   5.771  14.950 -0.2762  1.1287 -0.6718
 7009TIP3   OH242441   1.391   4.336  12.901 -0.1885 -0.7833 -0.3324
 7009TIP3    H142442   1.365   4.268  12.839  0.8661 -0.3031 -1.3471
 7009TIP3    H242443   1.310   4.363  12.943 -0.9534 -1.0585 -1.5798
 7010TIP3   OH242444   0.733   5.589   1.822 -0.0881  0.4274 -0.0538
 7010TIP3    H142445   0.748   5.654   1.754  1.1511 -0.1602 -0.3718
 7010TIP3    H242446   0.749   5.635   1.904  0.0479  0.7097 -0.2406
 7011TIP3   OH242447   1.619   4.193  16.807  0.3513 -0.4852  0.3722
 7011TIP3    H142448   1.644   4.142  16.730 -0.8648 -1.3699  0.5321
 7011TIP3    H242449   1.528   4.170  16.822  0.1901  0.6802  1.3093
 7012TIP3   OH242450   4.883   1.201  13.542  0.2056 -0.3853 -0.1228
 7012TIP3    H142451   4.805   1.177  13.493  0.2304 -0.0281 -0.3425
 7012TIP3    H242452   4.955   1.189  13.481  0.2786 -0.3279 -0.0496
 7013TIP3   OH242453   2.007   1.086  14.064  0.5717 -0.3179 -0.0708
 7013TIP3    H142454   1.914   1.109  14.077  0.9206  1.0613  0.2253
 7013TIP3    H242455   2.037   1.059  14.151  0.2270 -1.7236 -0.3658
 7014TIP3   OH242456   0.275   4.722   4.953 -0.5943 -0.0698 -0.0672
 7014TIP3    H142457   0.344   4.656   4.943  1.1412  1.8345 -1.6411
 7014TIP3    H242458   0.314   4.789   5.010 -1.3710  0.7480 -0.4656
 7015TIP3   OH242459   5.237   1.387   6.223  0.4679  0.3603 -0.2358
 7015TIP3    H142460   5.260   1.368   6.314  1.5565  0.1220 -0.5402
 7015TIP3    H242461   5.255   1.306   6.176 -2.4827 -0.3480 -0.3107
 7016TIP3   OH242462   0.517   1.040   0.489 -0.0337  0.3265 -0.1581
 7016TIP3    H142463   0.518   1.011   0.580  1.2900 -0.2595 -0.3367
 7016TIP3    H242464   0.447   1.105   0.485 -0.9343 -0.5399  0.9870
 7017TIP3   OH242465   2.380   3.992   5.257 -0.1549  0.2275  0.2287
 7017TIP3    H142466   2.394   3.926   5.325  1.3886 -0.4888 -0.7405
 7017TIP3    H242467   2.319   3.952   5.196  0.8638 -0.3655 -0.4148
 7018TIP3   OH242468   3.543   4.859  16.138  0.1737  0.1200 -0.0544
 7018TIP3    H142469   3.580   4.930  16.084 -1.1384 -0.1942 -1.4337
 7018TIP3    H242470   3.453   4.850  16.107 -0.2691 -0.8802  1.4249
 7019TIP3   OH242471   3.771   2.210  16.481 -0.0641 -0.4630 -0.2190
 7019TIP3    H142472   3.713   2.175  16.413 -0.2361  1.3802 -1.0960
 7019TIP3    H242473   3.856   2.217  16.438  0.4788 -1.7020  0.5895
 7020TIP3   OH242474   5.481   5.138  16.739  0.3552 -0.0403  0.0107
 7020TIP3    H142475   5.443   5.160  16.823 -1.2853 -1.1136 -0.4125
 7020TIP3    H242476   5.414   5.087  16.694  1.4161 -0.0127 -1.7140
 7021TIP3   OH242477   4.020   1.982  16.170  0.0980 -1.0109  1.0052
 7021TIP3    H142478   4.099   2.017  16.129 -0.4338 -0.8000  0.1318
 7021TIP3    H242479   4.037   1.888  16.179 -0.2118 -1.2783 -0.8046
 7022TIP3   OH242480   2.034   5.760   3.888  0.0843  0.2794  0.2009
 7022TIP3    H142481   2.102   5.747   3.955 -0.2318 -1.3500  0.2643
 7022TIP3    H242482   2.040   5.852   3.865  1.0357  0.6003  1.5877
 7023TIP3   OH242483   0.524   0.954   5.572  0.0993 -0.5946 -0.4529
 7023TIP3    H142484   0.469   0.971   5.496  0.8651 -0.3477 -0.9630
 7023TIP3    H242485   0.488   0.873   5.610 -1.4026  0.2434 -0.0164
 7024TIP3   OH242486   2.859   5.125   4.774  0.1763  0.1841  0.2469
 7024TIP3    H142487   2.900   5.066   4.837  0.5120  1.2502  1.0649
 7024TIP3    H242488   2.773   5.088   4.757 -0.2973  0.3833  2.0910
 7025TIP3   OH242489   2.503   3.983  15.864  0.1393 -0.0667 -0.5363
 7025TIP3    H142490   2.575   3.973  15.926 -1.3152 -0.8200  1.1110
 7025TIP3    H242491   2.431   4.018  15.916 -1.2958 -1.1837 -1.6638
 7026TIP3   OH242492   5.594   2.911  17.106 -0.4390  0.4462 -0.5253
 7026TIP3    H142493   5.532   2.843  17.135 -3.0597  3.2511  1.0614
 7026TIP3    H242494   5.677   2.887  17.148 -1.3789 -1.4963  0.3628
 7027TIP3   OH242495   5.919   1.433   2.496  0.1941  0.9645 -0.1423
 7027TIP3    H142496   5.987   1.436   2.429  0.5716  1.7656  0.2662
 7027TIP3    H242497   5.888   1.523   2.503 -0.1062  0.8164  0.4930
 7028TIP3   OH242498   1.696   4.922  12.270  0.5128 -0.4270  0.4540
 7028TIP3    H142499   1.729   4.865  12.339  1.4878  1.2946  1.4930
 7028TIP3    H242500   1.749   5.002  12.278 -0.5504  0.4977 -1.1491
 7029TIP3   OH242501   1.759   1.104   4.131  0.0752 -0.2967  0.0559
 7029TIP3    H142502   1.716   1.107   4.046  2.6430 -0.6876 -1.3717
 7029TIP3    H242503   1.724   1.180   4.179 -1.9023 -0.4461 -1.0596
 7030TIP3   OH242504   3.875   3.510   6.260 -0.0559 -0.3267  0.3372
 7030TIP3    H142505   3.850   3.485   6.171 -0.0830 -0.7636  0.4608
 7030TIP3    H242506   3.971   3.502   6.262  0.0900  1.1379 -0.0747
 7031TIP3   OH242507   6.278   6.486   1.894 -0.0355  0.8081  0.5070
 7031TIP3    H142508   6.254   6.562   1.948  1.0589  0.8561  0.9476
 7031TIP3    H242509   6.195   6.441   1.878 -0.3620  0.6019  2.5265
 7032TIP3   OH242510   4.682   2.966   3.772 -0.5883 -0.3729  0.0169
 7032TIP3    H142511   4.739   3.041   3.753 -1.0080 -0.3600 -1.3754
 7032TIP3    H242512   4.712   2.898   3.712 -2.2776 -0.2087 -1.1053
 7033TIP3   OH242513   5.909   4.651   4.880  0.3635 -0.2546  0.5287
 7033TIP3    H142514   5.849   4.585   4.916  0.3269 -0.8764 -0.6396
 7033TIP3    H242515   5.971   4.667   4.951 -1.6261  1.0374  2.0825
 7034TIP3   OH242516   5.799   1.908   3.008 -0.2418  0.7022  0.1476
 7034TIP3    H142517   5.863   1.976   2.989 -1.2699  1.5068 -0.5049
 7034TIP3    H242518   5.726   1.926   2.950 -0.7022 -0.7409  0.2337
 7035TIP3   OH242519   0.162   5.820  14.741  0.4323 -0.2200 -0.4367
 7035TIP3    H142520   0.153   5.882  14.814 -0.0328 -0.5574 -0.1996
 7035TIP3    H242521   0.169   5.735  14.784 -0.5230 -0.4935 -0.7983
 7036TIP3   OH242522   5.788   0.748  15.718  0.2029  0.1901  0.4293
 7036TIP3    H142523   5.758   0.836  15.739 -1.5079 -0.6770  1.8214
 7036TIP3    H242524   5.712   0.705  15.679  0.9115 -0.7987  0.1048
 7037TIP3   OH242525   2.974   1.652  16.995  0.4362 -0.3653 -0.1907
 7037TIP3    H142526   2.961   1.730  17.050 -1.0951 -1.3443  0.9116
 7037TIP3    H242527   3.063   1.662  16.961  0.4466  1.6410  0.2618
 7038TIP3   OH242528   4.492   4.315  13.144 -0.5561  0.9141  0.4310
 7038TIP3    H142529   4.497   4.231  13.190  1.2572  1.3794  1.1659
 7038TIP3    H242530   4.535   4.299  13.060  0.6846  1.3069  0.9601
 7039TIP3   OH242531   0.177   1.777  15.805 -0.0615  0.0254  0.1059
 7039TIP3    H142532   0.270   1.780  15.829 -0.2898 -0.0382  1.0398
 7039TIP3    H242533   0.155   1.868  15.785  0.3155 -0.0313 -0.5964
 7040TIP3   OH242534   0.648   0.924  15.233 -0.2742 -0.1538 -0.6526
 7040TIP3    H142535   0.698   0.962  15.306  2.2013 -2.0579 -1.2092
 7040TIP3    H242536   0.564   0.969  15.235 -0.5946 -0.5233  3.7610
 7041TIP3   OH242537   4.071   0.356   5.226 -0.1276 -0.2255  0.4909
 7041TIP3    H142538   4.129   0.338   5.152 -1.3975 -1.5907 -0.2343
 7041TIP3    H242539   4.086   0.283   5.287 -1.2203 -0.7516  0.1687
 7042TIP3   OH242540   3.802   1.581   1.444 -0.3079 -0.1510 -0.0048
 7042TIP3    H142541   3.848   1.629   1.512 -0.9124  0.1228  0.2194
 7042TIP3    H242542   3.841   1.611   1.362  1.7367 -1.8570  0.2674
 7043TIP3   OH242543   3.267   3.844  12.769  0.7326  0.0998 -0.1471
 7043TIP3    H142544   3.184   3.844  12.722  0.5605 -0.8804  0.1447
 7043TIP3    H242545   3.242   3.837  12.861  1.1484 -0.5492 -0.0803
 7044TIP3   OH242546   1.740   2.268   3.453 -0.5400 -0.2306 -0.0855
 7044TIP3    H142547   1.710   2.357   3.434  1.1621 -0.0301 -2.1432
 7044TIP3    H242548   1.688   2.213   3.395  1.4323 -0.0872 -2.0854
 7045TIP3   OH242549   4.072   1.878  14.232 -0.4613  0.5827  0.3178
 7045TIP3    H142550   4.115   1.866  14.147  1.7783  0.1304  1.4316
 7045TIP3    H242551   4.130   1.937  14.280 -0.4832 -0.9150  2.3041
 7046TIP3   OH242552   6.627   1.184   6.082  0.1221  0.5139  0.3655
 7046TIP3    H142553   6.569   1.176   6.006 -0.7692  2.4585  0.7951
 7046TIP3    H242554   6.595   1.117   6.143  1.0755 -1.3225 -1.0277
 7047TIP3   OH242555   3.510   3.118   4.001  0.0705 -0.0062 -0.6580
 7047TIP3    H142556   3.521   3.134   3.908 -1.5007  3.5415 -0.4006
 7047TIP3    H242557   3.584   3.162   4.042  1.0640 -2.0186 -0.1562
 7048TIP3   OH242558   0.303   0.718   6.467  0.0698  0.1131  0.1194
 7048TIP3    H142559   0.339   0.632   6.448  1.4197  1.0361 -1.9111
 7048TIP3    H242560   0.376   0.766   6.507 -0.6166  0.3883  1.0768
 7049TIP3   OH242561   3.611   2.186   3.196 -0.1573  0.6459 -0.9541
 7049TIP3    H142562   3.599   2.091   3.204  1.2802  0.4952 -0.2826
 7049TIP3    H242563   3.534   2.223   3.239  1.5504 -0.2483  3.3483
 7050TIP3   OH242564   5.570   2.625   4.959 -0.0581 -0.0131 -0.8529
 7050TIP3    H142565   5.476   2.605   4.951 -0.3693  0.6839  0.6066
 7050TIP3    H242566   5.584   2.632   5.054  1.5652 -0.4995 -1.0407
 7051TIP3   OH242567   6.657   1.514  16.488  0.4482  0.2781  0.3385
 7051TIP3    H142568   6.618   1.597  16.459 -1.1849 -0.3132  0.7356
 7051TIP3    H242569   6.664   1.462  16.409  0.0246  0.2412  0.3216
 7052TIP3   OH242570   3.481   3.622  13.902 -0.1595  0.1435  0.3508
 7052TIP3    H142571   3.412   3.678  13.938  0.4573  0.3309  1.2729
 7052TIP3    H242572   3.538   3.603  13.977  1.2037  0.6090 -0.5321
 7053TIP3   OH242573   1.194   2.982  14.855 -0.1951 -0.3279 -0.0540
 7053TIP3    H142574   1.146   2.902  14.834 -2.5292  1.1140 -0.5274
 7053TIP3    H242575   1.225   2.969  14.944  2.4940 -3.0811 -1.1939
 7054TIP3   OH242576   6.129   1.172   0.276  0.0997  0.2231  0.0984
 7054TIP3    H142577   6.033   1.175   0.282  0.1169 -0.7934  1.6302
 7054TIP3    H242578   6.152   1.086   0.311  1.5935  0.5928  0.0962
 7055TIP3   OH242579   2.438   0.277   3.798  0.1060 -0.8349 -0.0872
 7055TIP3    H142580   2.487   0.348   3.840 -0.6243 -1.4613  1.9559
 7055TIP3    H242581   2.371   0.321   3.746 -0.6893  0.0393  1.5824
 7056TIP3   OH242582   4.800   3.870   3.294  0.3140  0.2262 -0.4361
 7056TIP3    H142583   4.815   3.872   3.199  0.6937  1.9038 -0.3759
 7056TIP3    H242584   4.786   3.962   3.318  1.7056  0.0391  1.3555
 7057TIP3   OH242585   2.542   5.595  12.744 -0.1004  0.7027 -0.8009
 7057TIP3    H142586   2.487   5.664  12.781 -1.3695 -1.4320  1.6227
 7057TIP3    H242587   2.632   5.627  12.755 -0.4864  0.8899  2.9583
 7058TIP3   OH242588   6.080   0.601  16.071 -0.0989 -0.7105  0.1254
 7058TIP3    H142589   6.154   0.596  16.010 -0.3502 -0.4304 -0.2046
 7058TIP3    H242590   6.080   0.692  16.102  0.6841 -1.1014  1.3821
 7059TIP3   OH242591   0.376   2.979   2.753  0.1046  0.1950  0.0902
 7059TIP3    H142592   0.385   2.930   2.672  0.0619  2.4657 -1.3770
 7059TIP3    H242593   0.466   3.004   2.777 -0.0202  0.9091 -0.1719
 7060TIP3   OH242594   0.926   5.796   6.104  0.2991 -0.4877 -0.4196
 7060TIP3    H142595   0.869   5.745   6.047  0.2630 -0.7261 -0.1747
 7060TIP3    H242596   0.868   5.860   6.145 -0.2282 -1.9736  1.3306
 7061TIP3   OH242597   2.811   3.708   6.507  0.2198  0.2034 -0.4259
 7061TIP3    H142598   2.804   3.662   6.590  2.1420  3.8443  1.9912
 7061TIP3    H242599   2.721   3.734   6.487 -0.4917 -2.0203 -0.4409
 7062TIP3   OH242600   5.811   4.981   3.830  0.1760  0.8602  0.0120
 7062TIP3    H142601   5.780   4.904   3.878 -0.8904  0.5476 -1.1343
 7062TIP3    H242602   5.748   4.992   3.758  0.1916  2.9197  0.2556
 7063TIP3   OH242603   2.047   0.076  12.330  0.2423  0.2020 -0.6784
 7063TIP3    H142604   2.015   0.163  12.354 -0.0236  0.4836 -1.9348
 7063TIP3    H242605   2.101   0.048  12.403 -1.5708  0.4095  0.8114
 7064TIP3   OH242606   4.599   3.845   1.675 -0.1849  0.5175  0.3774
 7064TIP3    H142607   4.640   3.771   1.631 -1.7099  0.2810 -0.7537
 7064TIP3    H242608   4.552   3.807   1.749 -0.4022  0.4305  0.1977
 7065TIP3   OH242609   1.510   2.604   4.783 -0.1329 -0.1391  0.1227
 7065TIP3    H142610   1.422   2.568   4.789  0.0091 -0.5150 -0.0192
 7065TIP3    H242611   1.497   2.696   4.761 -0.4785 -0.7540 -2.6233
 7066TIP3   OH242612   0.882   4.296   2.708 -0.3894  0.0419  0.4646
 7066TIP3    H142613   0.805   4.347   2.733 -0.7327 -0.3154  0.1430
 7066TIP3    H242614   0.848   4.225   2.654  0.1063 -0.4180  0.7380
 7067TIP3   OH242615   1.601   0.651  15.360  0.2056 -0.0380 -0.2093
 7067TIP3    H142616   1.506   0.643  15.357  0.0056  1.4435  1.2380
 7067TIP3    H242617   1.624   0.694  15.278 -0.3830 -0.2578 -0.4955
 7068TIP3   OH242618   1.478   2.995  11.535 -0.0425 -0.3543  0.5040
 7068TIP3    H142619   1.501   3.079  11.575  2.4214 -1.3609  1.3524
 7068TIP3    H242620   1.399   2.967  11.582  1.1713 -0.1702  2.8023
 7069TIP3   OH242621   4.126   0.649  15.074 -0.0353 -0.5774  0.5755
 7069TIP3    H142622   4.049   0.686  15.032  0.2539 -0.8058 -0.1678
 7069TIP3    H242623   4.095   0.569  15.116 -0.1462 -0.8155  0.0389
 7070TIP3   OH242624   2.014   5.164  14.073  0.4381 -0.0466  0.3251
 7070TIP3    H142625   2.099   5.160  14.118 -0.5645 -1.0524  2.2470
 7070TIP3    H242626   2.006   5.079  14.030 -0.4389 -0.7891  1.8716
 7071TIP3   OH242627   3.011   2.637   1.051 -0.3135  0.0598  0.0396
 7071TIP3    H142628   2.981   2.555   1.011  0.6843 -0.0724 -0.4626
 7071TIP3    H242629   3.035   2.692   0.977 -1.2529  0.9387  0.3616
 7072TIP3   OH242630   5.289   2.379  11.772 -0.3317 -0.0040  0.1912
 7072TIP3    H142631   5.200   2.404  11.797 -0.6910  0.1864 -1.2231
 7072TIP3    H242632   5.285   2.284  11.762 -0.4805  0.0458 -0.2430
 7073TIP3   OH242633   4.787   0.196   2.204 -0.2451 -1.2785  0.2007
 7073TIP3    H142634   4.791   0.128   2.271  0.5511 -0.7514  0.7036
 7073TIP3    H242635   4.697   0.229   2.209 -0.0688 -0.9122  1.3654
 7074TIP3   OH242636   4.010   0.261  13.553  0.2986 -0.4128 -0.7881
 7074TIP3    H142637   4.073   0.191  13.571  1.7519  0.9732 -0.2949
 7074TIP3    H242638   3.935   0.240  13.608  0.7141 -1.5608 -0.6340
 7075TIP3   OH242639   5.377   1.533  15.509  0.7960 -0.0094  0.1635
 7075TIP3    H142640   5.443   1.601  15.498 -0.0786  1.0870  1.2914
 7075TIP3    H242641   5.368   1.525  15.604 -0.4979 -0.3209  0.0275
 7076TIP3   OH242642   1.206   2.796  14.646  0.3181  0.2730 -0.1342
 7076TIP3    H142643   1.269   2.785  14.574 -0.8753  0.2330 -1.1933
 7076TIP3    H242644   1.255   2.769  14.724  1.4105 -0.3892 -1.0123
 7077TIP3   OH242645   3.104   0.971   6.282  0.0095 -0.0380  0.0001
 7077TIP3    H142646   3.016   0.970   6.318 -0.7110 -1.6836 -1.6424
 7077TIP3    H242647   3.098   0.919   6.202  2.3956  0.1077 -0.3532
 7078TIP3   OH242648   2.268   0.040   0.916 -0.3155  0.1138  0.1148
 7078TIP3    H142649   2.282   0.034   0.822  0.9115 -0.3226  0.3035
 7078TIP3    H242650   2.175   0.020   0.928  0.0951 -2.7868 -0.7670
 7079TIP3   OH242651   2.668   2.425  12.217 -0.3444  0.0029 -0.0523
 7079TIP3    H142652   2.578   2.456  12.226 -0.3429 -0.2653  1.1369
 7079TIP3    H242653   2.699   2.417  12.308  0.3362 -1.4552 -0.3844
 7080TIP3   OH242654   1.595   5.758  12.950  0.5143 -0.2675  0.2228
 7080TIP3    H142655   1.671   5.708  12.924  2.0146  2.1185 -0.3002
 7080TIP3    H242656   1.520   5.705  12.922  1.8880 -2.9012  1.1765
 7081TIP3   OH242657   3.238   0.433   2.053  0.3219 -0.4432 -0.0238
 7081TIP3    H142658   3.251   0.340   2.070  0.8652 -0.3790 -0.0646
 7081TIP3    H242659   3.184   0.436   1.975 -0.2319 -0.7282  0.3411
 7082TIP3   OH242660   3.736   2.538  12.897  0.2000 -0.0108  0.1674
 7082TIP3    H142661   3.771   2.617  12.858 -2.6179  1.6208  0.6421
 7082TIP3    H242662   3.648   2.529  12.860  0.3973 -2.9726  0.1280
 7083TIP3   OH242663   1.519   2.327   3.231  0.7200 -0.2347 -0.1692
 7083TIP3    H142664   1.600   2.344   3.278  2.2174 -1.3266 -2.1765
 7083TIP3    H242665   1.533   2.242   3.190 -1.0671 -0.0208 -1.3396
 7084TIP3   OH242666   2.158   2.108   1.178  0.1307 -0.1709 -0.0212
 7084TIP3    H142667   2.157   2.138   1.269  0.5327 -2.1294  0.6649
 7084TIP3    H242668   2.225   2.163   1.136  0.3033  0.4031  0.9753
 7085TIP3   OH242669   0.132   2.730  14.730  0.0687 -0.0785 -0.0626
 7085TIP3    H142670   0.196   2.763  14.793 -0.2723 -0.5751  0.5586
 7085TIP3    H242671   0.125   2.799  14.664 -0.5989  1.0782  1.1719
 7086TIP3   OH242672   4.477   0.357  15.468 -0.6360 -0.0699  0.0260
 7086TIP3    H142673   4.561   0.386  15.433 -0.5507 -1.0201 -0.5800
 7086TIP3    H242674   4.493   0.267  15.496 -1.3801 -0.1574  0.1771
 7087TIP3   OH242675   3.965   4.731   5.201 -0.2373 -0.2531  0.4804
 7087TIP3    H142676   3.994   4.640   5.209  0.9348  0.0528 -0.1273
 7087TIP3    H242677   4.044   4.780   5.179 -0.6622  1.0682  1.7441
 7088TIP3   OH242678   1.143   5.334   0.788  0.2420  0.1466 -0.5725
 7088TIP3    H142679   1.159   5.338   0.883  0.1189 -1.4049 -0.4692
 7088TIP3    H242680   1.221   5.293   0.752  0.4176  1.0084 -1.2028
 7089TIP3   OH242681   4.769   6.115   3.484  0.3726 -0.5235  0.1922
 7089TIP3    H142682   4.741   6.203   3.509  0.4711 -0.3627 -0.2488
 7089TIP3    H242683   4.782   6.121   3.389 -0.0850 -1.1430  0.0909
 7090TIP3   OH242684   4.677   3.386  13.257 -0.7158  0.0144 -0.1393
 7090TIP3    H142685   4.668   3.444  13.181 -2.6243 -0.9757 -0.7251
 7090TIP3    H242686   4.612   3.419  13.319  1.9720  1.9040  1.9016
 7091TIP3   OH242687   0.996   4.264   6.456  0.2007  0.0075  0.3001
 7091TIP3    H142688   0.917   4.222   6.423 -0.5717  1.1706  0.5943
 7091TIP3    H242689   1.065   4.235   6.397 -0.2286 -1.8559  0.6349
 7092TIP3   OH242690   0.513   0.334   3.227  0.5689  0.6548 -0.4456
 7092TIP3    H142691   0.465   0.265   3.180 -0.5577  1.6745 -0.8477
 7092TIP3    H242692   0.453   0.361   3.296  0.9578  1.3098 -0.3607
 7093TIP3   OH242693   5.316   5.696  10.946 -0.7128  0.3373  0.0264
 7093TIP3    H142694   5.254   5.729  10.881 -0.8506 -0.1332 -0.0868
 7093TIP3    H242695   5.342   5.610  10.913  1.2249  1.1516 -0.7492
 7094TIP3   OH242696   0.369   0.430   5.647 -0.2421 -0.2422  0.5112
 7094TIP3    H142697   0.425   0.434   5.725  0.8260 -0.5974 -0.2081
 7094TIP3    H242698   0.358   0.336   5.631 -3.0231 -0.2686  1.9715
 7095TIP3   OH242699   2.000   3.258  11.826 -0.0284  0.0167  0.5691
 7095TIP3    H142700   1.930   3.323  11.834 -0.2015  0.1438 -1.3752
 7095TIP3    H242701   2.054   3.270  11.904 -1.2839  0.9972  1.3187
 7096TIP3   OH242702   5.536   5.239  15.077 -0.0491 -0.5498  0.0692
 7096TIP3    H142703   5.494   5.273  14.998 -2.8979 -0.9007  1.3056
 7096TIP3    H242704   5.543   5.315  15.135 -1.7958 -1.0083  0.9526
 7097TIP3   OH242705   4.246   3.691   0.023  0.5422  0.4651 -0.5373
 7097TIP3    H142706   4.316   3.754   0.005  1.9190 -1.1655 -1.1271
 7097TIP3    H242707   4.232   3.647  -0.061 -0.8754  0.4350 -0.3062
 7098TIP3   OH242708   5.137   6.279  16.360  0.2714 -0.4648 -0.3799
 7098TIP3    H142709   5.211   6.238  16.405  0.3705  1.2607  1.1813
 7098TIP3    H242710   5.060   6.241  16.401  0.3515 -0.0609  0.1648
 7099TIP3   OH242711   4.806   5.727  12.505 -0.6827 -0.2895  0.9179
 7099TIP3    H142712   4.765   5.705  12.421  1.8553  0.1081 -0.5531
 7099TIP3    H242713   4.875   5.661  12.516 -1.2496 -0.5948  2.9533
 7100TIP3   OH242714   2.258   1.697  15.495 -0.7721  0.0969 -0.1230
 7100TIP3    H142715   2.252   1.692  15.399 -1.3266  0.4044 -0.1040
 7100TIP3    H242716   2.300   1.614  15.520 -1.0626 -0.2001 -0.5926
 7101TIP3   OH242717   2.773   1.622   6.145  0.0180  0.2298  0.1067
 7101TIP3    H142718   2.682   1.605   6.168 -0.4188  0.9768 -1.0033
 7101TIP3    H242719   2.780   1.598   6.052  1.2490 -0.9273  0.4628
 7102TIP3   OH242720   0.485   5.862  16.645 -0.4989 -0.4911 -0.0308
 7102TIP3    H142721   0.401   5.905  16.659  0.1394  0.3548  1.3554
 7102TIP3    H242722   0.485   5.839  16.552 -1.7423  0.5893 -0.3253
 7103TIP3   OH242723   1.365   5.761   0.625 -0.3636 -0.0161 -0.4362
 7103TIP3    H142724   1.443   5.704   0.622  0.1813  0.7468 -0.9741
 7103TIP3    H242725   1.296   5.703   0.657  0.3832 -0.7550 -0.0848
 7104TIP3   OH242726   4.032   2.695  13.660 -0.1036 -0.2162 -0.2247
 7104TIP3    H142727   4.053   2.613  13.614  1.3148  0.0024  0.0018
 7104TIP3    H242728   3.939   2.707  13.644  0.1076 -0.7459 -2.0952
 7105TIP3   OH242729   5.135   5.063  12.752 -0.2166  0.2139 -0.1510
 7105TIP3    H142730   5.166   4.974  12.734  0.1396  0.6651 -1.9374
 7105TIP3    H242731   5.127   5.067  12.848  0.1068 -1.6111 -0.0217
 7106TIP3   OH242732   4.181   3.375   0.557  0.2417 -0.1322 -0.6348
 7106TIP3    H142733   4.172   3.417   0.472  1.4832  2.0285  0.2179
 7106TIP3    H242734   4.175   3.282   0.538  0.8684  0.2562 -3.1282
 7107TIP3   OH242735   2.355   3.999  15.627 -0.3946 -0.3522 -0.0498
 7107TIP3    H142736   2.272   3.955  15.641 -0.5425 -0.0082  0.1681
 7107TIP3    H242737   2.399   3.995  15.712 -0.5131  0.1305  0.0374
 7108TIP3   OH242738   6.360   4.416  16.999 -0.2149 -0.5423 -0.1359
 7108TIP3    H142739   6.403   4.362  16.932  0.1975 -0.6858  0.2399
 7108TIP3    H242740   6.330   4.493  16.951  1.2284 -0.0228 -0.2561
 7109TIP3   OH242741   0.758   5.119  14.626  0.6756 -0.6920 -0.2299
 7109TIP3    H142742   0.828   5.065  14.663 -0.4080 -1.5117  0.6833
 7109TIP3    H242743   0.720   5.065  14.557 -0.4873 -1.2041  0.7635
 7110TIP3   OH242744   3.072   0.562  14.941  0.0631  0.4883  0.3838
 7110TIP3    H142745   2.984   0.525  14.953 -0.2188  1.7620  2.7699
 7110TIP3    H242746   3.105   0.574  15.030  1.1223  3.6028 -0.3251
 7111TIP3   OH242747   4.750   0.925   0.117 -0.9140 -0.1613  0.5049
 7111TIP3    H142748   4.807   0.891   0.048  0.3736  3.1306 -0.2655
 7111TIP3    H242749   4.664   0.932   0.076 -0.8227 -0.8965  0.1718
 7112TIP3   OH242750   1.427   1.680   0.460 -0.4171 -0.3630  1.0361
 7112TIP3    H142751   1.368   1.615   0.499  1.5187 -1.7812  1.7717
 7112TIP3    H242752   1.499   1.628   0.424  0.5996  1.3269  0.5274
 7113TIP3   OH242753   4.039   3.935  12.814 -0.0585 -0.3644 -0.0606
 7113TIP3    H142754   4.062   4.026  12.832  0.2590 -0.4833  0.1451
 7113TIP3    H242755   3.944   3.933  12.815 -0.1796  0.4870 -2.6019
 7114TIP3   OH242756   4.408   6.141  11.854  0.1113 -0.3291  0.3834
 7114TIP3    H142757   4.456   6.058  11.861  0.6234 -0.0373  0.3839
 7114TIP3    H242758   4.455   6.201  11.911 -0.9660 -0.3517  1.3206
 7115TIP3   OH242759   2.539   3.277  13.037 -0.0073  0.1598 -0.5762
 7115TIP3    H142760   2.614   3.319  13.079 -1.8119  0.8470  2.2057
 7115TIP3    H242761   2.463   3.325  13.071 -2.0100 -3.3585  0.3561
 7116TIP3   OH242762   0.271   3.840   3.110  0.3777 -0.1700 -0.0133
 7116TIP3    H142763   0.333   3.886   3.165  0.4059  0.5474 -0.6268
 7116TIP3    H242764   0.278   3.748   3.137  1.5621 -0.0708  0.0524
 7117TIP3   OH242765   4.171   0.727  16.168  0.4572 -0.1992 -0.2410
 7117TIP3    H142766   4.236   0.703  16.102  0.5784  2.7631 -1.3624
 7117TIP3    H242767   4.087   0.723  16.121  0.3227  0.1124 -0.0268
 7118TIP3   OH242768   4.772   5.430  16.075 -0.7205  0.1950  0.0667
 7118TIP3    H142769   4.754   5.500  16.012  0.3669  0.1789 -0.2839
 7118TIP3    H242770   4.730   5.353  16.037  1.6341 -0.3167 -1.7948
 7119TIP3   OH242771   0.393   1.157   0.197  0.3365 -0.7000 -0.0265
 7119TIP3    H142772   0.377   1.223   0.264  1.5103 -0.2214 -0.1937
 7119TIP3    H242773   0.472   1.187   0.152  0.9512 -2.2543 -0.0507
 7120TIP3   OH242774   4.207   0.631  14.356 -0.0983  0.4294 -0.4063
 7120TIP3    H142775   4.287   0.601  14.312 -0.0398  0.1482 -0.1094
 7120TIP3    H242776   4.212   0.727  14.351 -0.1292  0.4047 -1.0767
 7121TIP3   OH242777   1.280   2.019  16.869 -0.1960 -0.4512  0.1475
 7121TIP3    H142778   1.217   2.018  16.942  0.3003 -0.2893  0.5845
 7121TIP3    H242779   1.294   2.112  16.850  1.3695 -0.3993  1.3509
 7122TIP3   OH242780   0.412   5.958  14.941 -0.0323  0.2352 -0.3714
 7122TIP3    H142781   0.472   6.016  14.987  1.8208 -0.9102 -1.2443
 7122TIP3    H242782   0.337   6.014  14.918  0.0818  1.3839  1.8381
 7123TIP3   OH242783   4.795   3.473   2.264 -0.1696  0.2360 -0.1901
 7123TIP3    H142784   4.800   3.498   2.356 -1.3745 -0.3238  0.0528
 7123TIP3    H242785   4.843   3.390   2.258  0.0841  0.3780 -0.1054
 7124TIP3   OH242786   3.296   5.498   3.472  0.4879  0.4732 -0.5672
 7124TIP3    H142787   3.251   5.425   3.430  0.8442  0.0635 -0.2430
 7124TIP3    H242788   3.228   5.539   3.526  1.1399 -2.0521  2.4565
 7125TIP3   OH242789   4.013   2.178  11.098  0.4347 -0.4929  0.9091
 7125TIP3    H142790   4.100   2.200  11.131  1.6801 -0.4453 -2.0374
 7125TIP3    H242791   3.953   2.208  11.165  2.5554  2.2676  1.7564
 7126TIP3   OH242792   1.714   3.209  13.546  0.2849  0.5034 -0.2180
 7126TIP3    H142793   1.652   3.200  13.474  0.0354 -0.2128  0.0765
 7126TIP3    H242794   1.659   3.214  13.624  0.6003 -0.1416  0.0463
 7127TIP3   OH242795   1.080   2.945   0.365  0.1554  0.4993 -0.0245
 7127TIP3    H142796   1.024   2.975   0.437 -1.0364  0.5849 -0.9496
 7127TIP3    H242797   1.095   3.024   0.314  1.2523  0.4972  0.2830
 7128TIP3   OH242798   4.111   1.071  11.392 -0.5914 -0.5568  0.1019
 7128TIP3    H142799   4.067   1.155  11.384  1.0115  0.4642  1.2877
 7128TIP3    H242800   4.181   1.074  11.326 -0.6056 -1.0179  0.0595
 7129TIP3   OH242801   0.099   0.118  17.177  0.2441 -0.5712  0.6424
 7129TIP3    H142802   0.113   0.140  17.085 -0.0624 -2.6890  0.0508
 7129TIP3    H242803   0.010   0.083  17.181 -0.2635  0.7231  2.0317
 7130TIP3   OH242804   0.991   3.017  12.589  0.2212 -0.0717 -0.0217
 7130TIP3    H142805   0.997   3.001  12.683  2.5651 -0.8168 -0.2241
 7130TIP3    H242806   0.944   3.100  12.581  1.2124  0.7260  1.9019
 7131TIP3   OH242807   6.103   1.708   5.024 -0.3211 -0.5488  0.3688
 7131TIP3    H142808   6.082   1.754   5.105 -0.7693  0.2173 -0.1699
 7131TIP3    H242809   6.042   1.744   4.960 -1.5410 -2.7725  0.1917
 7132TIP3   OH242810   5.200   2.182   3.783 -0.1944 -0.2350  0.5290
 7132TIP3    H142811   5.187   2.275   3.802 -0.8779 -0.4764  1.3097
 7132TIP3    H242812   5.151   2.167   3.702  0.1121  0.1264  0.2697
 7133TIP3   OH242813   0.886   0.712   0.297 -0.3104 -0.0158  0.2266
 7133TIP3    H142814   0.913   0.648   0.232 -2.2779 -1.7949  1.0014
 7133TIP3    H242815   0.954   0.709   0.364 -0.8895 -2.2834  0.8143
 7134TIP3   OH242816   4.622   5.136  11.570  0.1847 -0.5270  0.0422
 7134TIP3    H142817   4.529   5.150  11.553 -0.4437 -2.3999  1.5446
 7134TIP3    H242818   4.655   5.222  11.595 -1.5748 -0.1240  1.1614
 7135TIP3   OH242819   0.913   2.057   0.319 -0.2385  0.0287 -0.4148
 7135TIP3    H142820   1.005   2.079   0.304 -0.5313  1.0636 -0.7816
 7135TIP3    H242821   0.902   1.971   0.279  0.6619 -0.3039  0.0134
 7136TIP3   OH242822   2.112   4.038  11.553  0.5496  0.1429 -0.0525
 7136TIP3    H142823   2.190   4.033  11.497 -0.1916 -0.0507 -1.1018
 7136TIP3    H242824   2.139   4.091  11.627  1.0524  2.0493 -1.5203
 7137TIP3   OH242825   4.621   5.235   4.846 -0.4439 -0.8161 -0.8099
 7137TIP3    H142826   4.644   5.158   4.897 -0.7158 -0.0857  0.4545
 7137TIP3    H242827   4.700   5.289   4.847 -0.3610 -0.9149 -1.4099
 7138TIP3   OH242828   6.362   5.065  13.323  0.5464  0.1871  0.0661
 7138TIP3    H142829   6.365   5.158  13.299 -1.0429 -0.2919 -2.4751
 7138TIP3    H242830   6.452   5.035  13.315  0.8637  1.2289 -0.4454
 7139TIP3   OH242831   4.928   5.777  15.328  0.1339 -0.1624 -0.3557
 7139TIP3    H142832   4.966   5.861  15.301 -1.2030  0.0967 -1.5013
 7139TIP3    H242833   4.908   5.732  15.247 -0.9450 -0.7673  0.2243
 7140TIP3   OH242834   3.735   1.729  13.283  0.2526  0.0109 -0.4995
 7140TIP3    H142835   3.715   1.636  13.276 -1.7967  0.3639 -0.0577
 7140TIP3    H242836   3.733   1.747  13.377 -1.5627  0.8689 -0.6484
 7141TIP3   OH242837   0.532   2.949  11.802  0.1745  0.1147 -0.0670
 7141TIP3    H142838   0.619   2.917  11.778  0.2194 -0.3816  0.7149
 7141TIP3    H242839   0.549   3.012  11.872 -0.0047  1.0288 -0.8221
 7142TIP3   OH242840   3.154   0.735   0.704 -0.1273 -0.0711  0.0924
 7142TIP3    H142841   3.073   0.778   0.675 -0.9262 -1.8798 -0.4633
 7142TIP3    H242842   3.125   0.654   0.746  1.3235  0.1043  1.5105
 7143TIP3   OH242843   0.129   2.366   5.211 -0.6833 -0.6124  0.4729
 7143TIP3    H142844   0.059   2.419   5.250 -0.1770 -0.6472  1.4595
 7143TIP3    H242845   0.151   2.411   5.130  0.4430  1.3125  1.7541
 7144TIP3   OH242846   6.267   0.798   5.955 -0.4291  0.3945  0.0001
 7144TIP3    H142847   6.311   0.743   6.020  0.3586  0.9855 -0.0319
 7144TIP3    H242848   6.209   0.854   6.007 -1.5232 -0.7008  0.0077
 7145TIP3   OH242849   5.048   2.014   5.867 -0.2153 -0.2748 -0.0013
 7145TIP3    H142850   5.058   2.010   5.962  0.6344 -0.0724 -0.0727
 7145TIP3    H242851   4.994   1.938   5.846  0.5221 -0.9710  0.5324
 7146TIP3   OH242852   0.647   3.708  11.849 -0.1104 -0.0332  0.5130
 7146TIP3    H142853   0.691   3.631  11.885 -0.0002 -0.1186  0.1958
 7146TIP3    H242854   0.717   3.774  11.841  0.2306 -0.5439 -1.1081
 7147TIP3   OH242855   1.873   3.669   0.895 -1.1069  0.5190 -0.0516
 7147TIP3    H142856   1.816   3.592   0.890 -1.8908  1.0964 -0.1443
 7147TIP3    H242857   1.951   3.643   0.847 -1.3783 -0.2081 -0.1182
 7148TIP3   OH242858   0.106   2.576  12.792  0.2960  0.4401  0.0263
 7148TIP3    H142859   0.026   2.554  12.839  0.1044  0.4252 -0.3046
 7148TIP3    H242860   0.107   2.518  12.717  0.1359  1.0812 -0.4796
 7149TIP3   OH242861   0.783   6.267   0.650  0.3192  0.1536  0.4089
 7149TIP3    H142862   0.851   6.221   0.699 -0.2094 -1.4100 -0.2405
 7149TIP3    H242863   0.740   6.322   0.715  1.7249  0.6302  0.9760
 7150TIP3   OH242864   6.312   2.657  12.260 -0.0696 -0.5868  0.2402
 7150TIP3    H142865   6.234   2.629  12.307 -0.7756 -1.4630 -1.3693
 7150TIP3    H242866   6.287   2.739  12.217 -0.2727 -1.0779 -0.6101
 7151TIP3   OH242867   1.638   6.366   2.092 -0.1298  0.0727 -0.6176
 7151TIP3    H142868   1.632   6.279   2.131 -0.8117 -0.2670 -1.4497
 7151TIP3    H242869   1.561   6.413   2.125  0.1032  0.2788 -0.3660
 7152TIP3   OH242870   5.363   2.367   3.552 -0.8436  0.2247  0.2969
 7152TIP3    H142871   5.314   2.394   3.629 -0.3812  0.0748  0.6484
 7152TIP3    H242872   5.446   2.334   3.587 -0.1111  1.3348 -0.3369
 7153TIP3   OH242873   2.811   3.251   2.842 -0.1827  0.3800 -0.2598
 7153TIP3    H142874   2.746   3.307   2.799  0.7648  2.1640  0.5265
 7153TIP3    H242875   2.885   3.248   2.781 -0.4713 -0.6018 -0.5874
 7154TIP3   OH242876   1.151   3.480  12.076  0.1276  0.1109  0.3639
 7154TIP3    H142877   1.238   3.478  12.036  1.1379 -0.3878  2.4436
 7154TIP3    H242878   1.101   3.542  12.022  1.7544  0.4218 -0.8676
 7155TIP3   OH242879   4.631   5.702  13.219 -0.3716 -0.2097  0.1204
 7155TIP3    H142880   4.578   5.623  13.233 -2.5335  1.1560  0.0835
 7155TIP3    H242881   4.688   5.680  13.145 -1.5514 -1.4257 -0.4638
 7156TIP3   OH242882   3.127   1.360  10.675 -0.1786 -0.1210  0.1350
 7156TIP3    H142883   3.184   1.433  10.652 -1.3420  1.9949  3.2408
 7156TIP3    H242884   3.184   1.284  10.676  1.7782  1.2684 -0.3323
 7157TIP3   OH242885   2.198   3.141  11.592  0.5813 -0.1502 -0.3147
 7157TIP3    H142886   2.211   3.127  11.686 -0.2350 -0.0478 -0.1764
 7157TIP3    H242887   2.186   3.053  11.556 -1.0413 -0.0878 -0.0025
 7158TIP3   OH242888   4.650   0.694   0.524 -0.3388 -0.0402 -0.5136
 7158TIP3    H142889   4.709   0.718   0.453  0.2794 -1.5797 -0.5607
 7158TIP3    H242890   4.672   0.753   0.595  1.0241 -0.3455 -0.6521
 7159TIP3   OH242891   2.086   3.412  15.065  0.6318  0.1864  0.1667
 7159TIP3    H142892   2.128   3.487  15.110  0.7235  0.1126  0.2052
 7159TIP3    H242893   2.159   3.366  15.024  0.4936  0.5146 -0.4510
 7160TIP3   OH242894   0.300   0.724  10.922  0.2128  0.0645 -0.4887
 7160TIP3    H142895   0.382   0.692  10.883 -0.0090 -1.1823  0.0280
 7160TIP3    H242896   0.231   0.678  10.873 -0.0834 -1.1589  1.0211
 7161TIP3   OH242897   4.953   1.876  11.269  0.2541  0.2321  0.4057
 7161TIP3    H142898   4.873   1.926  11.250  0.6202  1.5207  1.9927
 7161TIP3    H242899   5.019   1.944  11.287  0.4118 -0.7073  4.1706
 7162TIP3   OH242900   5.004   0.715   5.247 -0.4205 -0.3762  0.0376
 7162TIP3    H142901   4.966   0.802   5.242 -1.4564 -0.6361  2.1353
 7162TIP3    H242902   4.989   0.677   5.160 -1.0906  1.0707 -0.5067
 7163TIP3   OH242903   6.212   0.243   3.044  0.0617 -0.0371  0.5777
 7163TIP3    H142904   6.241   0.285   3.125 -0.1728 -1.2080  1.2878
 7163TIP3    H242905   6.119   0.265   3.038 -0.1555 -0.7554  1.1585
 7164TIP3   OH242906   3.690   1.690  13.766 -0.2972 -0.2079 -0.0956
 7164TIP3    H142907   3.628   1.748  13.810  0.9385  1.4553 -0.4754
 7164TIP3    H242908   3.742   1.652  13.837 -0.6704 -0.3400  0.1084
 7165TIP3   OH242909   6.454   1.641  16.168  0.1218  0.3458 -0.3917
 7165TIP3    H142910   6.411   1.592  16.238 -0.6242  0.8704 -0.4646
 7165TIP3    H242911   6.547   1.627  16.182 -0.0719 -1.8414 -0.9563
 7166TIP3   OH242912   0.697   1.207  16.151 -0.0057 -0.5534  0.0398
 7166TIP3    H142913   0.605   1.192  16.169 -0.0460  0.5380  0.8347
 7166TIP3    H242914   0.739   1.122  16.163 -1.0118 -1.2582 -1.1674
 7167TIP3   OH242915   3.800   1.143   0.870  0.1540  0.3024 -0.1824
 7167TIP3    H142916   3.744   1.132   0.947 -0.6760  0.8217 -0.6892
 7167TIP3    H242917   3.849   1.061   0.864  0.9426  0.6034  1.4302
 7168TIP3   OH242918   4.892   1.395  13.101 -0.6164  0.0229  0.0086
 7168TIP3    H142919   4.930   1.441  13.175 -0.3992  0.1254 -0.1646
 7168TIP3    H242920   4.968   1.367  13.049 -0.7847  0.5418 -0.5272
 7169TIP3   OH242921   0.715   3.479  13.382 -0.2995 -0.2152 -0.1607
 7169TIP3    H142922   0.783   3.418  13.414 -0.1225  0.0698  0.0081
 7169TIP3    H242923   0.683   3.522  13.461  0.4849  0.8536 -0.4038
 7170TIP3   OH242924   2.037   3.951   4.008 -0.0026  0.5769 -0.3873
 7170TIP3    H142925   2.087   3.883   3.963 -1.6557  0.4383 -2.1480
 7170TIP3    H242926   2.020   3.915   4.096 -0.4666 -1.1250 -1.1403
 7171TIP3   OH242927   0.354   3.498  15.629 -0.8477 -0.0476  0.1839
 7171TIP3    H142928   0.402   3.426  15.588 -2.0972 -1.2522  0.7596
 7171TIP3    H242929   0.277   3.456  15.667 -1.4383  1.5623  0.8175
 7172TIP3   OH242930   0.811   4.095   6.327 -0.1423  0.6016  0.7709
 7172TIP3    H142931   0.853   4.011   6.309  0.0448  0.5271  1.5255
 7172TIP3    H242932   0.745   4.104   6.258 -1.5577 -1.0999  1.8455
 7173TIP3   OH242933   2.468   5.671   4.206  0.1048  0.1231 -0.0403
 7173TIP3    H142934   2.495   5.612   4.136  0.5911  1.6952 -1.2508
 7173TIP3    H242935   2.547   5.721   4.227 -0.6062  1.2864 -0.0447
 7174TIP3   OH242936   3.913   4.995   3.170 -0.7846 -0.0732 -0.7719
 7174TIP3    H142937   3.984   4.962   3.116 -0.1374  1.2278 -0.7345
 7174TIP3    H242938   3.841   4.932   3.156 -0.4790 -0.0228 -2.7629
 7175TIP3   OH242939   0.502   6.480  11.971 -0.2941  0.2072  0.0786
 7175TIP3    H142940   0.555   6.555  11.997  0.6504 -0.3100 -0.2685
 7175TIP3    H242941   0.421   6.518  11.936 -0.2637  1.0081  0.8546
 7176TIP3   OH242942   3.145   4.436   3.755 -0.2332  0.7810 -0.4231
 7176TIP3    H142943   3.167   4.492   3.829  0.0962 -1.9951  1.7392
 7176TIP3    H242944   3.217   4.449   3.693  1.2500  0.7779  1.2206
 7177TIP3   OH242945   6.581   0.301  13.259 -0.7441 -0.4374 -0.4056
 7177TIP3    H142946   6.649   0.279  13.194  0.2750  2.1986 -0.3785
 7177TIP3    H242947   6.622   0.282  13.343 -0.0231  1.0416 -0.3934
 7178TIP3   OH242948   0.004   4.104   3.679 -0.6428  0.0890 -0.2290
 7178TIP3    H142949   0.092   4.136   3.660 -0.0244 -0.0649  2.0721
 7178TIP3    H242950  -0.053   4.157   3.623  0.8444  0.4132 -1.5336
 7179TIP3   OH242951   3.886   4.019  13.441  0.0415 -0.6252 -0.4125
 7179TIP3    H142952   3.933   3.938  13.463 -1.3293 -0.9392  1.6268
 7179TIP3    H242953   3.951   4.088  13.454  0.5345 -1.2018  0.2957
 7180TIP3   OH242954   1.786   4.651   5.226 -0.9208 -0.4195 -0.3021
 7180TIP3    H142955   1.760   4.569   5.184 -0.6745 -0.5127 -0.2730
 7180TIP3    H242956   1.882   4.651   5.222 -0.9395  0.2359 -1.0164
 7181TIP3   OH242957   4.712   3.693   0.623  0.6853 -0.4515 -0.0513
 7181TIP3    H142958   4.798   3.679   0.664 -0.2701 -2.7243  1.3501
 7181TIP3    H242959   4.660   3.738   0.689  0.4339 -0.1082 -0.4718
 7182TIP3   OH242960   2.051   0.666   4.422 -0.0080  0.1946 -0.8943
 7182TIP3    H142961   2.101   0.726   4.367  0.7342 -0.2304 -0.6906
 7182TIP3    H242962   2.107   0.651   4.498 -0.7750  0.3197 -0.2892
 7183TIP3   OH242963   3.683   5.968   0.850 -0.6399  0.2439 -0.4423
 7183TIP3    H142964   3.693   5.994   0.942 -2.3341  0.5884 -0.3124
 7183TIP3    H242965   3.651   5.878   0.854 -3.8663  1.2710 -0.5003
 7184TIP3   OH242966   3.481   5.480  13.275  0.2312  0.1011 -0.2112
 7184TIP3    H142967   3.565   5.510  13.238  1.2524  0.1133  1.9504
 7184TIP3    H242968   3.440   5.560  13.308  0.3790 -0.1743  0.6480
 7185TIP3   OH242969   2.988   1.783   4.667 -0.4323  0.4393  0.4821
 7185TIP3    H142970   2.898   1.799   4.638  0.0899 -0.2698 -1.6545
 7185TIP3    H242971   3.001   1.845   4.739 -2.0266  1.8381 -0.3751
 7186TIP3   OH242972   3.473   1.905   3.293 -0.6572  0.1322  0.1645
 7186TIP3    H142973   3.379   1.918   3.307 -1.0597 -3.0665  1.3562
 7186TIP3    H242974   3.480   1.818   3.254  1.8070  0.6501 -0.7673
 7187TIP3   OH242975   4.087   3.664  12.896 -0.8775 -0.6126 -0.3211
 7187TIP3    H142976   3.997   3.634  12.882 -1.7369  0.2798  2.5191
 7187TIP3    H242977   4.081   3.760  12.896  0.0577 -0.5433  0.0112
 7188TIP3   OH242978   4.530   5.960  14.267  0.2297 -0.6871 -0.5454
 7188TIP3    H142979   4.558   5.982  14.178 -0.5808  0.3309 -0.5620
 7188TIP3    H242980   4.443   5.922  14.255  0.8927 -2.3492 -0.3488
 7189TIP3   OH242981   0.527   2.911  15.690 -0.1935 -0.6253 -1.0087
 7189TIP3    H142982   0.457   2.964  15.727 -0.3913 -0.9257 -0.9428
 7189TIP3    H242983   0.540   2.946  15.602  0.9413  0.7147 -0.3336
 7190TIP3   OH242984   0.311   2.311   0.991 -0.1683 -0.3908 -0.3375
 7190TIP3    H142985   0.254   2.323   0.916 -0.0418 -0.0714 -0.3848
 7190TIP3    H242986   0.377   2.380   0.983 -0.6085  0.1514  0.4846
 7191TIP3   OH242987   1.048   5.933  16.560  0.8504 -0.3330  0.3425
 7191TIP3    H142988   0.997   5.852  16.566  2.2943 -1.2165  1.7905
 7191TIP3    H242989   1.059   5.948  16.466 -0.0950 -1.3798  0.0429
 7192TIP3   OH242990   5.375   2.023  14.030 -0.0126 -0.0076 -0.4550
 7192TIP3    H142991   5.354   2.058  14.117  0.6113 -0.2381 -0.2031
 7192TIP3    H242992   5.469   2.003  14.034 -0.2678 -1.3508 -0.7210
 7193TIP3   OH242993   2.079   1.226   1.270  0.2434  0.8710  0.7022
 7193TIP3    H142994   2.127   1.152   1.233  0.4805  1.5098 -0.3142
 7193TIP3    H242995   2.073   1.289   1.198 -1.7926  0.9798  0.9247
 7194TIP3   OH242996   2.541   5.267  16.650 -0.3241 -0.1288  0.4937
 7194TIP3    H142997   2.485   5.222  16.713  0.1180 -1.3390  0.0568
 7194TIP3    H242998   2.488   5.340  16.618 -0.7231  0.2236  1.9088
 7195TIP3   OH242999   6.561   0.768  14.927 -0.4762  0.4144  0.1575
 7195TIP3    H143000   6.513   0.759  15.010 -1.5652  2.0488 -0.2479
 7195TIP3    H243001   6.595   0.858  14.929 -1.0535  0.6962 -1.4184
 7196TIP3   OH243002   0.427   1.620   5.726 -0.4259 -0.7846 -0.1847
 7196TIP3    H143003   0.506   1.574   5.699 -0.4141 -0.7128 -0.2742
 7196TIP3    H243004   0.372   1.553   5.767 -0.8064 -1.0771 -1.1283
 7197TIP3   OH243005   2.235   1.685  12.047  0.5878 -0.2075  0.1746
 7197TIP3    H143006   2.145   1.668  12.021  0.3122  1.6739 -0.2155
 7197TIP3    H243007   2.287   1.669  11.968  0.3647  0.5146 -0.1231
 7198TIP3   OH243008   3.756   2.424   1.503 -0.1146  0.1263 -0.1717
 7198TIP3    H143009   3.741   2.352   1.442 -0.4072  0.3540 -0.3722
 7198TIP3    H243010   3.809   2.386   1.572  0.8945  0.0512 -0.9559
 7199TIP3   OH243011   5.317   6.585  15.892 -0.1579 -0.0552  0.1890
 7199TIP3    H143012   5.254   6.656  15.881 -0.1630 -0.2101 -0.8711
 7199TIP3    H243013   5.346   6.592  15.983  1.1044  2.3462 -0.3183
 7200TIP3   OH243014   5.842   3.820   3.513  0.8098 -0.4637  0.1064
 7200TIP3    H143015   5.866   3.740   3.560  1.2012 -0.9432 -0.8757
 7200TIP3    H243016   5.747   3.827   3.523  0.6668 -1.5019 -0.4886
 7201TIP3   OH243017   0.892   0.386   1.241 -0.0447 -0.4088  0.0682
 7201TIP3    H143018   0.847   0.339   1.171 -0.9340 -0.9845  0.9879
 7201TIP3    H243019   0.984   0.361   1.233  0.0140  0.1825 -1.3766
 7202TIP3   OH243020   1.529   2.842  12.342 -0.5611  0.6334  0.1835
 7202TIP3    H143021   1.480   2.788  12.279 -1.6362 -0.1501  1.6349
 7202TIP3    H243022   1.549   2.782  12.414  1.6709  1.2244  0.1076
 7203TIP3   OH243023   0.542   1.796  12.561 -0.1088 -0.0007  0.4144
 7203TIP3    H143024   0.601   1.722  12.548  3.3152  2.5306  0.1330
 7203TIP3    H243025   0.532   1.835  12.474 -0.8539  0.5786  0.7460
 7204TIP3   OH243026   2.497   1.249  12.316 -0.2997  0.5547  0.7389
 7204TIP3    H143027   2.495   1.307  12.392  1.3374  2.1780 -0.3887
 7204TIP3    H243028   2.477   1.306  12.241 -0.7367 -0.7626 -0.1904
 7205TIP3   OH243029   6.252   6.049  15.014 -0.3239  0.0875  0.2765
 7205TIP3    H143030   6.217   6.139  15.017 -2.0967 -0.5898  2.0394
 7205TIP3    H243031   6.193   6.004  14.953 -1.1105 -0.4960  1.4428
 7206TIP3   OH243032   6.417   0.339  16.236 -0.5411  0.6512 -0.0832
 7206TIP3    H143033   6.428   0.293  16.319  2.0302  0.0141 -0.6809
 7206TIP3    H243034   6.410   0.431  16.260 -0.0650  0.4484  0.8606
 7207TIP3   OH243035   2.265   4.744   5.359  0.7705  0.2551  0.1514
 7207TIP3    H143036   2.262   4.810   5.290 -1.0450  0.3046  0.2248
 7207TIP3    H243037   2.351   4.756   5.399  0.4420  2.7402  0.3047
 7208TIP3   OH243038   3.758   3.713   3.968  0.0448  0.1797 -0.0143
 7208TIP3    H143039   3.671   3.728   4.005  0.4153  0.2426  0.8575
 7208TIP3    H243040   3.807   3.793   3.988  0.2995  0.1617 -0.5377
 7209TIP3   OH243041   6.163   3.450   0.785 -0.2587  0.2306  0.1574
 7209TIP3    H143042   6.121   3.530   0.752 -0.4273  0.6685  1.4138
 7209TIP3    H243043   6.256   3.473   0.794 -0.0359 -0.1862 -0.8833
 7210TIP3   OH243044   3.537   1.443  13.882  0.1475  0.7748  0.8315
 7210TIP3    H143045   3.517   1.352  13.905  0.3022  1.0527  2.1466
 7210TIP3    H243046   3.521   1.448  13.787  2.8527 -1.3456  0.1328
 7211TIP3   OH243047   2.067   5.257   3.710  0.4111  0.6235  0.0067
 7211TIP3    H143048   2.085   5.350   3.720 -2.3464  1.2888 -0.2384
 7211TIP3    H243049   2.033   5.230   3.796  2.7209 -0.6263  0.5969
 7212TIP3   OH243050   3.917   0.814  14.972 -0.2480  0.9919  0.1736
 7212TIP3    H143051   3.890   0.841  14.884 -0.0072 -0.4122 -0.3589
 7212TIP3    H243052   3.843   0.762  15.004  0.3028  0.1765  0.1554
 7213TIP3   OH243053   1.363   5.283  16.501  0.6353  0.1076  0.4634
 7213TIP3    H143054   1.290   5.286  16.440  1.0611 -0.8230 -0.1239
 7213TIP3    H243055   1.388   5.374  16.515  0.2462  0.3532 -0.4089
 7214TIP3   OH243056   2.465   1.659   2.081  0.3250  0.4573 -0.2872
 7214TIP3    H143057   2.503   1.670   1.994  0.5348  1.3660 -0.0934
 7214TIP3    H243058   2.485   1.568   2.105  0.9472  0.4329 -0.8675
 7215TIP3   OH243059   2.896   1.933  13.372 -0.1945  0.2229  0.2245
 7215TIP3    H143060   2.906   2.027  13.389  1.2795  0.0709  0.3620
 7215TIP3    H243061   2.855   1.898  13.451  1.7175  0.3687  1.3568
 7216TIP3   OH243062   1.755   1.415  13.807  0.6310 -0.1749  0.1911
 7216TIP3    H143063   1.783   1.366  13.729 -1.5803  0.8682 -1.3653
 7216TIP3    H243064   1.692   1.356  13.850  1.3895 -0.4951  0.9013
 7217TIP3   OH243065   3.624   1.976  15.406  0.7200 -0.2528  0.6274
 7217TIP3    H143066   3.659   1.979  15.495 -1.2256  1.0205  1.4254
 7217TIP3    H243067   3.661   2.054  15.363 -0.3940  0.6263  1.2064
 7218TIP3   OH243068   0.500   3.634   3.988  0.2187  0.7200 -0.7855
 7218TIP3    H143069   0.542   3.667   4.067  0.2491  0.7546 -0.8156
 7218TIP3    H243070   0.512   3.539   3.991  1.7592  0.8581 -1.6117
 7219TIP3   OH243071   3.164   5.762  13.517 -0.4092  0.3372 -0.0492
 7219TIP3    H143072   3.075   5.740  13.489  0.2979  0.9635 -3.0599
 7219TIP3    H243073   3.216   5.685  13.495 -0.1383  0.0065  1.6259
 7220TIP3   OH243074   2.109   3.249  12.080  0.7281  0.3713 -0.3536
 7220TIP3    H143075   2.134   3.156  12.082 -1.1681 -0.1651  0.3279
 7220TIP3    H243076   2.185   3.294  12.117  1.9614 -0.8183 -1.3264
 7221TIP3   OH243077   2.690   1.906  16.188 -0.3073  0.1806  0.7119
 7221TIP3    H143078   2.725   1.987  16.151 -0.7820 -0.1519 -0.5226
 7221TIP3    H243079   2.690   1.921  16.283 -0.6008  1.7206  0.5036
 7222TIP3   OH243080   2.432   0.158   4.102  0.0699 -0.0953 -0.0436
 7222TIP3    H143081   2.520   0.164   4.063  0.5743  1.1756  1.1966
 7222TIP3    H243082   2.377   0.211   4.044  0.1897 -0.6058 -0.6311
 7223TIP3   OH243083   4.114   1.708   5.337  0.0080  0.1322 -0.0802
 7223TIP3    H143084   4.027   1.734   5.367  0.0618 -2.4318  2.7393
 7223TIP3    H243085   4.142   1.640   5.398  2.9107 -1.0639 -2.4599
 7224TIP3   OH243086   2.542   3.400   4.049 -0.2361  0.5744 -0.2167
 7224TIP3    H143087   2.573   3.319   4.009 -0.3037  0.3512  0.1762
 7224TIP3    H243088   2.579   3.470   3.994 -0.0283  0.2838 -0.4499
 7225TIP3   OH243089   5.842   6.322   3.977 -0.3500 -0.0308  0.0962
 7225TIP3    H143090   5.916   6.295   3.922 -0.5484  1.1988 -0.8292
 7225TIP3    H243091   5.878   6.392   4.032 -0.3495 -0.7438  1.0266
 7226TIP3   OH243092   6.655   3.985  15.442 -0.2600  0.2240  0.0075
 7226TIP3    H143093   6.707   3.940  15.508  0.3560  0.8353 -0.0471
 7226TIP3    H243094   6.679   3.944  15.359  1.0111  1.2409 -0.1641
 7227TIP3   OH243095   2.064   2.602   2.724 -0.3353  0.2148 -0.3005
 7227TIP3    H143096   2.102   2.600   2.636 -0.3979  1.5190 -0.3842
 7227TIP3    H243097   2.016   2.520   2.732  2.6497 -1.6472 -0.0911
 7228TIP3   OH243098   5.937   4.694  13.002  0.5133 -0.0470  0.6605
 7228TIP3    H143099   5.915   4.787  13.001 -1.4043 -0.4664 -0.3263
 7228TIP3    H243100   5.913   4.664  13.090 -1.0896 -0.0729  0.2353
 7229TIP3   OH243101   6.333   2.828   1.676 -0.0391  0.0267  0.0242
 7229TIP3    H143102   6.333   2.896   1.743  0.5329 -0.4126  0.4814
 7229TIP3    H243103   6.373   2.752   1.719 -0.8923 -0.6786 -0.3969
 7230TIP3   OH243104   5.238   0.698   4.652 -0.4253 -0.1194  0.2789
 7230TIP3    H143105   5.190   0.669   4.575  0.6320 -0.2133 -0.3545
 7230TIP3    H243106   5.234   0.623   4.712  2.1453 -1.6343 -1.2720
 7231TIP3   OH243107   2.464   3.369   0.492 -0.5563 -0.1641 -0.2858
 7231TIP3    H143108   2.465   3.415   0.576  1.0330  0.3960 -0.5836
 7231TIP3    H243109   2.476   3.276   0.515  0.0531  0.0054  0.1049
 7232TIP3   OH243110   1.096   0.946   1.700  0.1056  0.1978 -0.4909
 7232TIP3    H143111   1.117   0.912   1.787 -0.4055 -3.5252 -1.6306
 7232TIP3    H243112   1.181   0.965   1.660  0.5643 -1.1112 -0.1960
 7233TIP3   OH243113   0.759   5.306   6.559  0.0239  0.4518  0.2571
 7233TIP3    H143114   0.853   5.315   6.541 -0.3387  0.6249 -1.7574
 7233TIP3    H243115   0.722   5.391   6.535 -0.4390  1.1437  3.0508
 7234TIP3   OH243116   4.038   2.956  16.771 -0.0642  0.5739  0.1735
 7234TIP3    H143117   4.102   2.974  16.702  0.2403  0.9027  0.5408
 7234TIP3    H243118   3.984   3.035  16.774 -1.3116 -0.1880 -1.0143
 7235TIP3   OH243119   4.519   6.672   2.806 -0.1105  0.7930  0.2556
 7235TIP3    H143120   4.549   6.632   2.888  0.4351  0.0586 -0.2920
 7235TIP3    H243121   4.437   6.714   2.829 -0.0805  0.3955  1.1360
 7236TIP3   OH243122   1.651   3.790  11.401  0.4795  0.3536 -0.0543
 7236TIP3    H143123   1.740   3.820  11.418  1.3525 -1.0209 -1.9611
 7236TIP3    H243124   1.639   3.800  11.307  0.0115 -2.9697 -0.4663
 7237TIP3   OH243125   0.860   3.487   3.961 -0.4280 -0.3906  0.4125
 7237TIP3    H143126   0.818   3.404   3.983  1.5262 -1.1154  1.7056
 7237TIP3    H243127   0.954   3.467   3.961  0.0527  1.5841 -0.3441
 7238TIP3   OH243128   1.507   0.349   4.021  0.7744  0.0438  0.3075
 7238TIP3    H143129   1.447   0.380   3.953  0.4979 -0.1808  0.4503
 7238TIP3    H243130   1.472   0.384   4.103 -0.3198 -1.7299  0.6510
 7239TIP3   OH243131   1.055   1.150  11.386  0.8988  0.3887  0.4327
 7239TIP3    H143132   1.059   1.139  11.291 -0.7712 -0.0767  0.3756
 7239TIP3    H243133   1.001   1.077  11.416  0.5417  1.1065  1.6083
 7240TIP3   OH243134   0.416   3.248  12.255  0.0047 -0.4235  0.4966
 7240TIP3    H143135   0.501   3.208  12.237 -0.8676 -2.7639  1.2493
 7240TIP3    H243136   0.358   3.214  12.186 -0.1277  2.1444 -0.7972
 7241TIP3   OH243137   3.289   6.078   0.050  0.1122 -0.4978  0.5762
 7241TIP3    H143138   3.315   6.117   0.133 -0.0882  1.7367 -0.3299
 7241TIP3    H243139   3.196   6.055   0.062 -0.6533  2.0862  0.3012
 7242TIP3   OH243140   0.431   5.860   3.163  0.1045 -0.2400 -0.3921
 7242TIP3    H143141   0.354   5.823   3.119 -0.0961  0.1142 -0.3432
 7242TIP3    H243142   0.404   5.948   3.188  0.7535  0.1312 -0.9686
 7243TIP3   OH243143   5.803   4.300   0.526 -0.1351  0.3277 -0.0899
 7243TIP3    H143144   5.879   4.317   0.582  2.1373 -0.5022 -2.7027
 7243TIP3    H243145   5.801   4.373   0.465 -0.7802 -0.1925 -0.7130
 7244TIP3   OH243146   0.195   3.419  16.562 -0.4797 -0.1467  0.2865
 7244TIP3    H143147   0.155   3.406  16.476 -0.1710 -1.4468  0.3148
 7244TIP3    H243148   0.178   3.511  16.583 -1.1748  0.0031 -0.8446
 7245TIP3   OH243149   3.097   6.143  16.990 -0.4155 -0.6626  0.2361
 7245TIP3    H143150   3.160   6.091  16.940  0.7653 -0.5506  1.5384
 7245TIP3    H243151   3.091   6.226  16.943  0.2871 -0.7352  0.0146
 7246TIP3   OH243152   3.947   5.505  15.499 -0.3929  0.0022  0.3575
 7246TIP3    H143153   4.023   5.557  15.525  1.3969 -1.8189 -0.9433
 7246TIP3    H243154   3.876   5.569  15.488  1.2908  1.9333  0.3117
 7247TIP3   OH243155   1.176   3.736   4.029  0.3800 -0.6493  0.0719
 7247TIP3    H143156   1.138   3.665   4.080 -1.5613  0.3155  0.0573
 7247TIP3    H243157   1.224   3.789   4.093  0.3892 -1.0152  0.3721
 7248TIP3   OH243158   1.345   3.366   4.549 -0.3004  0.1037 -0.6938
 7248TIP3    H143159   1.268   3.423   4.547 -0.5842 -0.2857 -1.2428
 7248TIP3    H243160   1.351   3.336   4.640 -0.1059  1.0541 -0.3800
 7249TIP3   OH243161   3.883   3.193  13.550 -0.1717 -0.3346 -0.0265
 7249TIP3    H143162   3.924   3.107  13.554  0.7337 -0.1990 -3.2217
 7249TIP3    H243163   3.956   3.255  13.548 -0.8063  0.5581  1.9808
 7250TIP3   OH243164   2.802   6.050   5.269  0.8127 -0.5254 -0.2510
 7250TIP3    H143165   2.719   6.024   5.309 -0.4880  0.2617 -2.2559
 7250TIP3    H243166   2.859   6.071   5.343 -1.3862  0.7657  1.1934
 7251TIP3   OH243167   3.256   5.410  14.869 -0.4771 -0.9317 -0.1810
 7251TIP3    H143168   3.334   5.454  14.904  0.2185 -1.9743 -0.3811
 7251TIP3    H243169   3.254   5.325  14.913  0.2632 -2.1731 -2.3702
 7252TIP3   OH243170   1.936   6.643   2.815 -0.1062  0.0409  0.4668
 7252TIP3    H143171   1.920   6.590   2.737 -0.6162 -0.4994  0.9293
 7252TIP3    H243172   2.028   6.666   2.810  0.0215 -0.5371  0.0350
 7253TIP3   OH243173   6.234   3.609  16.526  0.0249  0.2191  0.2069
 7253TIP3    H143174   6.244   3.515  16.510 -1.5612  0.1529 -0.6087
 7253TIP3    H243175   6.144   3.618  16.556 -0.3910  1.6609 -1.3314
 7254TIP3   OH243176   5.952   4.638  15.832 -0.4685 -0.1161  0.0596
 7254TIP3    H143177   5.998   4.586  15.897 -0.6071 -0.4885 -0.1346
 7254TIP3    H243178   6.001   4.720  15.827 -0.1488 -0.2945  0.2456
 7255TIP3   OH243179   0.718   1.169  16.785  0.1206  0.2751  0.4945
 7255TIP3    H143180   0.691   1.181  16.875 -0.4468  1.5707  0.1656
 7255TIP3    H243181   0.654   1.218  16.733 -0.1982 -1.3267 -0.7019
 7256TIP3   OH243182   5.098   3.140   4.911 -0.4288 -0.3126 -0.2682
 7256TIP3    H143183   5.166   3.192   4.869  0.1158 -0.4308  0.4441
 7256TIP3    H243184   5.024   3.142   4.849  0.9282 -1.9617 -2.0674
 7257TIP3   OH243185   1.276   1.301  15.245  0.7197 -0.8699  0.0458
 7257TIP3    H143186   1.296   1.353  15.167 -0.7360 -1.3160 -0.6658
 7257TIP3    H243187   1.282   1.210  15.215  0.0473 -1.0412  0.4176
 7258TIP3   OH243188   5.946   0.056  14.198  0.2698  0.0564  0.7838
 7258TIP3    H143189   5.945  -0.015  14.133  0.1250  1.7655 -1.1922
 7258TIP3    H243190   5.946   0.011  14.282 -1.7907 -2.2957 -0.3408
 7259TIP3   OH243191   4.681   5.335   0.676 -0.8382  0.1544  0.3047
 7259TIP3    H143192   4.638   5.410   0.717 -1.6924 -0.6240  0.8427
 7259TIP3    H243193   4.755   5.315   0.734 -1.5144 -0.3806  0.9891
 7260TIP3   OH243194   5.576   1.948  11.489 -0.3179  0.5886 -0.9758
 7260TIP3    H143195   5.506   1.915  11.431 -0.4109 -0.4622 -0.3016
 7260TIP3    H243196   5.655   1.947  11.435 -0.4956  0.0909 -1.2310
 7261TIP3   OH243197   4.988   3.920   3.070 -0.7157  0.3758 -0.1633
 7261TIP3    H143198   4.925   3.879   3.009 -0.3870  0.2281 -0.4059
 7261TIP3    H243199   5.012   4.002   3.027  0.1729 -0.1224 -0.6606
 7262TIP3   OH243200   4.589   3.341  10.713 -0.5265  0.5432 -0.3662
 7262TIP3    H143201   4.566   3.380  10.629  0.6526  1.4885 -0.2839
 7262TIP3    H243202   4.530   3.266  10.722 -0.5776  0.3232 -2.1108
 7263TIP3   OH243203   3.452   2.180  10.863  0.1732 -0.3775 -0.2137
 7263TIP3    H143204   3.486   2.180  10.774  0.7557 -1.4230 -0.0091
 7263TIP3    H243205   3.452   2.087  10.889  2.7727  0.0900  1.8980
 7264TIP3   OH243206   3.019   5.774  16.750 -0.1855  0.0323  0.5188
 7264TIP3    H143207   3.031   5.703  16.812  0.8033 -0.1866  0.0893
 7264TIP3    H243208   2.925   5.772  16.730 -0.1356 -1.3056  0.3293
 7265TIP3   OH243209   3.833   2.686  12.008  0.0798  0.4569  0.0770
 7265TIP3    H143210   3.915   2.667  11.962 -0.5289  0.5042 -1.0901
 7265TIP3    H243211   3.836   2.780  12.026  1.2385  0.0742  2.0404
 7266TIP3   OH243212   4.114   3.332  16.705 -0.1200 -0.3537 -0.1719
 7266TIP3    H143213   4.184   3.320  16.640 -0.2339 -1.7910 -0.0655
 7266TIP3    H243214   4.039   3.361  16.654  0.6800  1.8681 -0.2061
 7267TIP3   OH243215   2.582   4.694  15.124  0.4052  0.1430  0.1445
 7267TIP3    H143216   2.516   4.764  15.124  1.1823  0.8905 -0.1935
 7267TIP3    H243217   2.586   4.666  15.216  2.1345  2.5440  0.8935
 7268TIP3   OH243218   6.087   6.006   6.785  0.1158 -0.1900 -0.0306
 7268TIP3    H143219   6.076   5.995   6.691  0.9696 -0.0490 -0.1611
 7268TIP3    H243220   6.001   5.990   6.822 -0.5475  1.0769 -0.9501
 7269TIP3   OH243221   5.956   3.624  12.511 -0.2311 -1.0650 -0.0960
 7269TIP3    H143222   6.049   3.620  12.487  0.1934  1.5101  0.7921
 7269TIP3    H243223   5.910   3.638  12.428  0.3838 -0.4291 -0.3392
 7270TIP3   OH243224   5.232   3.824  12.831 -0.0935 -0.3220  0.3741
 7270TIP3    H143225   5.177   3.765  12.780  0.3844 -0.1921 -0.3109
 7270TIP3    H243226   5.266   3.887  12.767 -0.6362  0.7413  1.0896
 7271TIP3   OH243227   3.691   2.561  15.746  0.4531 -0.2905  0.2560
 7271TIP3    H143228   3.770   2.507  15.745  0.9991  0.4955  0.5646
 7271TIP3    H243229   3.689   2.600  15.658  1.8542  1.7267  1.0482
 7272TIP3   OH243230   6.101   4.253   5.767  0.1381 -0.7547  0.3472
 7272TIP3    H143231   6.157   4.201   5.709 -0.7506 -1.6432  0.2676
 7272TIP3    H243232   6.077   4.193   5.837 -1.5962 -0.7305 -0.1942
 7273TIP3   OH243233   1.919   0.688   5.682  0.1134  0.0808 -0.2903
 7273TIP3    H143234   1.856   0.642   5.737 -1.8731  1.7877 -0.9911
 7273TIP3    H243235   1.939   0.627   5.612 -0.9903 -0.4240 -0.1952
 7274TIP3   OH243236   1.896   0.979   1.703 -0.2927 -0.3557  0.0534
 7274TIP3    H143237   1.806   0.992   1.734 -0.4326 -0.2366 -0.3920
 7274TIP3    H243238   1.901   1.032   1.623 -0.1835 -1.2773 -0.5736
 7275TIP3   OH243239   4.645   1.701   3.739  0.3441 -0.0795 -0.2811
 7275TIP3    H143240   4.633   1.740   3.652  2.3829  1.0613 -0.1046
 7275TIP3    H243241   4.567   1.729   3.787  0.8836  2.4629 -0.6925
 7276TIP3   OH243242   2.478   6.096   2.568  0.4174 -0.3011  0.4846
 7276TIP3    H143243   2.436   6.022   2.611 -1.0530  0.9468  1.2926
 7276TIP3    H243244   2.430   6.173   2.600  0.4818  0.8403 -1.9362
 7277TIP3   OH243245   1.848   4.157  13.914 -0.4078  0.0727 -0.4271
 7277TIP3    H143246   1.769   4.108  13.890  0.2716 -0.3213 -1.9979
 7277TIP3    H243247   1.852   4.229  13.852 -0.3774  1.0419  0.6718
 7278TIP3   OH243248   5.587   0.022   5.166 -0.3578 -0.6421  0.3126
 7278TIP3    H143249   5.601   0.030   5.071 -1.4218 -0.2707  0.1720
 7278TIP3    H243250   5.511  -0.036   5.174 -1.6705  1.0649  0.8282
 7279TIP3   OH243251   4.313   6.233  13.987 -0.0807  0.2401  0.0586
 7279TIP3    H143252   4.399   6.191  13.988  0.0091  0.4274  0.4526
 7279TIP3    H243253   4.279   6.218  13.899 -0.4706 -1.5365  0.4751
 7280TIP3   OH243254   3.932   2.360  10.511  0.5786 -0.2927  0.0309
 7280TIP3    H143255   3.851   2.333  10.467  0.1793  0.7890  0.0673
 7280TIP3    H243256   3.903   2.415  10.584  1.3111 -0.7327  0.6800
 7281TIP3   OH243257   6.549   1.424   1.565  0.5648 -0.2474  0.2821
 7281TIP3    H143258   6.568   1.499   1.621 -2.7894  0.1642  1.0403
 7281TIP3    H243259   6.615   1.358   1.590  0.3763  0.5828  3.3818
 7282TIP3   OH243260   3.782   5.977   3.750  0.1727 -0.3612  0.1312
 7282TIP3    H143261   3.741   5.981   3.664  0.8186  0.0287 -0.1652
 7282TIP3    H243262   3.778   6.067   3.783  0.2882 -0.4299  0.3350
 7283TIP3   OH243263   5.161   6.390  12.106  0.0138 -0.3635 -0.1103
 7283TIP3    H143264   5.169   6.441  12.186  1.0954 -1.2115  0.3479
 7283TIP3    H243265   5.136   6.454  12.039 -0.8493  0.3667  0.8766
 7284TIP3   OH243266   6.141   3.831  13.230  0.1789 -0.3309 -0.3315
 7284TIP3    H143267   6.082   3.782  13.173 -0.3842 -1.3707  1.0682
 7284TIP3    H243268   6.177   3.765  13.290  0.5814  0.7240  0.6271
 7285TIP3   OH243269   0.395   2.871   1.217  0.2036 -0.6815  0.4548
 7285TIP3    H143270   0.307   2.906   1.209  0.2120 -0.4804  1.2517
 7285TIP3    H243271   0.382   2.777   1.229  0.1412 -0.7978 -0.4354
 7286TIP3   OH243272   3.457   1.483   5.982  0.3155 -0.2010 -0.9489
 7286TIP3    H143273   3.370   1.447   6.001  0.6213 -1.7309 -2.2985
 7286TIP3    H243274   3.489   1.514   6.067 -1.1849 -0.4134 -0.2796
 7287TIP3   OH243275   1.091   4.098  11.553  0.1415  0.2188 -0.3368
 7287TIP3    H143276   1.157   4.116  11.621  0.7107 -0.5465 -0.6699
 7287TIP3    H243277   1.142   4.070  11.477 -0.5820 -0.9529 -0.4194
 7288TIP3   OH243278   6.688   0.603  11.602  0.3548  0.1191  0.1945
 7288TIP3    H143279   6.775   0.592  11.641 -0.4243  0.2506  2.0635
 7288TIP3    H243280   6.701   0.669  11.533  1.8003 -0.1946  0.1350
 7289TIP3   OH243281   5.335   1.096  12.770  0.1090  0.0883 -0.2361
 7289TIP3    H143282   5.259   1.049  12.735 -0.5630  1.2411 -0.3881
 7289TIP3    H243283   5.362   1.154  12.699  0.4980  0.4173  0.1725
 7290TIP3   OH243284   3.386   0.406  16.585 -0.0269 -0.6677  0.6725
 7290TIP3    H143285   3.361   0.314  16.578 -0.8700 -0.3290 -1.8763
 7290TIP3    H243286   3.429   0.426  16.501 -1.3256  1.6324  0.4644
 7291TIP3   OH243287   3.874   0.210  14.622 -0.0213 -0.1284 -0.4487
 7291TIP3    H143288   3.954   0.195  14.571 -0.8026  0.5571 -1.9427
 7291TIP3    H243289   3.870   0.136  14.682  1.1683 -0.7504 -1.0861
 7292TIP3   OH243290   3.169   1.312   3.354 -0.4586 -0.2849 -0.7442
 7292TIP3    H143291   3.117   1.331   3.433 -0.8731  0.3700 -1.1647
 7292TIP3    H243292   3.259   1.333   3.378 -0.5107 -0.5605 -0.2935
 7293TIP3   OH243293   2.540   6.450   0.085 -0.1158 -0.0257 -0.6353
 7293TIP3    H143294   2.556   6.373   0.140  1.3494  0.7805  0.1202
 7293TIP3    H243295   2.551   6.419  -0.004  0.4447 -0.6924 -0.3414
 7294TIP3   OH243296   2.878   6.565   1.222 -0.9627  0.3612 -0.0864
 7294TIP3    H143297   2.839   6.611   1.296  0.0918  0.2057  0.5947
 7294TIP3    H243298   2.946   6.625   1.191  1.0156 -1.0131  1.3532
 7295TIP3   OH243299   5.649   5.030   3.626  0.5200  0.4876  0.3758
 7295TIP3    H143300   5.603   5.111   3.650 -2.1813 -0.4020 -1.3342
 7295TIP3    H243301   5.688   5.049   3.541  0.1468  0.1263  0.1177
 7296TIP3   OH243302   6.483   4.633   2.680  0.3804 -0.5497  0.7175
 7296TIP3    H143303   6.401   4.601   2.716 -0.4511  0.3850 -0.2874
 7296TIP3    H243304   6.531   4.668   2.755 -0.3395 -0.6523  1.2340
 7297TIP3   OH243305   0.200   0.443  16.391  0.2188  0.6965  0.5345
 7297TIP3    H143306   0.106   0.437  16.372  0.3635  1.3441 -0.4883
 7297TIP3    H243307   0.207   0.517  16.451  0.0778  0.6731  0.5801
 7298TIP3   OH243308   6.035   4.792  16.935 -0.2300  0.3271  0.0813
 7298TIP3    H143309   6.006   4.738  17.008  1.5423 -1.3231 -0.3704
 7298TIP3    H243310   6.056   4.877  16.974  3.0320 -1.2107  2.0311
 7299TIP3   OH243311   5.680   0.642   5.970  0.3626 -0.3578  0.1071
 7299TIP3    H143312   5.711   0.682   6.052 -0.1564 -0.4307  0.3438
 7299TIP3    H243313   5.657   0.553   5.994 -1.5722  0.1493  0.3257
 7300TIP3   OH243314   5.641   3.045  14.238  0.1982  0.0679 -0.1685
 7300TIP3    H143315   5.674   3.135  14.242 -1.8808  0.8703  3.2144
 7300TIP3    H243316   5.593   3.034  14.320 -1.7531 -3.3363 -1.5793
 7301TIP3   OH243317   1.551   6.289  15.623  0.5182 -0.0293 -0.1803
 7301TIP3    H143318   1.601   6.312  15.702 -0.0264 -0.0216  0.1630
 7301TIP3    H243319   1.587   6.205  15.596  2.8924  1.3547 -1.7361
 7302TIP3   OH243320   4.136   2.535  13.329  0.2982  0.0604  0.8545
 7302TIP3    H143321   4.231   2.545  13.329  0.2287  0.8383  1.2464
 7302TIP3    H243322   4.121   2.445  13.301  1.1247  0.1232  0.1717
 7303TIP3   OH243323   0.419   5.170   3.927 -0.0670  0.0191 -0.2073
 7303TIP3    H143324   0.472   5.117   3.868 -0.9741  0.2523 -1.2597
 7303TIP3    H243325   0.386   5.107   3.992 -1.3672 -0.8178 -1.6076
 7304TIP3   OH243326   0.424   1.845  10.599 -0.0413 -0.0357 -0.1362
 7304TIP3    H143327   0.451   1.835  10.508 -0.3528 -1.7249 -0.0690
 7304TIP3    H243328   0.339   1.802  10.603  0.2180 -0.4599  1.0779
 7305TIP3   OH243329   4.083   1.944   4.128 -0.1282 -0.4658  0.4622
 7305TIP3    H143330   4.030   1.935   4.049  0.7649  0.4080 -0.2625
 7305TIP3    H243331   4.029   1.996   4.187 -0.8794 -1.2862  0.5226
 7306TIP3   OH243332   2.714   4.700   5.096  0.0162  0.6110 -1.1318
 7306TIP3    H143333   2.630   4.680   5.138  1.5039  0.9345  2.3175
 7306TIP3    H243334   2.704   4.791   5.067 -0.2342  1.3400  1.0616
 7307TIP3   OH243335   3.371   2.529  13.310 -0.7614 -0.2887 -0.5768
 7307TIP3    H143336   3.299   2.578  13.349  0.2154  0.0248  0.9037
 7307TIP3    H243337   3.388   2.458  13.372 -0.6073 -1.1197 -1.5427
 7308TIP3   OH243338   2.254   4.110  15.200 -1.0167 -0.1601  0.3789
 7308TIP3    H143339   2.297   4.149  15.276 -1.5471  2.0674 -0.3734
 7308TIP3    H243340   2.301   4.146  15.125 -0.9947 -1.7017 -0.3767
 7309TIP3   OH243341   0.850   4.504  13.908  0.1197  0.4450  0.3030
 7309TIP3    H143342   0.854   4.521  13.814 -2.2857 -1.5606 -0.2815
 7309TIP3    H243343   0.939   4.478  13.932  0.1136 -2.5389 -2.2553
 7310TIP3   OH243344   2.939   6.486  12.396 -0.1784  0.5937 -0.4900
 7310TIP3    H143345   2.973   6.551  12.458  0.9856 -1.0081  0.6583
 7310TIP3    H243346   2.844   6.495  12.402 -0.0523  2.5276 -0.7841
 7311TIP3   OH243347   1.102   6.112   0.800  0.3422 -0.5797 -0.4063
 7311TIP3    H143348   1.133   6.169   0.871  1.2339  0.5017 -1.5991
 7311TIP3    H243349   1.149   6.030   0.814  0.9123 -0.2041 -0.0273
 7312TIP3   OH243350   0.910   4.984  15.378  0.4418  0.1367  0.4354
 7312TIP3    H143351   0.938   4.993  15.287 -0.3443 -0.4574  0.1199
 7312TIP3    H243352   0.816   4.965  15.372  0.0885  1.3955  1.4167
 7313TIP3   OH243353   0.821   3.152  13.654  0.5092  0.1171 -0.2163
 7313TIP3    H143354   0.813   3.162  13.749 -2.5092 -0.3048 -0.3400
 7313TIP3    H243355   0.734   3.172  13.620  1.7882  1.3209 -3.0463
 7314TIP3   OH243356   1.397   0.589   5.048  0.0520 -0.1389 -0.1969
 7314TIP3    H143357   1.335   0.660   5.032 -0.6791 -1.0066 -1.4321
 7314TIP3    H243358   1.344   0.510   5.044  0.6020 -0.7477  2.5235
 7315TIP3   OH243359   4.839   6.564   1.631 -0.4373 -0.6920 -0.4315
 7315TIP3    H143360   4.875   6.512   1.559  1.3435 -0.3844  0.1637
 7315TIP3    H243361   4.903   6.634   1.644 -2.1581  0.9588 -0.3915
 7316TIP3   OH243362   4.056   6.756   2.241  0.1267  0.1315 -0.5372
 7316TIP3    H143363   4.079   6.692   2.309  0.2411  0.3810 -0.3405
 7316TIP3    H243364   3.972   6.792   2.269  0.6368  0.9487 -0.0025
 7317TIP3   OH243365   6.097   0.970   3.618 -0.3418 -0.6053 -0.3389
 7317TIP3    H143366   6.136   0.929   3.541  0.2604 -0.5742 -0.0483
 7317TIP3    H243367   6.130   0.920   3.692 -0.3187 -0.1582 -0.0427
 7318TIP3   OH243368   6.436   5.387  12.341 -0.2155  0.2960 -0.0922
 7318TIP3    H143369   6.382   5.336  12.280 -1.3926  0.9241  0.4044
 7318TIP3    H243370   6.436   5.335  12.421  0.2240  0.1290 -0.1957
 7319TIP3   OH243371   4.929   1.857  15.828 -0.2295  0.3224 -0.1395
 7319TIP3    H143372   4.988   1.824  15.760 -0.7195  1.8054 -1.3720
 7319TIP3    H243373   4.868   1.785  15.844 -1.4920  0.6153 -2.9819
 7320TIP3   OH243374   5.395   0.431   6.429  0.5671  0.1295  0.3766
 7320TIP3    H143375   5.455   0.417   6.503  0.7434 -4.2095 -0.3432
 7320TIP3    H243376   5.452   0.447   6.354  0.5501  0.6115  0.4592
 7321TIP3   OH243377   4.466   6.706   4.613  0.1010  0.0061  0.0919
 7321TIP3    H143378   4.392   6.680   4.668 -0.2245  2.0488  0.7131
 7321TIP3    H243379   4.512   6.772   4.665  1.0832  0.3804 -1.2016
 7322TIP3   OH243380   1.291   6.349   3.234  0.0237  0.0938  0.3309
 7322TIP3    H143381   1.273   6.388   3.320  0.2838  1.0856 -0.0430
 7322TIP3    H243382   1.229   6.276   3.227 -2.0850  1.7796  0.1880
 7323TIP3   OH243383   4.121   0.416  13.827  0.4678 -0.4199 -0.3102
 7323TIP3    H143384   4.078   0.477  13.766 -1.2073  1.0537  2.1774
 7323TIP3    H243385   4.138   0.338  13.774  0.9055  1.4282 -3.1420
 7324TIP3   OH243386   1.171   6.296   4.495 -0.0997  0.2711  0.1408
 7324TIP3    H143387   1.151   6.235   4.566  0.5013  0.5730  0.5780
 7324TIP3    H243388   1.263   6.279   4.475 -0.4255 -0.2445 -0.9939
 7325TIP3   OH243389   4.274   1.372   5.418 -0.0530  0.0172  0.1931
 7325TIP3    H143390   4.368   1.375   5.437  0.3188  0.1286 -1.5488
 7325TIP3    H243391   4.233   1.417   5.492  1.1763 -0.8098  1.4311
 7326TIP3   OH243392   2.367   5.389   0.163 -0.2959  0.0705  0.1195
 7326TIP3    H143393   2.423   5.383   0.086 -0.2371  1.2975  0.0427
 7326TIP3    H243394   2.419   5.351   0.234  0.6875  1.2668  0.0650
 7327TIP3   OH243395   4.040   6.016   1.345  0.4266 -0.1087 -0.3625
 7327TIP3    H143396   3.985   5.998   1.421  1.1901 -0.8524  0.0321
 7327TIP3    H243397   4.124   6.043   1.382  1.2665 -1.8416 -0.8886
 7328TIP3   OH243398   3.372   5.035   5.818 -0.6152 -0.1278  0.0419
 7328TIP3    H143399   3.442   5.050   5.755 -1.4107 -2.1498 -1.4184
 7328TIP3    H243400   3.365   4.940   5.824 -0.7488 -0.0263  3.0522
 7329TIP3   OH243401   3.133   4.912  16.269  0.0159  0.8404  0.0606
 7329TIP3    H143402   3.171   4.855  16.203  0.0815  1.8220 -0.7671
 7329TIP3    H243403   3.070   4.965  16.221  1.3805  2.8632  0.3933
 7330TIP3   OH243404   0.782   5.050   5.781  0.5608 -0.0317 -0.0650
 7330TIP3    H143405   0.843   5.037   5.853 -0.2488 -1.6262  0.3960
 7330TIP3    H243406   0.705   5.092   5.821  0.4287 -0.1834 -0.1557
 7331TIP3   OH243407   4.375   4.280   0.362  0.0216  0.0993 -0.2766
 7331TIP3    H143408   4.308   4.222   0.324  0.5247  0.4263 -1.7041
 7331TIP3    H243409   4.456   4.255   0.318  0.5144  0.9274  0.1405
 7332TIP3   OH243410   1.738   0.397   1.744 -0.1188 -0.2357 -0.0555
 7332TIP3    H143411   1.782   0.388   1.828 -0.9873 -1.4123  0.2919
 7332TIP3    H243412   1.741   0.491   1.725  1.8547 -0.1892  0.2972
 7333TIP3   OH243413   4.752   6.337  11.782 -0.5221  0.3098  0.0123
 7333TIP3    H143414   4.771   6.306  11.694 -0.9403  2.4283 -0.8829
 7333TIP3    H243415   4.820   6.401  11.801 -0.2172 -0.3820  1.4082
 7334TIP3   OH243416   3.646   2.704   4.755  0.5280  0.8105  0.1704
 7334TIP3    H143417   3.609   2.742   4.834 -0.0963  0.4413  0.0609
 7334TIP3    H243418   3.574   2.704   4.692  1.0035  1.0491 -0.3824
 7335TIP3   OH243419   4.377   1.896  16.836 -0.0723 -0.2559 -0.4101
 7335TIP3    H143420   4.413   1.981  16.812  0.2682  0.3645  2.0038
 7335TIP3    H243421   4.288   1.915  16.865 -0.6940 -1.0571 -1.7044
 7336TIP3   OH243422   3.350   6.534   2.023 -0.4978  0.1469 -0.3323
 7336TIP3    H143423   3.434   6.526   1.978 -1.0397  0.7199 -1.4845
 7336TIP3    H243424   3.334   6.628   2.029 -0.4901  0.0855  1.0030
 7337TIP3   OH243425   1.030   4.588   2.140 -0.1562  0.0951  0.0280
 7337TIP3    H143426   0.998   4.560   2.226  0.9438 -2.9720 -0.4295
 7337TIP3    H243427   0.952   4.617   2.093 -0.9812  0.4652  1.5796
 7338TIP3   OH243428   5.895   5.389   0.218  0.2926 -0.1680 -0.0306
 7338TIP3    H143429   5.875   5.483   0.216  0.7043 -0.0129  1.5443
 7338TIP3    H243430   5.824   5.351   0.269 -0.3510 -0.8686 -1.4134
 7339TIP3   OH243431   2.899   3.639  14.861  0.1067 -0.0591 -0.0733
 7339TIP3    H143432   2.978   3.653  14.809 -0.7853  1.0360 -1.1865
 7339TIP3    H243433   2.828   3.671  14.806 -1.2046 -1.5911  0.6441
 7340TIP3   OH243434   5.470   4.210   4.759  0.1924 -0.4876 -0.1513
 7340TIP3    H143435   5.470   4.305   4.767 -2.8936 -0.4013  0.2361
 7340TIP3    H243436   5.519   4.192   4.679  0.4956  1.4477 -0.4332
 7341TIP3   OH243437   3.270   0.837  16.329 -1.0049 -0.2151 -0.0341
 7341TIP3    H143438   3.264   0.766  16.266 -2.1966 -0.4784  0.3521
 7341TIP3    H243439   3.338   0.895  16.294 -0.6936 -1.0524 -0.8400
 7342TIP3   OH243440   6.757   4.170   0.162 -0.0872 -0.1832  0.2739
 7342TIP3    H143441   6.728   4.079   0.160  0.6640 -0.4250  0.2997
 7342TIP3    H243442   6.678   4.220   0.141 -0.4370 -0.8498 -0.0387
 7343TIP3   OH243443   2.454   2.644   6.610  0.2469  0.3542  0.0889
 7343TIP3    H143444   2.407   2.561   6.603  0.8726  0.0514 -0.6581
 7343TIP3    H243445   2.546   2.620   6.605  0.5626  0.8340  2.5049
 7344TIP3   OH243446   5.026   0.293   5.049  0.3720  0.8725 -0.1300
 7344TIP3    H143447   5.008   0.251   5.133 -0.3202 -2.2442 -1.6761
 7344TIP3    H243448   4.948   0.344   5.029  0.7897  2.1573  1.3134
 7345TIP3   OH243449   1.666   0.100  11.718  0.5378 -0.0144 -0.1516
 7345TIP3    H143450   1.728   0.133  11.653 -0.1872  1.7940  0.0250
 7345TIP3    H243451   1.719   0.047  11.777  1.7997  0.9588 -0.3704
 7346TIP3   OH243452   0.151   1.066   6.097  0.0944 -0.3090  0.1246
 7346TIP3    H143453   0.100   1.037   6.021 -1.4072 -0.5197  1.1817
 7346TIP3    H243454   0.123   1.009   6.168 -0.1332  1.2862  1.3596
 7347TIP3   OH243455   6.413   5.494   3.950 -0.5212 -0.1726 -0.2667
 7347TIP3    H143456   6.399   5.582   3.914 -0.3386  0.7789  1.8603
 7347TIP3    H243457   6.326   5.465   3.977 -0.7051 -1.0130 -1.6700
 7348TIP3   OH243458   6.149   0.269   5.932  0.3079 -0.3125  0.1314
 7348TIP3    H143459   6.184   0.357   5.924  0.2703 -0.1683  1.3563
 7348TIP3    H243460   6.064   0.281   5.974  0.0592 -0.8885 -0.1971
 7349TIP3   OH243461   5.838   4.604   4.217 -0.1740  0.1324 -0.9076
 7349TIP3    H143462   5.750   4.636   4.237  0.3460 -0.3548  2.9039
 7349TIP3    H243463   5.896   4.676   4.244  0.6596 -0.4272 -1.1777
 7350TIP3   OH243464   1.676   5.254  12.665 -0.4456 -0.5392 -0.2337
 7350TIP3    H143465   1.729   5.301  12.600 -1.0737  0.8404  0.2163
 7350TIP3    H243466   1.595   5.233  12.620 -0.2822 -0.9541 -0.3439
 7351TIP3   OH243467   1.654   6.731  13.324  0.0354 -0.6425  0.1908
 7351TIP3    H143468   1.716   6.713  13.254  0.0741  0.9882 -0.2437
 7351TIP3    H243469   1.567   6.718  13.284  0.0045  1.7676 -0.6927
 7352TIP3   OH243470   4.286   2.214  15.340  0.2268  0.2097  0.8858
 7352TIP3    H143471   4.276   2.193  15.432 -0.4032 -2.0222  0.3700
 7352TIP3    H243472   4.230   2.151  15.294  1.6262  0.2909 -1.0797
 7353TIP3   OH243473   3.399   1.214   3.821 -0.0588  0.4752 -0.1241
 7353TIP3    H143474   3.370   1.236   3.910 -0.8639 -0.1879 -0.2113
 7353TIP3    H243475   3.366   1.285   3.766  1.1978  1.3556  0.2127
 7354TIP3   OH243476   6.149   4.090   1.500 -0.4877 -0.4251  0.1395
 7354TIP3    H143477   6.072   4.140   1.527 -0.1218 -0.5194  1.4432
 7354TIP3    H243478   6.140   4.006   1.545  0.7699 -0.1398  0.9893
 7355TIP3   OH243479   2.185   4.883  12.760  0.4379  0.7495  0.0400
 7355TIP3    H143480   2.165   4.976  12.773  0.8858  0.9741 -0.7913
 7355TIP3    H243481   2.258   4.884  12.698  0.6332 -0.1516  0.2552
 7356TIP3   OH243482   6.560   0.756   4.000  0.3526 -0.6912  0.2653
 7356TIP3    H143483   6.518   0.709   3.928  1.6067 -0.9903 -0.3147
 7356TIP3    H243484   6.560   0.694   4.073  0.1992 -0.8549  0.1281
 7357TIP3   OH243485   0.007   5.512  14.011  0.0861 -0.0534  0.0820
 7357TIP3    H143486  -0.007   5.577  14.080 -1.5396 -1.0273  0.7456
 7357TIP3    H243487  -0.055   5.537  13.943  2.9255  1.9942 -1.9830
 7358TIP3   OH243488   3.856   5.750   2.037 -0.5809 -0.1966  0.3296
 7358TIP3    H143489   3.764   5.771   2.020 -0.1828  1.1013 -0.4670
 7358TIP3    H243490   3.866   5.659   2.009 -1.2585  0.1723 -1.2749
 7359TIP3   OH243491   0.546   5.722  11.700 -0.6326 -0.3974 -0.0749
 7359TIP3    H143492   0.636   5.690  11.712 -0.4770  0.0199 -0.1377
 7359TIP3    H243493   0.547   5.810  11.736 -1.3048 -0.7989  0.9524
 7360TIP3   OH243494   3.285   2.548  15.074 -0.4066  0.4884  0.5652
 7360TIP3    H143495   3.351   2.561  15.006 -0.7251 -0.7356  0.0168
 7360TIP3    H243496   3.238   2.632  15.078  1.3204  1.4807  1.1521
 7361TIP3   OH243497   4.542   0.022  14.351  0.2225  0.1688  0.3255
 7361TIP3    H143498   4.464  -0.013  14.394 -1.7583  2.3438 -1.2735
 7361TIP3    H243499   4.525   0.013  14.257  1.0263  2.3929 -0.0913
 7362TIP3   OH243500   0.722   1.455  12.227 -0.5648  0.1126  0.3866
 7362TIP3    H143501   0.652   1.391  12.240 -0.2984  0.0295  1.4590
 7362TIP3    H243502   0.720   1.473  12.133 -2.3845  0.5235  0.4677
 7363TIP3   OH243503   0.040   1.894  12.064  0.0584 -0.1559 -0.1626
 7363TIP3    H143504   0.036   1.986  12.091  0.2536 -0.5283  1.1908
 7363TIP3    H243505  -0.051   1.868  12.053  0.0255  0.5426 -1.8546
 7364TIP3   OH243506   3.210   4.065  12.280 -0.3968 -0.5255  0.2158
 7364TIP3    H143507   3.265   4.090  12.354 -0.5795 -0.2985  0.2767
 7364TIP3    H243508   3.169   3.983  12.307  0.8757 -1.3773 -0.3260
 7365TIP3   OH243509   5.538   5.434  13.880  0.4433 -0.1289  0.4588
 7365TIP3    H143510   5.582   5.352  13.859 -0.9885 -0.6589 -0.7180
 7365TIP3    H243511   5.445   5.416  13.864 -0.0847  1.2749  1.6757
 7366TIP3   OH243512   4.787   5.685  11.604 -0.0044 -0.4322 -0.0645
 7366TIP3    H143513   4.753   5.730  11.527  2.4740 -1.0903 -1.6504
 7366TIP3    H243514   4.833   5.753  11.654  0.9455 -0.5251 -0.7737
 7367TIP3   OH243515   5.359   1.133   3.820  0.1312  0.0872  0.8539
 7367TIP3    H143516   5.398   1.157   3.736 -1.3482 -0.2871  0.0232
 7367TIP3    H243517   5.317   1.213   3.851  0.0613  0.0350  0.8919
 7368TIP3   OH243518   2.424   0.598   5.443  0.2234  0.6235 -0.1146
 7368TIP3    H143519   2.384   0.681   5.419 -1.0734 -0.3256 -1.3346
 7368TIP3    H243520   2.363   0.531   5.413  0.5090 -0.7776  2.1349
 7369TIP3   OH243521   5.441   4.698  15.001  0.2367  0.3546 -0.0939
 7369TIP3    H143522   5.509   4.644  14.960 -0.4618 -0.2410 -0.4880
 7369TIP3    H243523   5.379   4.715  14.930 -1.2752 -1.1357  0.8082
 7370TIP3   OH243524   2.138   6.725  11.891 -0.1645 -0.1453  0.4451
 7370TIP3    H143525   2.216   6.762  11.851 -0.4884 -0.5519 -0.5871
 7370TIP3    H243526   2.120   6.645  11.841 -1.3619  0.0563  0.5231
 7371TIP3   OH243527   1.147   3.637  11.424 -0.6971  0.2462 -0.3375
 7371TIP3    H143528   1.232   3.681  11.430 -0.8910  0.4315  2.4569
 7371TIP3    H243529   1.092   3.698  11.375  0.1066  1.3097  0.0422
 7372TIP3   OH243530   3.831   2.825   3.307 -0.8174  0.1340  0.4793
 7372TIP3    H143531   3.843   2.867   3.222 -1.3828 -0.5107  0.0669
 7372TIP3    H243532   3.859   2.734   3.293 -0.7874  0.0540  1.0201
 7373TIP3   OH243533   2.855   3.744   5.769  0.3229  0.4298 -0.4319
 7373TIP3    H143534   2.918   3.815   5.779  1.4457 -0.7290  0.9981
 7373TIP3    H243535   2.903   3.675   5.723 -1.0467  0.8835 -2.7359
 7374TIP3   OH243536   3.159   3.474  15.475 -0.0322 -0.0905 -0.2683
 7374TIP3    H143537   3.064   3.467  15.472 -0.0164 -2.7674  1.9603
 7374TIP3    H243538   3.190   3.411  15.410  0.2846  1.1588 -1.3757
 7375TIP3   OH243539   3.168   2.907  15.693  0.6972 -0.0214  0.3575
 7375TIP3    H143540   3.133   2.830  15.649 -0.1847  1.2823 -1.3442
 7375TIP3    H243541   3.219   2.872  15.767 -2.6600 -2.0925  1.9270
 7376TIP3   OH243542   5.738   2.542  15.704 -0.0528  0.4681  0.2914
 7376TIP3    H143543   5.663   2.548  15.764  0.6450  0.5511  1.1628
 7376TIP3    H243544   5.774   2.630  15.702  0.0338  0.4273 -0.1296
 7377TIP3   OH243545   3.657   2.025   5.651  0.0244 -0.1130 -0.2598
 7377TIP3    H143546   3.713   1.977   5.590  2.7487  1.1724  1.0721
 7377TIP3    H243547   3.685   1.995   5.738  0.1771  2.1079  0.5167
 7378TIP3   OH243548   1.378   3.818   4.773  0.3144 -0.0846 -0.2867
 7378TIP3    H143549   1.361   3.904   4.810  0.7336 -0.7206  1.5034
 7378TIP3    H243550   1.385   3.760   4.849 -2.0854 -2.1277 -1.4965
 7379TIP3   OH243551   1.626   4.836  13.853  0.2282 -0.1515 -0.3037
 7379TIP3    H143552   1.660   4.756  13.811  0.9424  0.5322 -1.0785
 7379TIP3    H243553   1.659   4.907  13.798  0.0665  0.7142  0.6917
 7380TIP3   OH243554   4.434   3.581   3.903  0.3505 -0.1443 -0.2420
 7380TIP3    H143555   4.487   3.502   3.917  0.4698 -0.0531 -0.1746
 7380TIP3    H243556   4.378   3.585   3.980 -0.3505 -0.7058 -0.7128
 7381TIP3   OH243557   5.997   1.826   5.235 -0.3536  0.1959 -0.5216
 7381TIP3    H143558   5.967   1.757   5.294  0.1798 -0.4507 -1.0052
 7381TIP3    H243559   6.056   1.879   5.288 -1.1125  0.5655 -0.0168
 7382TIP3   OH243560   5.296   4.161   0.168  0.0471  0.3329  0.1663
 7382TIP3    H143561   5.361   4.228   0.188  1.2366 -0.4923 -0.7950
 7382TIP3    H243562   5.333   4.113   0.094 -1.2615 -0.7215  0.1597
 7383TIP3   OH243563   4.092   4.479   0.894 -0.3924  0.8444  0.1277
 7383TIP3    H143564   4.087   4.573   0.911 -0.3917  1.0311 -0.8254
 7383TIP3    H243565   4.068   4.470   0.801  0.4194 -0.0027 -0.0190
 7384TIP3   OH243566   3.092   3.999   2.432  0.1215 -0.4023  0.3441
 7384TIP3    H143567   3.158   3.986   2.364 -0.8520 -2.3006 -0.3169
 7384TIP3    H243568   3.054   4.084   2.413 -0.1501 -0.9123 -1.5479
 7385TIP3   OH243569   5.501   4.007   3.442 -0.6410 -0.4052  0.9564
 7385TIP3    H143570   5.423   4.007   3.386 -1.0121 -0.9114  1.4642
 7385TIP3    H243571   5.521   3.914   3.455 -0.1789 -0.2817  1.1530
 7386TIP3   OH243572   4.245   1.634  15.186 -0.1439 -0.4169 -0.2842
 7386TIP3    H143573   4.234   1.573  15.259 -1.5301  0.4692  0.2605
 7386TIP3    H243574   4.259   1.577  15.110  2.1113 -1.3525  0.7174
 7387TIP3   OH243575   3.389   1.510  12.824 -0.6866  0.4220  0.0539
 7387TIP3    H143576   3.325   1.533  12.757  0.6309  1.5806 -0.8520
 7387TIP3    H243577   3.448   1.585  12.829  0.9917 -0.8514  0.4060
 7388TIP3   OH243578   5.323   2.380   2.862 -0.1908  0.0073 -0.3283
 7388TIP3    H143579   5.315   2.455   2.921  0.4157 -0.3951  0.2868
 7388TIP3    H243580   5.351   2.418   2.779 -2.3357  0.7275 -0.7720
 7389TIP3   OH243581   4.430   3.018   0.046 -0.2607 -0.0184 -0.0076
 7389TIP3    H143582   4.507   3.009   0.102 -1.2588 -1.3443  1.2321
 7389TIP3    H243583   4.429   2.937  -0.006  0.7863  1.2927 -2.2144
 7390TIP3   OH243584   6.449   0.068   2.079  0.1683 -0.4448  0.3746
 7390TIP3    H143585   6.409  -0.019   2.078 -0.2211 -0.2659  0.4205
 7390TIP3    H243586   6.511   0.065   2.151 -0.8408 -0.2425  1.2702
 7391TIP3   OH243587   3.427   0.126  11.842 -0.2613 -0.1508 -0.1664
 7391TIP3    H143588   3.478   0.047  11.822  0.2417  0.0523  0.2855
 7391TIP3    H243589   3.484   0.199  11.819 -1.3775  0.1365 -2.2719
 7392TIP3   OH243590   2.755   3.059  16.637 -0.1083  0.6889 -0.0317
 7392TIP3    H143591   2.698   2.985  16.656 -0.3145  0.8835  0.1117
 7392TIP3    H243592   2.832   3.020  16.595  0.5986  0.2014  1.6606
 7393TIP3   OH243593   0.930   6.734  11.869  0.4123 -0.5865  0.0959
 7393TIP3    H143594   0.991   6.661  11.869  0.4437 -0.6396 -2.3110
 7393TIP3    H243595   0.964   6.794  11.802 -2.6884 -1.1490 -2.2195
 7394TIP3   OH243596   2.421   4.299   4.258  0.5745 -0.4198 -0.1486
 7394TIP3    H143597   2.391   4.388   4.240  2.1991  0.0913 -0.4950
 7394TIP3    H243598   2.359   4.242   4.212  0.1573  0.5834 -0.8423
 7395TIP3   OH243599   5.113   4.445   4.844 -0.1352  0.0548 -0.5722
 7395TIP3    H143600   5.195   4.396   4.837  0.7739  1.3556  0.5216
 7395TIP3    H243601   5.140   4.535   4.862 -1.7930  0.2903  1.1115
 7396TIP3   OH243602   3.881   4.226   5.350  0.3663  0.3082  0.0511
 7396TIP3    H143603   3.920   4.271   5.425  1.0265  0.4548 -0.3723
 7396TIP3    H243604   3.929   4.143   5.344  0.9300  0.6832 -0.7479
 7397TIP3   OH243605   6.111   4.978   3.856  0.4272 -0.3124  0.4380
 7397TIP3    H143606   6.049   5.045   3.828 -0.3232 -0.7031  1.1394
 7397TIP3    H243607   6.098   4.972   3.951 -1.0760 -2.9612  0.1521
 7398TIP3   OH243608   3.752   4.859  13.536 -0.1442  0.0910 -0.0530
 7398TIP3    H143609   3.751   4.955  13.531 -0.9482  0.0926  0.0464
 7398TIP3    H243610   3.781   4.831  13.449  0.5511  0.4274  0.0608
 7399TIP3   OH243611   2.875   3.477  15.428 -0.1075  0.7257  0.6030
 7399TIP3    H143612   2.812   3.539  15.464 -1.7209  0.1270 -1.0043
 7399TIP3    H243613   2.874   3.494  15.334 -0.0050 -1.1642  0.2119
 7400TIP3   OH243614   4.183   0.235  10.534  0.1347  0.0758 -0.4340
 7400TIP3    H143615   4.266   0.189  10.525  0.4339  0.0143  1.8989
 7400TIP3    H243616   4.125   0.170  10.575  0.1113  1.2061  1.4621
 7401TIP3   OH243617   0.845   4.926   3.512  0.3802 -0.5354 -0.2291
 7401TIP3    H143618   0.904   4.853   3.528  0.9788  0.0045  0.1069
 7401TIP3    H243619   0.832   4.966   3.598 -0.5363 -0.6898 -0.2926
 7402TIP3   OH243620   6.323   2.155   3.342 -0.4430 -0.8572 -0.0462
 7402TIP3    H143621   6.354   2.168   3.252 -1.5468 -0.5556 -0.4011
 7402TIP3    H243622   6.400   2.123   3.389  0.4177 -0.0590 -0.8611
 7403TIP3   OH243623   1.193   1.978  11.088 -0.2814  0.4787  1.0065
 7403TIP3    H143624   1.180   1.884  11.075 -2.1986  0.5857  1.8223
 7403TIP3    H243625   1.142   2.019  11.019  0.3403  0.9388  0.8126
 7404TIP3   OH243626   1.839   4.390  16.102 -0.0306 -0.1918  0.4295
 7404TIP3    H143627   1.900   4.458  16.075 -0.2859 -0.6615 -1.4731
 7404TIP3    H243628   1.887   4.308  16.091 -0.8562 -0.5404 -0.7505
 7405TIP3   OH243629   0.242   3.949   1.761  1.2327 -0.0270  0.2665
 7405TIP3    H143630   0.307   4.007   1.721  0.9225  0.6216  0.6847
 7405TIP3    H243631   0.208   3.999   1.835  0.7805 -0.6509  0.4864
 7406TIP3   OH243632   5.464   4.492   1.055 -0.0199 -0.2339 -0.7388
 7406TIP3    H143633   5.539   4.531   1.099  1.0814 -0.8975 -1.9436
 7406TIP3    H243634   5.396   4.488   1.122  1.2030 -0.1591  0.5504
 7407TIP3   OH243635   6.346   4.968   5.662  0.2550 -0.0846  0.2569
 7407TIP3    H143636   6.386   4.883   5.643  2.4756  1.2303 -1.7415
 7407TIP3    H243637   6.269   4.948   5.714  1.1123 -3.2332  0.5488
 7408TIP3   OH243638   2.712   0.858  16.439 -0.2348 -0.2831 -0.5369
 7408TIP3    H143639   2.728   0.949  16.414  0.5961 -0.6065 -1.2735
 7408TIP3    H243640   2.777   0.840  16.507  0.5099 -0.7030 -1.3404
 7409TIP3   OH243641   1.668   5.797  12.636  0.8552  0.1351 -0.1330
 7409TIP3    H143642   1.712   5.716  12.664  1.3788  0.9422  1.5028
 7409TIP3    H243643   1.740   5.858  12.621  0.3848  1.2320  1.7788
 7410TIP3   OH243644   3.887   4.707  16.416 -0.1337 -0.3368 -0.5508
 7410TIP3    H143645   3.793   4.725  16.409  0.0296  1.5710  1.2317
 7410TIP3    H243646   3.899   4.676  16.505  1.2242  2.1295  0.2330
 7411TIP3   OH243647   2.619   4.526   5.501 -0.5012 -0.6807  0.2377
 7411TIP3    H143648   2.680   4.486   5.440  0.0071  0.7035 -0.1932
 7411TIP3    H243649   2.673   4.552   5.576 -0.7709 -0.4863  0.3663
 7412TIP3   OH243650   0.073   2.063  13.352 -0.5533  0.3805 -0.0556
 7412TIP3    H143651   0.025   2.123  13.294 -1.3326 -0.9305 -0.8259
 7412TIP3    H243652   0.150   2.038  13.302 -0.1638  0.8283  0.3158
 7413TIP3   OH243653   6.661   4.151  13.865 -0.1130  0.3461 -0.5103
 7413TIP3    H143654   6.578   4.178  13.906  0.0171 -0.2965  0.1876
 7413TIP3    H243655   6.670   4.209  13.789 -2.5449 -1.2512 -2.1754
 7414TIP3   OH243656   6.077   1.288  12.396 -0.2540  0.4975  0.0889
 7414TIP3    H143657   6.054   1.235  12.472 -1.4140  1.2551  0.2958
 7414TIP3    H243658   6.075   1.378  12.428  1.6624  0.7047 -0.2567
 7415TIP3   OH243659   1.844   5.223   3.049 -0.1580  0.2251  0.1195
 7415TIP3    H143660   1.833   5.128   3.041 -1.2351  0.2872  0.6860
 7415TIP3    H243661   1.755   5.257   3.059  0.3111  1.1367  1.4986
 7416TIP3   OH243662   3.696   6.575   1.222  0.2465  0.1117 -0.1971
 7416TIP3    H143663   3.665   6.543   1.307 -0.4765  0.4084 -0.3383
 7416TIP3    H243664   3.709   6.496   1.170 -1.3630 -0.0030 -0.4890
 7417TIP3   OH243665   6.756   5.526  12.648  0.3631 -0.0022  0.4275
 7417TIP3    H143666   6.670   5.569  12.647  0.7708  0.8180 -0.1109
 7417TIP3    H243667   6.818   5.597  12.665  0.8834 -0.7061  1.5834
 7418TIP3   OH243668   2.017   5.070  13.704  0.0732  0.2558  0.0717
 7418TIP3    H143669   2.020   5.040  13.795  1.8807 -0.0231 -0.0399
 7418TIP3    H243670   2.032   4.990  13.653 -2.1036  0.1934 -0.5691
 7419TIP3   OH243671   0.667   4.448  13.495  0.2180  0.0433 -0.3039
 7419TIP3    H143672   0.643   4.491  13.413 -0.7425 -0.8809 -0.5303
 7419TIP3    H243673   0.692   4.359  13.469  1.2133  0.1400  0.2640
 7420TIP3   OH243674   3.737   5.893  11.457  0.1923  0.6053  0.1384
 7420TIP3    H143675   3.779   5.970  11.418  1.2844 -0.0094  0.0649
 7420TIP3    H243676   3.757   5.898  11.550 -0.2605  0.7302  0.2315
 7421TIP3   OH243677   1.736   5.037  13.670  0.3595 -0.1479 -0.6006
 7421TIP3    H143678   1.825   5.061  13.697  0.4144 -1.0272  0.0858
 7421TIP3    H243679   1.696   5.119  13.642  1.7020  0.1258 -1.8799
 7422TIP3   OH243680   3.470   0.719   0.524  0.3602  0.1115 -0.1069
 7422TIP3    H143681   3.463   0.645   0.463  2.9927  1.4834 -2.3261
 7422TIP3    H243682   3.415   0.787   0.486 -1.5224 -0.3711  1.5709
 7423TIP3   OH243683   4.095   2.196   0.448  0.2527  0.4443  0.3550
 7423TIP3    H143684   4.069   2.173   0.538 -2.8847  2.2901  0.0427
 7423TIP3    H243685   4.015   2.188   0.397  1.7656  0.3241 -2.1715
 7424TIP3   OH243686   1.110   6.598  13.657 -0.6024 -0.5514  0.2081
 7424TIP3    H143687   1.061   6.603  13.739  0.3752 -1.3081  0.8693
 7424TIP3    H243688   1.181   6.661  13.667 -0.7086 -0.3587 -0.2242
 7425TIP3   OH243689   4.735   1.966   1.762 -0.2381  0.8771 -0.7832
 7425TIP3    H143690   4.801   1.905   1.795 -0.2673  1.1433 -0.2299
 7425TIP3    H243691   4.775   2.007   1.686 -0.2536  0.0888 -1.2245
 7426TIP3   OH243692   4.436   2.485   3.387  0.1260  0.1865  0.5332
 7426TIP3    H143693   4.497   2.525   3.326 -1.3655  2.5008  0.4250
 7426TIP3    H243694   4.362   2.459   3.333  0.0559 -0.5299  0.9641
 7427TIP3   OH243695   2.816   0.231   2.514  0.5171 -0.0653 -0.1503
 7427TIP3    H143696   2.856   0.164   2.569 -0.6180 -0.8775 -0.2759
 7427TIP3    H243697   2.807   0.190   2.428 -0.0418  0.2872 -0.2699
 7428TIP3   OH243698   1.160   1.472   1.612  0.0749  0.1932 -0.7197
 7428TIP3    H143699   1.141   1.407   1.680  1.0318  0.4715 -0.1528
 7428TIP3    H243700   1.161   1.555   1.659 -2.2483  0.7930 -1.6399
 7429TIP3   OH243701   5.798   4.851   4.587  0.1800 -0.0308  0.3081
 7429TIP3    H143702   5.742   4.836   4.663 -0.3515 -0.3863 -0.1482
 7429TIP3    H243703   5.807   4.946   4.581  1.3262 -0.0255  1.6071
 7430TIP3   OH243704   4.931   2.882   0.283 -0.0176  0.6498 -0.5758
 7430TIP3    H143705   4.952   2.809   0.225 -1.2154  1.0185 -1.5018
 7430TIP3    H243706   4.983   2.865   0.362 -0.6504 -1.4569 -0.5599
 7431TIP3   OH243707   5.030   1.294  16.858  0.3925  0.8859 -0.2030
 7431TIP3    H143708   5.096   1.362  16.850  1.1766  0.2796  0.7907
 7431TIP3    H243709   4.947   1.339  16.845  0.8401  2.1812  1.0897
 7432TIP3   OH243710   4.658   0.247  13.604 -0.1198  0.5111 -0.4226
 7432TIP3    H143711   4.735   0.192  13.587 -1.6166 -1.0751 -2.7207
 7432TIP3    H243712   4.693   0.323  13.650  2.6992 -0.4824 -0.6905
 7433TIP3   OH243713   0.261   0.558   2.363 -0.4643  0.0525  0.3575
 7433TIP3    H143714   0.302   0.616   2.428 -0.1796 -2.7666  2.8931
 7433TIP3    H243715   0.335   0.523   2.313 -0.6321  1.6547 -1.1297
 7434TIP3   OH243716   3.846   1.960  13.668 -0.0548 -0.1708  0.1424
 7434TIP3    H143717   3.835   1.869  13.695 -0.6341 -0.6926 -1.7094
 7434TIP3    H243718   3.937   1.966  13.640  0.6383  0.4533  2.3474
 7435TIP3   OH243719   0.151   2.751   1.567  0.5693  0.3271 -0.4777
 7435TIP3    H143720   0.059   2.737   1.590  0.1006  1.3978 -1.6198
 7435TIP3    H243721   0.161   2.709   1.482  1.4001 -0.5729  0.0409
 7436TIP3   OH243722   1.394   4.976  16.325 -0.4678  0.0467  0.4845
 7436TIP3    H143723   1.468   4.940  16.277 -0.8359 -0.4960  0.3051
 7436TIP3    H243724   1.366   5.051  16.273 -0.1449  0.1582  0.4680
 7437TIP3   OH243725   4.046   1.317   5.286  0.1819 -0.0585  0.3522
 7437TIP3    H143726   3.966   1.322   5.338 -0.4581 -0.8120 -0.5303
 7437TIP3    H243727   4.116   1.340   5.348 -0.6377 -0.0374  1.3025
 7438TIP3   OH243728   2.990   4.623   5.417 -0.0288  0.2791 -0.2070
 7438TIP3    H143729   2.986   4.533   5.450  2.0234 -0.1486 -1.0036
 7438TIP3    H243730   3.030   4.673   5.488 -1.6548  0.7335  0.4497
 7439TIP3   OH243731   1.118   4.841   6.724 -0.1085 -0.3399  0.2010
 7439TIP3    H143732   1.204   4.862   6.760  0.9853  0.8358 -2.7653
 7439TIP3    H243733   1.118   4.745   6.719  0.6090 -0.4074  1.1328
 7440TIP3   OH243734   4.730   6.373   0.410 -0.1224  0.3754 -0.0894
 7440TIP3    H143735   4.736   6.297   0.468 -0.2702 -1.7832 -2.6852
 7440TIP3    H243736   4.786   6.351   0.335 -2.7959  1.2217 -2.5326
 7441TIP3   OH243737   3.942   2.170   2.136 -0.0833 -0.0688 -0.0530
 7441TIP3    H143738   3.983   2.218   2.208  2.1570 -0.1492 -1.2061
 7441TIP3    H243739   3.882   2.233   2.096  0.2526  0.6425  0.5519
 7442TIP3   OH243740   2.569   1.701   0.230  0.5566 -0.3896  0.4669
 7442TIP3    H143741   2.551   1.607   0.225  0.3872 -0.2734 -2.1671
 7442TIP3    H243742   2.521   1.730   0.308 -0.8635 -2.1674  0.3158
 7443TIP3   OH243743   2.389   5.234  13.402 -0.1444 -0.4699  0.0362
 7443TIP3    H143744   2.390   5.292  13.326 -1.1548 -0.5977 -0.0878
 7443TIP3    H243745   2.444   5.160  13.377  0.4712  0.0325 -0.1241
 7444TIP3   OH243746   3.508   4.533   4.211 -0.0934 -0.9272  0.5058
 7444TIP3    H143747   3.453   4.609   4.189  0.3967 -0.2881  1.4265
 7444TIP3    H243748   3.525   4.491   4.127  0.7548  0.7713 -0.2165
 7445TIP3   OH243749   5.949   2.605  17.252  0.4514  0.9982  0.1500
 7445TIP3    H143750   5.861   2.583  17.222 -0.5665  2.6453  1.7404
 7445TIP3    H243751   5.967   2.544  17.323  0.1832  1.2436  0.4360
 7446TIP3   OH243752   5.192   3.082  16.942 -0.3158  0.2663 -0.4039
 7446TIP3    H143753   5.288   3.085  16.933 -0.3150  0.3260 -0.3793
 7446TIP3    H243754   5.175   2.997  16.982 -0.2593  0.3284 -0.2446
 7447TIP3   OH243755   0.105   1.151   1.884  0.0424 -0.4114 -0.1475
 7447TIP3    H143756   0.131   1.093   1.956 -0.6887 -2.2088 -1.2643
 7447TIP3    H243757   0.184   1.159   1.830  0.2807  0.0549  0.2588
 7448TIP3   OH243758   4.725   4.898  10.511  0.0194  0.3558 -0.0481
 7448TIP3    H143759   4.779   4.942  10.577 -2.6591  0.0237  2.6056
 7448TIP3    H243760   4.653   4.959  10.495 -0.0563 -0.1334 -1.7732
 7449TIP3   OH243761   0.885   1.933   6.277  0.2439 -0.2473 -0.6504
 7449TIP3    H143762   0.804   1.976   6.303  0.4575  0.0514 -0.4584
 7449TIP3    H243763   0.861   1.842   6.260  0.0777 -0.4385  0.5442
 7450TIP3   OH243764   5.063   2.510  11.850 -0.3702 -0.5340 -0.1851
 7450TIP3    H143765   5.067   2.543  11.940 -0.2242 -0.1355 -0.3392
 7450TIP3    H243766   4.990   2.557  11.810  0.3779  0.2465 -0.6621
 7451TIP3   OH243767   0.142   1.168   5.573  0.2093 -0.2718 -0.0088
 7451TIP3    H143768   0.050   1.170   5.544  0.0501  0.0043  0.4990
 7451TIP3    H243769   0.168   1.260   5.578  0.2748 -0.3176  0.5738
 7452TIP3   OH243770   4.150   2.861   5.306 -0.0770 -0.2496 -0.8704
 7452TIP3    H143771   4.203   2.930   5.266 -0.9117 -0.3774 -2.2599
 7452TIP3    H243772   4.077   2.908   5.347 -0.4819 -0.2691 -1.5534
 7453TIP3   OH243773   4.722   2.151  17.214 -0.1253  0.4752 -0.2107
 7453TIP3    H143774   4.714   2.067  17.170  0.5416  0.7131 -0.8064
 7453TIP3    H243775   4.719   2.130  17.308  0.1624 -0.2131 -0.3535
 7454TIP3   OH243776   5.821   4.034  13.065  0.0575 -0.4787  0.3183
 7454TIP3    H143777   5.822   3.956  13.121 -0.0780 -0.1681  0.7609
 7454TIP3    H243778   5.886   4.015  12.997 -0.2069 -1.1099  0.2302
 7455TIP3   OH243779   2.142   0.899   5.044 -0.4571  0.5643  0.1701
 7455TIP3    H143780   2.068   0.932   5.095 -2.6099 -1.5411 -1.3344
 7455TIP3    H243781   2.206   0.970   5.044 -2.3548  2.3871  1.7892
 7456TIP3   OH243782   1.100   4.343   5.743  0.3418 -0.3235 -0.1392
 7456TIP3    H143783   1.075   4.406   5.810  0.5447 -0.5672  0.1645
 7456TIP3    H243784   1.186   4.312   5.770  0.5060 -0.2857 -0.6096
 7457TIP3   OH243785   1.598   2.821  14.867  0.6419 -0.6982  0.3001
 7457TIP3    H143786   1.502   2.817  14.861  0.5397  1.6871 -0.6649
 7457TIP3    H243787   1.620   2.909  14.837  3.1728 -1.2526  0.3454
 7458TIP3   OH243788   1.833   1.861   5.645  0.2710 -0.0414  0.1707
 7458TIP3    H143789   1.877   1.892   5.566  1.5979 -1.4995  0.2859
 7458TIP3    H243790   1.866   1.917   5.715 -1.1066  1.4295 -0.2809
 7459TIP3   OH243791   1.967   4.573   5.594 -0.0256 -0.4976 -0.6458
 7459TIP3    H143792   1.997   4.482   5.591 -0.4230 -0.7027  0.7332
 7459TIP3    H243793   1.914   4.578   5.674 -0.1648  0.9023 -0.7989
 7460TIP3   OH243794   5.374   3.502   0.888 -0.4114 -0.3004 -0.0624
 7460TIP3    H143795   5.347   3.552   0.811 -0.8513  2.0219  1.4929
 7460TIP3    H243796   5.454   3.457   0.861 -0.8672 -0.0227 -2.0230
 7461TIP3   OH243797   2.512   0.396  13.115 -0.5671 -0.2904 -0.5226
 7461TIP3    H143798   2.607   0.398  13.124 -0.6785  1.0448  0.7748
 7461TIP3    H243799   2.491   0.304  13.100  0.6736 -1.2209  2.5853
 7462TIP3   OH243800   0.275   1.440   2.515  0.8434  0.8859 -0.3280
 7462TIP3    H143801   0.275   1.430   2.610 -0.1924 -0.1954 -0.4203
 7462TIP3    H243802   0.227   1.521   2.499 -0.3309  0.2832  0.0289
 7463TIP3   OH243803   6.485   3.146  15.262  0.7836 -0.0855 -0.7272
 7463TIP3    H143804   6.490   3.233  15.223  0.9335  1.8888  3.2115
 7463TIP3    H243805   6.570   3.106  15.243  1.7724  1.7444 -0.3671
 7464TIP3   OH243806   3.093   3.200   2.692 -0.5438 -0.4547  0.0117
 7464TIP3    H143807   3.134   3.264   2.633 -0.5105 -0.2436  0.2591
 7464TIP3    H243808   3.099   3.117   2.646 -1.6362 -0.0909 -0.8397
 7465TIP3   OH243809   2.510   4.430  17.090 -0.2751  0.2799 -0.4826
 7465TIP3    H143810   2.484   4.354  17.141 -0.1946  0.6143  0.0645
 7465TIP3    H243811   2.429   4.460  17.048 -0.2293 -0.3489 -1.0416
 7466TIP3   OH243812   5.629   0.926   2.587  0.1652 -0.4098 -0.6476
 7466TIP3    H143813   5.540   0.941   2.618  0.8882 -0.2526  1.5260
 7466TIP3    H243814   5.635   0.975   2.505 -1.1010  1.3636  0.2573
 7467TIP3   OH243815   2.810   5.135   3.850 -0.0040  0.6858  0.1592
 7467TIP3    H143816   2.852   5.211   3.888  2.6032 -1.1275  1.2063
 7467TIP3    H243817   2.742   5.110   3.913 -0.2609  1.5912  0.2462
 7468TIP3   OH243818   2.137   5.926   3.421  0.4118  0.0597 -0.1889
 7468TIP3    H143819   2.060   5.983   3.416  0.9017  0.6497 -1.7311
 7468TIP3    H243820   2.195   5.959   3.353  0.8237 -2.1374 -0.9759
 7469TIP3   OH243821   4.335   4.984   5.652  0.2629  0.3924  0.5635
 7469TIP3    H143822   4.319   5.002   5.559  0.0224  0.2370  0.5747
 7469TIP3    H243823   4.380   4.900   5.652 -0.0303  0.2338  0.6058
 7470TIP3   OH243824   0.267   3.217  12.023  1.0321 -0.2660  0.1994
 7470TIP3    H143825   0.271   3.144  11.962 -0.0017  0.1282 -0.3806
 7470TIP3    H243826   0.173   3.229  12.038  1.2136  0.6215  0.6651
 7471TIP3   OH243827   0.632   2.194  11.290  0.2257 -0.3721 -0.0808
 7471TIP3    H143828   0.619   2.228  11.379 -0.5492 -3.3537  1.0796
 7471TIP3    H243829   0.726   2.177  11.284  0.1848 -0.8323  0.4744
 7472TIP3   OH243830   5.040   0.989   4.866 -0.4480 -0.0397 -0.1454
 7472TIP3    H143831   5.111   0.950   4.917  0.1963 -0.9429 -1.6751
 7472TIP3    H243832   5.032   1.078   4.900  1.0679 -0.0973  0.4146
 7473TIP3   OH243833   3.311   2.155   2.406 -0.1667  0.0482 -0.0295
 7473TIP3    H143834   3.368   2.185   2.477  0.1418  1.3782 -0.8136
 7473TIP3    H243835   3.320   2.060   2.407  2.0899  0.2165 -0.1398
 7474TIP3   OH243836   1.080   0.245  12.030 -0.7268 -0.0679  0.3174
 7474TIP3    H143837   1.108   0.324  11.984  0.3659  0.5720  1.9583
 7474TIP3    H243838   1.008   0.210  11.977  0.0550  0.9267 -1.4914
 7475TIP3   OH243839   2.985   2.163  10.941  0.5103  0.8101 -0.3210
 7475TIP3    H143840   3.056   2.222  10.916 -0.6933  2.0191 -1.0265
 7475TIP3    H243841   3.002   2.144  11.033  1.2332  1.8479 -0.2102
 7476TIP3   OH243842   4.891   3.144  11.260  0.0793 -0.2767 -0.4230
 7476TIP3    H143843   4.978   3.184  11.265 -0.0359 -0.0170 -0.5101
 7476TIP3    H243844   4.906   3.063  11.211  0.2936 -0.2920 -0.3356
 7477TIP3   OH243845   3.977   6.435   3.884 -0.3119  0.0188  0.5537
 7477TIP3    H143846   4.011   6.524   3.890 -0.0426 -0.1244  1.3341
 7477TIP3    H243847   4.026   6.386   3.950 -0.7205 -0.6226  0.3949
 7478TIP3   OH243848   5.163   6.106  15.663  0.1902  0.0057 -0.3745
 7478TIP3    H143849   5.164   6.175  15.596 -2.3845 -0.8702 -1.4720
 7478TIP3    H243850   5.126   6.148  15.740 -1.2616 -0.0194 -1.0060
 7479TIP3   OH243851   6.125   4.266  14.725 -0.3064 -0.1595  0.0458
 7479TIP3    H143852   6.089   4.212  14.795 -1.3045 -1.4141 -1.3962
 7479TIP3    H243853   6.054   4.276  14.662  0.2572  1.7784 -0.3575
 7480TIP3   OH243854   3.527   4.940  15.597  0.3503 -0.0956  0.0073
 7480TIP3    H143855   3.618   4.969  15.605  0.7964 -1.0806 -1.2730
 7480TIP3    H243856   3.524   4.857  15.645 -0.6828  1.4083  2.7925
 7481TIP3   OH243857   6.049   1.302   6.088  1.4868  0.8673  0.4253
 7481TIP3    H143858   6.040   1.255   6.005  0.4377  1.8124 -0.0203
 7481TIP3    H243859   6.080   1.236   6.150  0.7581 -0.2250 -0.3404
 7482TIP3   OH243860   5.172   6.651  11.180  0.1273  0.0970  0.1418
 7482TIP3    H143861   5.113   6.576  11.171 -0.4069  0.4469  0.6724
 7482TIP3    H243862   5.145   6.711  11.110  1.4351 -0.7583 -1.1590
 7483TIP3   OH243863   2.444   0.066  16.632 -0.4756  0.6748 -0.2206
 7483TIP3    H143864   2.525   0.113  16.652 -0.4380  0.7497 -0.5449
 7483TIP3    H243865   2.374   0.121  16.667 -0.3582  0.3215  0.6012
 7484TIP3   OH243866   2.387   1.716   6.561  0.0937 -0.1926  0.0236
 7484TIP3    H143867   2.418   1.734   6.472  0.7686  2.2756  0.7042
 7484TIP3    H243868   2.386   1.620   6.566  0.8049 -0.3967 -2.3635
 7485TIP3   OH243869   0.978   6.132   2.881 -0.2813  0.1300  0.3401
 7485TIP3    H143870   0.913   6.083   2.830  0.9335 -0.1855 -0.9870
 7485TIP3    H243871   0.933   6.212   2.906 -1.5016 -0.5283  0.3378
 7486TIP3   OH243872   0.702   2.957   4.899 -0.5467 -0.2801 -0.3400
 7486TIP3    H143873   0.785   2.928   4.938  1.1357  0.9974 -2.6311
 7486TIP3    H243874   0.704   3.053   4.909 -0.3057  0.0411 -2.8060
 7487TIP3   OH243875   5.697   3.749  12.733 -0.6974 -0.6051 -0.4156
 7487TIP3    H143876   5.786   3.717  12.717  0.0712  1.4695 -0.5326
 7487TIP3    H243877   5.668   3.782  12.648 -1.1928 -0.3370 -0.1434
 7488TIP3   OH243878   3.130   2.611   5.316  0.1993 -0.3862 -0.1082
 7488TIP3    H143879   3.173   2.554   5.253 -2.0071 -2.2884 -0.0066
 7488TIP3    H243880   3.105   2.553   5.388 -1.8263  0.7367  0.1661
 7489TIP3   OH243881   2.940   2.321  11.449 -0.0271  0.2870 -0.4320
 7489TIP3    H143882   2.889   2.400  11.467 -0.1177  0.2671 -0.6060
 7489TIP3    H243883   2.878   2.259  11.412  0.2353  0.4555 -1.1678
 7490TIP3   OH243884   0.728   6.423  13.709 -0.1386  0.1290  0.5609
 7490TIP3    H143885   0.688   6.336  13.709 -1.1845  0.5950  0.7469
 7490TIP3    H243886   0.692   6.466  13.631  1.1940  0.0532 -0.1343
 7491TIP3   OH243887   4.813   4.659   2.100  0.1612 -0.3945  0.0866
 7491TIP3    H143888   4.740   4.601   2.121  0.9886 -1.4942  0.0049
 7491TIP3    H243889   4.891   4.610   2.126  0.9946 -0.1093 -1.7120
 7492TIP3   OH243890   5.512   2.730   1.494 -0.3574 -0.2585  0.6018
 7492TIP3    H143891   5.493   2.815   1.455 -0.9137 -0.3800  0.5986
 7492TIP3    H243892   5.585   2.695   1.442  0.8832  0.8411  1.5212
 7493TIP3   OH243893   2.852   4.687  12.037  0.0168  0.1360  0.0243
 7493TIP3    H143894   2.885   4.665  11.949 -0.9879 -1.5837  0.0347
 7493TIP3    H243895   2.879   4.778  12.050  0.7544  0.2336 -1.8002
 7494TIP3   OH243896   2.861   4.224  13.803 -0.0811 -0.5209 -0.4347
 7494TIP3    H143897   2.957   4.229  13.810 -0.2445  2.0131  1.3442
 7494TIP3    H243898   2.829   4.265  13.883 -2.6736 -0.1956 -1.5391
 7495TIP3   OH243899   0.999   1.987   2.194 -0.4759 -0.1872 -0.1347
 7495TIP3    H143900   1.073   2.004   2.136 -1.4202  0.5896 -1.1419
 7495TIP3    H243901   1.019   2.037   2.273  0.6325 -0.9404  0.0948
 7496TIP3   OH243902   6.199   0.486   4.620 -0.0172 -0.4592  0.4339
 7496TIP3    H143903   6.251   0.408   4.635  0.5826  0.0186  0.9057
 7496TIP3    H243904   6.165   0.476   4.531 -0.7705 -1.7060  0.8448
 7497TIP3   OH243905   5.081   2.012   2.127 -0.3507 -0.5821  0.4162
 7497TIP3    H143906   5.151   1.994   2.189 -0.3475 -1.2691  0.2126
 7497TIP3    H243907   5.032   1.931   2.122 -0.7156 -0.3368 -0.0223
 7498TIP3   OH243908   4.343   4.679  14.624  0.0901  0.4750  0.2346
 7498TIP3    H143909   4.295   4.597  14.611 -1.8319  1.8016 -1.9362
 7498TIP3    H243910   4.284   4.746  14.589  1.7784  2.7581  1.5080
 7499TIP3   OH243911   1.731   0.287  16.250 -0.0645 -0.0133 -0.2480
 7499TIP3    H143912   1.764   0.227  16.317 -1.1195  0.0938  0.3943
 7499TIP3    H243913   1.809   0.320  16.207  0.6045 -0.6317  0.4555
 7500TIP3   OH243914   6.767   5.522   4.810 -0.3122 -0.3983 -0.4302
 7500TIP3    H143915   6.699   5.570   4.763  1.4375  1.1970 -1.4742
 7500TIP3    H243916   6.830   5.498   4.743  1.3588  0.3346  0.8009
 7501TIP3   OH243917   3.281   1.005   2.733  0.2361  0.5476 -0.0862
 7501TIP3    H143918   3.368   1.040   2.751  1.4730 -1.7600 -1.2767
 7501TIP3    H243919   3.262   0.949   2.808  1.5478 -2.0393 -1.5804
 7502TIP3   OH243920   2.509   3.599   6.533 -0.5903 -0.5482 -0.0717
 7502TIP3    H143921   2.515   3.504   6.524  1.6622 -0.6082  1.2374
 7502TIP3    H243922   2.533   3.633   6.447  3.2418 -1.2157  0.5512
 7503TIP3   OH243923   1.763   4.233   6.031 -0.4292  0.1373 -0.3866
 7503TIP3    H143924   1.817   4.154   6.026  1.0409  1.1327 -1.1737
 7503TIP3    H243925   1.690   4.216   5.972  0.9424  0.0812 -2.1740
 7504TIP3   OH243926   3.351   3.748   0.959  0.1307  0.1516 -0.4932
 7504TIP3    H143927   3.328   3.819   0.899  0.7373  0.0999 -0.7881
 7504TIP3    H243928   3.444   3.732   0.944  0.5344  0.7607  1.0988
 7505TIP3   OH243929   5.219   1.051  13.142 -0.4496  0.5768 -0.3402
 7505TIP3    H143930   5.134   1.095  13.130 -0.5284  0.5230  0.0127
 7505TIP3    H243931   5.268   1.071  13.062 -0.7768  0.6524 -0.5223
 7506TIP3   OH243932   4.382   2.194  11.882 -0.5380 -0.1266  0.1923
 7506TIP3    H143933   4.354   2.109  11.913 -2.4983  0.6979  0.8243
 7506TIP3    H243934   4.321   2.216  11.812  0.0128  0.7007 -0.0517
 7507TIP3   OH243935   3.667   2.039   1.507  0.3311  0.0256  0.1771
 7507TIP3    H143936   3.694   2.096   1.435 -1.5202 -0.1599 -0.7124
 7507TIP3    H243937   3.646   2.099   1.578 -0.2161  0.3748 -0.2708
 7508TIP3   OH243938   2.010   1.117   2.121  0.0470 -0.3505  0.4210
 7508TIP3    H143939   1.941   1.057   2.150 -0.0616 -0.1406  0.5981
 7508TIP3    H243940   1.975   1.204   2.139 -0.7501 -0.1299 -1.8578
 7509TIP3   OH243941   5.522   6.625   2.415 -0.3285  0.6033  0.8829
 7509TIP3    H143942   5.507   6.542   2.370 -0.0911  1.2456 -0.4107
 7509TIP3    H243943   5.494   6.608   2.505 -0.8011 -0.7106  0.5164
 7510TIP3   OH243944   2.834   2.879  10.836  0.1032 -0.0046 -0.4099
 7510TIP3    H143945   2.809   2.938  10.765  0.9798  2.1904  0.9616
 7510TIP3    H243946   2.897   2.819  10.797 -0.1919  0.4940 -1.7011
 7511TIP3   OH243947   5.561   2.870   0.655  0.1853 -0.2651 -0.0384
 7511TIP3    H143948   5.656   2.882   0.663 -0.2331  2.2605  4.4999
 7511TIP3    H243949   5.533   2.942   0.598  0.7978  1.3291  1.5585
 7512TIP3   OH243950   1.180   5.845   4.300  0.2532 -0.6599  0.3338
 7512TIP3    H143951   1.102   5.797   4.325 -0.4676  1.3175  2.1356
 7512TIP3    H243952   1.148   5.930   4.272  1.7096 -0.1353  0.1784
 7513TIP3   OH243953   1.027   2.463  12.296 -0.6519  0.3171 -0.8717
 7513TIP3    H143954   0.963   2.398  12.324 -0.3861  0.5000  0.1929
 7513TIP3    H243955   0.981   2.515  12.230 -1.4092  0.0897 -0.5310
 7514TIP3   OH243956   5.557   2.240   3.781 -0.9069  0.2128 -0.0285
 7514TIP3    H143957   5.488   2.182   3.813 -1.4458  0.2109 -1.1637
 7514TIP3    H243958   5.563   2.309   3.848 -1.2003 -0.4118  0.6496
 7515TIP3   OH243959   1.015   5.527  12.648 -0.7416 -0.0527 -0.5967
 7515TIP3    H143960   0.987   5.439  12.621 -1.3641 -0.6767  1.8608
 7515TIP3    H243961   0.945   5.558  12.704  0.4525  1.1303  0.2945
 7516TIP3   OH243962   3.164   1.811  11.501 -0.0218 -0.4745 -0.0026
 7516TIP3    H143963   3.106   1.885  11.518  2.2972  1.2690  0.8247
 7516TIP3    H243964   3.124   1.766  11.426 -1.4380  1.7167 -0.6579
 7517TIP3   OH243965   4.907   3.602   5.666 -0.1264 -0.4527  0.3490
 7517TIP3    H143966   4.871   3.593   5.754 -1.3600 -2.2273 -0.2776
 7517TIP3    H243967   4.967   3.528   5.657 -0.8306 -0.9140 -0.6654
 7518TIP3   OH243968   6.533   5.786  16.507 -0.7435 -0.2202 -0.1936
 7518TIP3    H143969   6.578   5.803  16.590 -0.7398 -3.1007  0.4875
 7518TIP3    H243970   6.442   5.773  16.532 -0.7215 -1.2288 -0.6180
 7519TIP3   OH243971   3.677   5.424  11.631 -0.6097 -0.1601 -0.3973
 7519TIP3    H143972   3.637   5.499  11.587  1.4058  0.1101 -1.8894
 7519TIP3    H243973   3.628   5.417  11.713 -1.9826  1.7069 -0.9654
 7520TIP3   OH243974   0.745   3.603  16.201  0.5477  0.7763 -0.4080
 7520TIP3    H143975   0.808   3.537  16.229  0.9975  1.3158 -0.1259
 7520TIP3    H243976   0.683   3.556  16.146  0.6897  0.0573  0.0346
 7521TIP3   OH243977   5.726   0.878  13.088  0.0789  0.1206 -0.3627
 7521TIP3    H143978   5.736   0.843  13.177  0.8484  0.7508 -0.1852
 7521TIP3    H243979   5.788   0.829  13.035 -0.0970  0.0169 -0.4741
 7522TIP3   OH243980   2.398   3.490   1.176 -0.8338  0.5974 -0.2013
 7522TIP3    H143981   2.342   3.464   1.250  0.0582  0.8168  0.5686
 7522TIP3    H243982   2.487   3.477   1.208 -0.3850  2.6073 -0.5049
 7523TIP3   OH243983   4.976   6.758  12.395 -0.4195 -0.1464 -0.4569
 7523TIP3    H143984   4.983   6.812  12.474  0.4725 -1.2574  0.2490
 7523TIP3    H243985   4.906   6.696  12.415  0.7295 -1.3156  0.0301
 7524TIP3   OH243986   4.376   0.699  15.225 -1.0160  0.2142  0.5637
 7524TIP3    H143987   4.443   0.684  15.292 -1.0464  0.6729  0.6986
 7524TIP3    H243988   4.295   0.667  15.264 -0.4714 -3.0344 -0.6408
 7525TIP3   OH243989   6.598   0.637   1.567 -0.2279  0.0724  0.2019
 7525TIP3    H143990   6.630   0.551   1.596 -1.8348 -0.0573  1.8030
 7525TIP3    H243991   6.677   0.688   1.549  0.7861 -1.9845 -1.7125
 7526TIP3   OH243992   1.278   0.498   2.498 -0.0510 -0.1173  0.5040
 7526TIP3    H143993   1.297   0.519   2.406 -0.1961  2.1734  0.9245
 7526TIP3    H243994   1.347   0.543   2.547 -0.7498 -0.1865  1.5670
 7527TIP3   OH243995   3.798   0.229   0.962  0.3110 -0.0671 -0.4917
 7527TIP3    H143996   3.788   0.135   0.979  1.2532  0.1084  1.2943
 7527TIP3    H243997   3.715   0.255   0.923 -1.1991 -1.0601  1.8633
 7528TIP3   OH243998   3.779   3.183  14.101 -0.1075 -0.0644 -0.3385
 7528TIP3    H143999   3.750   3.093  14.086  1.0228 -0.3580 -0.8677
 7528TIP3    H244000   3.745   3.232  14.027 -0.7639 -0.0454 -0.0268
 7529TIP3   OH244001   5.879   5.402   0.855  0.8556 -0.1677 -0.2937
 7529TIP3    H144002   5.806   5.462   0.872  1.2179 -0.5073  3.4102
 7529TIP3    H244003   5.883   5.395   0.760 -2.0820  2.0985 -0.7394
 7530TIP3   OH244004   1.278   5.311  15.802  0.2501  0.3495  0.0364
 7530TIP3    H144005   1.315   5.270  15.724 -1.8206  0.7814 -1.2694
 7530TIP3    H244006   1.184   5.293  15.795  0.1288 -0.6257  3.0919
 7531TIP3   OH244007   2.442   6.059   3.190  0.2627  0.1080  0.4729
 7531TIP3    H144008   2.363   6.083   3.239  0.6766  2.0863  0.2218
 7531TIP3    H244009   2.511   6.056   3.255  0.5048  1.1466  0.2728
 7532TIP3   OH244010   1.930   2.800  15.249 -0.0266 -0.2400  0.2300
 7532TIP3    H144011   1.866   2.747  15.201  2.8064 -1.6479 -2.3540
 7532TIP3    H244012   1.955   2.869  15.187  0.1187  1.0088  1.6323
 7533TIP3   OH244013   5.823   1.781  11.857 -0.3167  0.3479  0.8760
 7533TIP3    H144014   5.766   1.809  11.786  1.3655  1.0645 -0.2510
 7533TIP3    H244015   5.870   1.704  11.822 -0.1024  0.1738  1.5249
 7534TIP3   OH244016   6.305   1.414   2.848 -0.2347 -0.1538 -0.4877
 7534TIP3    H144017   6.256   1.362   2.785  0.2836 -1.3262  0.0582
 7534TIP3    H244018   6.239   1.471   2.888 -0.7591 -0.1813 -1.2965
 7535TIP3   OH244019   5.977   1.478   4.891 -0.3691  0.0996 -0.7636
 7535TIP3    H144020   5.887   1.510   4.895 -0.4875 -0.2824 -0.2813
 7535TIP3    H244021   6.026   1.547   4.846 -0.7764  0.5890 -0.4595
 7536TIP3   OH244022   0.548   3.667  12.382 -0.0635  0.6371  0.6126
 7536TIP3    H144023   0.461   3.654  12.420 -0.6825 -0.3805 -1.0325
 7536TIP3    H244024   0.596   3.715  12.449 -2.7804  4.0668  0.4005
 7537TIP3   OH244025   3.744   3.379  13.866 -0.0242  0.3307  0.5236
 7537TIP3    H144026   3.716   3.440  13.798  0.1872 -0.1626 -0.0136
 7537TIP3    H244027   3.839   3.389  13.870 -0.1053  0.8990  1.2786
 7538TIP3   OH244028   2.374   0.858   1.861  0.2704  0.1687  0.4000
 7538TIP3    H144029   2.295   0.812   1.832  0.2180 -0.0372  0.8649
 7538TIP3    H244030   2.383   0.931   1.800  0.9472 -1.0558 -1.0391
 7539TIP3   OH244031   4.775   2.766   0.639  0.2160 -0.3357 -0.2480
 7539TIP3    H144032   4.694   2.768   0.589  0.4142 -1.3465 -0.6259
 7539TIP3    H244033   4.765   2.836   0.704 -0.6351  0.0386 -0.7716
 7540TIP3   OH244034   1.159   4.951  14.502  0.1548 -0.6025  0.6386
 7540TIP3    H144035   1.094   4.968  14.571 -1.3516 -2.9451 -0.0526
 7540TIP3    H244036   1.123   4.876  14.454  3.0553 -1.5436 -0.2743
 7541TIP3   OH244037   2.117   2.904   5.644 -0.2229 -0.2415  0.0978
 7541TIP3    H144038   2.128   2.898   5.738  1.2202 -0.2920 -0.0571
 7541TIP3    H244039   2.205   2.902   5.608 -0.5977  1.6449 -1.1482
 7542TIP3   OH244040   3.151   0.305  15.407  0.1395 -0.3864 -0.1279
 7542TIP3    H144041   3.167   0.370  15.475  0.1812  0.1985 -0.6818
 7542TIP3    H244042   3.086   0.245  15.445  1.9562 -1.5235  1.3362
 7543TIP3   OH244043   1.390   5.536  15.519  1.0025 -0.3882  0.2418
 7543TIP3    H144044   1.465   5.477  15.530  0.5596 -1.1856 -0.8335
 7543TIP3    H244045   1.314   5.479  15.518  0.5998  0.1271 -1.3306
 7544TIP3   OH244046   6.615   6.656  15.809 -0.0375 -0.1958  0.0223
 7544TIP3    H144047   6.619   6.560  15.806  0.1736 -0.1867  0.0112
 7544TIP3    H244048   6.691   6.685  15.759  0.1361 -0.0239  0.3741
 7545TIP3   OH244049   1.799   4.921  16.954 -0.0467  0.3205  0.4750
 7545TIP3    H144050   1.782   4.846  16.897 -0.4010  0.5322  0.3032
 7545TIP3    H244051   1.894   4.920  16.966  0.4019  1.6539 -2.0660
 7546TIP3   OH244052   4.527   4.106   3.469 -0.1527  0.2836  0.0722
 7546TIP3    H144053   4.555   4.023   3.507 -2.1803 -0.2599  0.4921
 7546TIP3    H244054   4.556   4.101   3.378  0.4215 -0.5380  0.2882
 7547TIP3   OH244055   3.954   2.451  13.540 -0.2105  0.1375  0.1929
 7547TIP3    H144056   3.932   2.359  13.525 -0.6530  0.0476  1.3172
 7547TIP3    H244057   3.960   2.489  13.452 -0.0376 -0.9596 -0.2800
 7548TIP3   OH244058   6.178   5.238   1.844 -0.0914 -0.1165  0.3439
 7548TIP3    H144059   6.199   5.270   1.756 -0.9898 -1.6034 -0.4436
 7548TIP3    H244060   6.263   5.217   1.882  0.2862  0.2554 -0.2748
 7549TIP3   OH244061   3.995   2.572   3.933  0.2601 -0.2183  0.2604
 7549TIP3    H144062   4.065   2.613   3.882 -0.5425  0.4251 -0.3557
 7549TIP3    H244063   3.915   2.590   3.883 -0.5528  0.4190  1.7322
 7550TIP3   OH244064   0.277   1.354  16.532 -0.2209  0.3907  0.3718
 7550TIP3    H144065   0.310   1.275  16.489  0.4977  1.4350 -1.0876
 7550TIP3    H244066   0.183   1.341  16.538  0.1391 -1.8559  2.9110
 7551TIP3   OH244067   4.498   3.304  15.751  0.3209  0.3979 -0.0927
 7551TIP3    H144068   4.488   3.372  15.684 -0.0705  0.5187  0.0919
 7551TIP3    H244069   4.523   3.225  15.701 -1.3551  0.1191 -0.5495
 7552TIP3   OH244070   5.562   1.667   6.632 -0.0884 -0.1429  0.1410
 7552TIP3    H144071   5.605   1.619   6.561 -0.4999 -1.5475  0.7977
 7552TIP3    H244072   5.626   1.667   6.703  0.0078  0.5247  0.0559
 7553TIP3   OH244073   4.967   3.508   1.432 -0.2974 -0.2485  0.1590
 7553TIP3    H144074   4.987   3.433   1.377  0.0844  0.1076 -0.1989
 7553TIP3    H244075   4.948   3.471   1.518  2.7459 -0.5904  0.7863
 7554TIP3   OH244076   0.202   4.578  11.731  0.2917  0.1767 -0.0087
 7554TIP3    H144077   0.207   4.484  11.748  0.2387  0.1890  0.0748
 7554TIP3    H244078   0.109   4.596  11.724  0.3380 -0.0397 -1.4994
 7555TIP3   OH244079   3.301   0.239  11.406 -0.6608  0.4287  0.3107
 7555TIP3    H144080   3.264   0.261  11.321 -0.3727 -0.7677 -0.1349
 7555TIP3    H244081   3.338   0.152  11.395  1.7866  1.2925  0.8699
 7556TIP3   OH244082   4.509   6.398   4.885 -0.3831  0.3921  0.7997
 7556TIP3    H144083   4.420   6.420   4.909 -0.7209  3.8548 -2.5625
 7556TIP3    H244084   4.504   6.308   4.853 -3.2219  1.0587 -1.0122
 7557TIP3   OH244085   0.123   4.093  11.963 -0.6776  0.1178 -0.2043
 7557TIP3    H144086   0.070   4.027  11.918  0.3054 -1.2959  0.6267
 7557TIP3    H244087   0.212   4.078  11.930 -0.4519  1.0900 -0.0607
 7558TIP3   OH244088   2.189   4.460   5.053  0.4626 -0.2734 -0.2307
 7558TIP3    H144089   2.171   4.552   5.072 -1.4533 -0.6541 -0.0383
 7558TIP3    H244090   2.262   4.462   4.991  1.0412  1.3227  0.4448
 7559TIP3   OH244091   3.801   5.113   5.437 -0.0746  0.3432 -0.3437
 7559TIP3    H144092   3.776   5.203   5.457  0.0700  0.1924  0.5692
 7559TIP3    H244093   3.736   5.084   5.373  0.3948  1.3705 -1.3266
 7560TIP3   OH244094   4.743   5.696   2.555 -0.5609  0.8004 -1.1795
 7560TIP3    H144095   4.796   5.755   2.501  0.5708  1.8229  0.9363
 7560TIP3    H244096   4.746   5.613   2.509  2.8065  0.8427 -1.3058
 7561TIP3   OH244097   2.757   1.269  14.684  0.1203  0.0808 -0.2214
 7561TIP3    H144098   2.746   1.307  14.597 -0.8182  0.1705 -0.0792
 7561TIP3    H244099   2.671   1.234  14.706  0.3735 -0.0495  0.6195
 7562TIP3   OH244100   5.817   5.628  14.597  0.1484  0.1929 -0.2648
 7562TIP3    H144101   5.907   5.617  14.567  0.9963 -0.0536  2.1915
 7562TIP3    H244102   5.823   5.683  14.674 -1.8151  0.1757 -0.0387
 7563TIP3   OH244103   4.399   4.913  12.046 -0.1980 -0.1950  0.4203
 7563TIP3    H144104   4.494   4.903  12.035  0.1732  2.2275  0.6775
 7563TIP3    H244105   4.387   4.929  12.140 -0.9030 -0.7378  0.4316
 7564TIP3   OH244106   6.395   4.681   0.198 -0.0009  0.0532 -0.6985
 7564TIP3    H144107   6.324   4.617   0.189 -1.6364  1.3201  2.1289
 7564TIP3    H244108   6.361   4.748   0.257  2.7877  1.9200 -1.0033
 7565TIP3   OH244109   0.777   3.404   0.638  0.4009  0.2322 -0.1463
 7565TIP3    H144110   0.731   3.388   0.720  1.9483 -0.8930  0.5412
 7565TIP3    H244111   0.773   3.499   0.627 -2.1969  0.1836 -0.2386
 7566TIP3   OH244112   5.904   3.835  16.485 -0.2596 -0.6645  0.5148
 7566TIP3    H144113   5.909   3.761  16.545 -2.4070 -1.3158 -0.0247
 7566TIP3    H244114   5.811   3.856  16.480  0.2758  2.1666  0.7060
 7567TIP3   OH244115   1.122   4.913   0.342 -0.0050  0.1505 -0.0224
 7567TIP3    H144116   1.122   4.940   0.434 -1.8604  0.1000  0.0375
 7567TIP3    H244117   1.188   4.969   0.301  0.2964  0.7313  1.1858
 7568TIP3   OH244118   0.544   2.708  14.624 -0.1790 -0.0607  0.3330
 7568TIP3    H144119   0.537   2.630  14.568  0.5229  1.2562 -1.6918
 7568TIP3    H244120   0.606   2.683  14.692  0.0425 -1.2599 -0.2758
 7569TIP3   OH244121   2.683   3.485   0.920  0.1824  0.6154 -0.0532
 7569TIP3    H144122   2.711   3.445   1.002 -0.8941 -0.1712 -0.0508
 7569TIP3    H244123   2.629   3.559   0.946  0.0676  0.5331 -0.0602
 7570TIP3   OH244124   4.784   4.099  16.013  0.5953  0.0651  0.0800
 7570TIP3    H144125   4.817   4.155  16.083  0.0336  1.0313 -0.4055
 7570TIP3    H244126   4.784   4.011  16.051  0.2470  0.5698  1.3176
 7571TIP3   OH244127   3.789   5.296  11.374  0.1078 -0.0760 -0.1021
 7571TIP3    H144128   3.884   5.305  11.373  0.0192  1.0325 -0.5051
 7571TIP3    H244129   3.764   5.315  11.464  0.1301  1.6969 -0.4251
 7572TIP3   OH244130   6.711   1.048  12.821 -0.6458 -0.6146  0.0558
 7572TIP3    H144131   6.653   0.980  12.856 -0.3445 -0.4586  0.8820
 7572TIP3    H244132   6.671   1.073  12.738 -0.2834 -2.4363 -0.7050
 7573TIP3   OH244133   5.517   2.557   5.324 -0.2264  0.7035  0.5762
 7573TIP3    H144134   5.477   2.516   5.247  1.2095 -2.0372  1.1591
 7573TIP3    H244135   5.455   2.542   5.395  0.2332 -0.4207  0.7584
 7574TIP3   OH244136   3.320   2.828   0.138 -0.6452  0.2571 -0.2535
 7574TIP3    H144137   3.405   2.871   0.146 -0.0353 -1.0215  0.4816
 7574TIP3    H244138   3.271   2.857   0.214 -1.3720  1.9721 -1.3069
 7575TIP3   OH244139   3.439   3.801  12.103 -0.2239 -0.2418 -0.0172
 7575TIP3    H144140   3.433   3.837  12.191  0.9811  0.4688 -0.2120
 7575TIP3    H244141   3.470   3.711  12.115  0.0352 -0.1110  0.2786
 7576TIP3   OH244142   1.045   3.437  13.910  0.3076 -0.3981 -0.5079
 7576TIP3    H144143   1.098   3.393  13.977  1.5007 -0.0439 -1.1874
 7576TIP3    H244144   1.108   3.486  13.858 -0.6183 -0.4732 -1.7559
 7577TIP3   OH244145   1.863   6.665   6.092  0.0977 -0.2469  0.3192
 7577TIP3    H144146   1.795   6.673   6.158  1.6137 -0.3640  1.9549
 7577TIP3    H244147   1.874   6.754   6.058 -0.8452 -0.2313  0.0190
 7578TIP3   OH244148   5.604   2.926  13.924 -0.1030  0.6818 -0.0180
 7578TIP3    H144149   5.616   3.021  13.918  1.3721  0.5340  0.0332
 7578TIP3    H244150   5.523   2.914  13.972 -0.3165  1.9216 -0.0459
 7579TIP3   OH244151   3.937   3.672  13.697  0.0774  0.2561  0.2959
 7579TIP3    H144152   4.003   3.620  13.744 -1.1182  0.8234  2.7277
 7579TIP3    H244153   3.873   3.696  13.764 -2.4558  0.0454 -1.8914
 7580TIP3   OH244154   6.167   3.498  16.903  0.3733  0.3121 -0.4891
 7580TIP3    H144155   6.211   3.417  16.930  2.0414  1.5475  0.7034
 7580TIP3    H244156   6.147   3.485  16.811  1.5949 -1.0521 -0.5885
 7581TIP3   OH244157   2.571   5.843   3.528  0.6478 -0.0968  0.2560
 7581TIP3    H144158   2.610   5.852   3.441 -0.8548  1.0606 -0.3596
 7581TIP3    H244159   2.540   5.931   3.549 -1.3829 -0.8743  0.7633
 7582TIP3   OH244160   3.181   1.840   2.750  0.4483  0.5441  0.1307
 7582TIP3    H144161   3.094   1.800   2.752  1.1406 -1.0534 -0.2545
 7582TIP3    H244162   3.239   1.774   2.789  1.2570  2.2976  2.1144
 7583TIP3   OH244163   0.005   5.384  11.208  0.2549 -0.4574  0.5967
 7583TIP3    H144164  -0.002   5.418  11.119 -2.9908  0.7698  1.1832
 7583TIP3    H244165  -0.065   5.319  11.215  0.1855 -0.2547  2.3500
 7584TIP3   OH244166   6.264   6.496   2.542  0.3992 -0.4269  0.2103
 7584TIP3    H144167   6.245   6.567   2.604  0.6427  0.6717 -0.9149
 7584TIP3    H244168   6.188   6.495   2.483  1.2406  0.2201 -0.9311
 7585TIP3   OH244169   1.380   3.025   2.673  0.4350 -0.4745  0.0558
 7585TIP3    H144170   1.430   3.060   2.748 -0.8266  0.7133  0.3782
 7585TIP3    H244171   1.355   2.937   2.701 -0.2411  0.0438  1.1690
 7586TIP3   OH244172   0.110   1.038   5.816  0.2170 -0.0756 -0.1625
 7586TIP3    H144173   0.126   1.083   5.733  1.9457  1.8012  1.1042
 7586TIP3    H244174   0.022   1.066   5.842 -0.0121 -0.0316 -0.9738
 7587TIP3   OH244175   5.314   2.803  13.102  0.1951  0.1405 -0.1254
 7587TIP3    H144176   5.385   2.740  13.114  1.1827  1.0008 -1.1019
 7587TIP3    H244177   5.357   2.879  13.062 -1.3053  0.6413 -0.8630
 7588TIP3   OH244178   6.586   0.320   5.611 -0.1279  0.1861 -0.4269
 7588TIP3    H144179   6.642   0.388   5.648  0.0996  0.1466 -0.6978
 7588TIP3    H244180   6.585   0.338   5.517 -0.2289 -0.0649 -0.4747
 7589TIP3   OH244181   0.136   5.899   4.043  0.5821  0.4946  0.1985
 7589TIP3    H144182   0.167   5.956   3.973 -0.0284  0.2597 -0.2710
 7589TIP3    H244183   0.060   5.855   4.006 -0.9943  1.8367  1.6579
 7590TIP3   OH244184   1.632   2.690   5.486  0.0369 -0.4657 -0.4103
 7590TIP3    H144185   1.647   2.614   5.429  0.2504 -0.3125 -0.5583
 7590TIP3    H244186   1.720   2.719   5.511  0.0886  1.2070 -2.2915
 7591TIP3   OH244187   6.778   0.856   2.537 -0.7632 -0.1383  0.4101
 7591TIP3    H144188   6.826   0.824   2.460 -1.5782 -0.9439  0.2281
 7591TIP3    H244189   6.775   0.951   2.525 -0.0041 -0.1636 -0.0383
 7592TIP3   OH244190   3.186   5.874   1.883  0.5495 -0.3643 -0.0588
 7592TIP3    H144191   3.195   5.797   1.827 -1.3895 -0.6843 -0.0060
 7592TIP3    H244192   3.166   5.838   1.970  0.7008  0.1816  0.2065
 7593TIP3   OH244193   6.440   2.387   2.149 -0.1604  0.0528  0.2790
 7593TIP3    H144194   6.438   2.454   2.218  1.5020  1.1974 -0.7204
 7593TIP3    H244195   6.387   2.315   2.184 -2.1207  1.8993  1.3667
 7594TIP3   OH244196   4.863   3.360   0.851 -0.4938  0.1987 -0.6779
 7594TIP3    H144197   4.919   3.285   0.869 -1.4516 -0.2649  0.4550
 7594TIP3    H244198   4.779   3.339   0.892 -0.8633  1.7790 -0.5318
 7595TIP3   OH244199   5.495   2.046   1.673 -0.0246  0.6164 -0.1111
 7595TIP3    H144200   5.543   2.121   1.709 -0.0018 -0.0133  1.2595
 7595TIP3    H244201   5.520   1.973   1.730 -0.8013 -0.2264 -0.8222
 7596TIP3   OH244202   5.786   3.236  17.039  0.6450  0.2795 -0.3380
 7596TIP3    H144203   5.706   3.191  17.065 -1.1132  0.9090 -4.0730
 7596TIP3    H244204   5.852   3.167  17.030 -1.2054 -1.2778 -3.1584
 7597TIP3   OH244205   4.938   0.858  14.949  0.4363 -0.0127  0.1832
 7597TIP3    H144206   4.947   0.942  14.994 -0.6565  0.9459 -1.3064
 7597TIP3    H244207   5.026   0.840  14.915  0.6537  0.6078  0.3987
 7598TIP3   OH244208   4.185   4.909   5.937 -0.1426  0.3235  0.8191
 7598TIP3    H144209   4.208   5.001   5.942 -0.7892  0.6746 -1.3207
 7598TIP3    H244210   4.152   4.898   5.847 -2.1250 -1.5092  1.6768
 7599TIP3   OH244211   0.449   5.887   5.752  0.2103  0.0359  0.0776
 7599TIP3    H144212   0.522   5.895   5.814 -0.9156  0.9192  1.3383
 7599TIP3    H244213   0.431   5.977   5.724  0.2491 -0.2795 -1.0424
 7600TIP3   OH244214   1.665   5.276   1.211  0.6434  0.1110  0.8468
 7600TIP3    H144215   1.658   5.291   1.116  1.0934  2.3276  1.1147
 7600TIP3    H244216   1.594   5.327   1.249  0.8504 -0.2536  1.7444
 7601TIP3   OH244217   3.701   5.600   2.451 -0.5336  0.1798 -0.6056
 7601TIP3    H144218   3.659   5.560   2.375 -1.4381 -0.8370  0.3907
 7601TIP3    H244219   3.738   5.526   2.499  1.2473  0.9312 -0.7432
 7602TIP3   OH244220   6.320   1.773  17.125 -0.0793 -0.5372  0.0192
 7602TIP3    H144221   6.407   1.807  17.148  0.5969 -1.2272 -1.3818
 7602TIP3    H244222   6.309   1.795  17.032 -1.9623  0.6523  0.4720
 7603TIP3   OH244223   0.143   5.406  14.777  0.0132 -0.1947  0.3499
 7603TIP3    H144224   0.131   5.326  14.726  0.6453 -0.8024  1.1255
 7603TIP3    H244225   0.059   5.452  14.769 -0.2366 -0.7452 -0.4036
 7604TIP3   OH244226   1.973   0.545  15.307 -0.6043  0.1250 -0.1772
 7604TIP3    H144227   1.962   0.614  15.372 -0.2585 -0.6982  0.7824
 7604TIP3    H244228   2.033   0.582  15.242 -0.0792  0.5794  0.5542
 7605TIP3   OH244229   6.237   1.885   4.136 -0.0579  0.0554 -0.5520
 7605TIP3    H144230   6.200   1.829   4.204  2.2438  0.7064  1.3710
 7605TIP3    H244231   6.209   1.974   4.159  2.3070  0.5352  0.8305
 7606TIP3   OH244232   2.131   1.779  15.962 -0.4771 -0.4340 -0.3470
 7606TIP3    H144233   2.143   1.693  15.921  0.3615 -1.2689  1.5180
 7606TIP3    H244234   2.107   1.758  16.053  1.7166  1.2475  0.7086
 7607TIP3   OH244235   1.359   2.660  11.923  0.2459  0.7110 -0.0196
 7607TIP3    H144236   1.297   2.683  11.853 -0.1407 -2.0140 -0.6788
 7607TIP3    H244237   1.321   2.582  11.963  0.7685  1.8385  2.9223
 7608TIP3   OH244238   0.916   1.250  12.047  0.7673  0.3640  0.2687
 7608TIP3    H144239   0.825   1.229  12.028  0.7533 -1.0171  1.7058
 7608TIP3    H244240   0.918   1.346  12.054 -0.4426  0.4440 -0.2829
 7609TIP3   OH244241   3.408   5.303  14.631  0.0827 -0.3374 -0.1045
 7609TIP3    H144242   3.367   5.376  14.678  2.3414 -0.0159  1.5382
 7609TIP3    H244243   3.351   5.229  14.649 -0.6142  0.3906  0.8402
 7610TIP3   OH244244   5.466   3.013  14.715 -0.5841  0.2409 -0.1824
 7610TIP3    H144245   5.447   2.923  14.740 -1.3672  0.8812  1.7109
 7610TIP3    H244246   5.434   3.065  14.788  0.8123  1.9879 -0.7514
 7611TIP3   OH244247   6.506   3.712  15.629  0.1134 -0.2622 -0.0279
 7611TIP3    H144248   6.440   3.699  15.698  2.3096 -0.4510  2.1680
 7611TIP3    H244249   6.554   3.790  15.656  0.3811  0.3015 -1.9757
 7612TIP3   OH244250   3.506   5.793  16.655 -0.0987 -0.0438  0.0369
 7612TIP3    H144251   3.494   5.707  16.614  1.1750  0.7722 -2.2623
 7612TIP3    H244252   3.423   5.839  16.639 -0.2551 -0.3612 -0.0655
 7613TIP3   OH244253   1.763   5.341  16.303 -0.4609 -0.1307  0.3822
 7613TIP3    H144254   1.800   5.341  16.215 -0.0074 -1.0124  0.5638
 7613TIP3    H244255   1.673   5.311  16.292 -0.4831  0.0084  0.1890
 7614TIP3   OH244256   2.113   5.357  16.170 -0.0931  0.0662 -0.2369
 7614TIP3    H144257   2.061   5.435  16.190 -0.3876 -0.5302  1.5323
 7614TIP3    H244258   2.202   5.390  16.156 -0.5999  0.9226 -1.6809
 7615TIP3   OH244259   2.502   2.292   1.682  0.2294 -0.3956  0.4726
 7615TIP3    H144260   2.570   2.265   1.743  0.0740  0.3984  1.0199
 7615TIP3    H244261   2.422   2.291   1.734  0.1234  0.4500  0.3473
 7616TIP3   OH244262   0.032   4.846  11.877  0.7064  0.8544 -0.0900
 7616TIP3    H144263   0.014   4.752  11.889 -1.3254  1.2853  0.6126
 7616TIP3    H244264   0.074   4.872  11.959  1.9224  0.4498 -0.5576
 7617TIP3   OH244265   1.541   5.635  17.061  0.4953 -0.0151 -0.2517
 7617TIP3    H144266   1.492   5.625  17.143 -1.0264 -1.0329 -1.2338
 7617TIP3    H244267   1.538   5.729  17.044  0.7293  0.1960  0.7964
 7618TIP3   OH244268   2.270   3.359   0.980 -0.2135  0.2714  0.1824
 7618TIP3    H144269   2.265   3.265   0.994 -1.5657  0.3237  0.2363
 7618TIP3    H244270   2.337   3.390   1.041  1.6392 -0.8685 -1.1592
 7619TIP3   OH244271   5.307   0.644  15.027  0.2098 -0.2290 -0.0221
 7619TIP3    H144272   5.314   0.550  15.044  1.3713  0.2996  2.9560
 7619TIP3    H244273   5.388   0.667  14.983 -0.9155 -0.8645 -2.6088
 7620TIP3   OH244274   3.822   2.773   0.156 -0.5115  0.6270  0.0051
 7620TIP3    H144275   3.759   2.710   0.121 -0.3758  0.1742  0.5617
 7620TIP3    H244276   3.905   2.749   0.114 -0.3370  0.0472  0.6739
 7621TIP3   OH244277   3.253   1.663  16.604 -0.0047 -0.1379 -0.2039
 7621TIP3    H144278   3.238   1.572  16.632  0.8284 -0.7220 -1.5150
 7621TIP3    H244279   3.317   1.655  16.533 -1.2491  1.3172 -1.5605
 7622TIP3   OH244280   5.317   4.529  15.921  0.0711  0.2239  0.3405
 7622TIP3    H144281   5.259   4.589  15.874 -1.3329 -0.6114  0.9475
 7622TIP3    H244282   5.282   4.442  15.901  0.9699 -0.2896  0.9389
 7623TIP3   OH244283   6.569   2.317  17.080  0.3124 -0.1599 -0.2208
 7623TIP3    H144284   6.506   2.268  17.028 -0.4489 -1.3437  1.7196
 7623TIP3    H244285   6.516   2.375  17.134  0.8857 -0.7960  1.0633
 7624TIP3   OH244286   4.712   2.778   1.129 -0.2656 -0.1758  0.0688
 7624TIP3    H144287   4.633   2.822   1.160 -0.1909  0.4788 -0.6492
 7624TIP3    H244288   4.720   2.701   1.185 -1.8205 -0.6493 -0.3070
 7625TIP3   OH244289   3.965   4.076   0.037  1.0217 -0.5460 -0.3188
 7625TIP3    H144290   3.917   4.071  -0.046  0.6457 -0.8775 -0.0847
 7625TIP3    H244291   3.949   4.165   0.068 -0.8612 -1.1487  0.5893
 7626TIP3   OH244292   4.125   6.770  17.255  0.2161 -0.0469 -0.0141
 7626TIP3    H144293   4.105   6.697  17.315  1.2647 -0.0812  0.3022
 7626TIP3    H244294   4.166   6.729  17.179 -2.5389 -0.2058 -1.5637
 7627TIP3   OH244295   1.267   3.626  14.460  0.2271  0.6669  0.3670
 7627TIP3    H144296   1.315   3.624  14.542  0.2447 -1.5243  0.3590
 7627TIP3    H244297   1.194   3.687  14.475 -1.7057 -2.0432  3.1925
 7628TIP3   OH244298   3.702   5.826  12.789  0.3475  0.0726  0.6361
 7628TIP3    H144299   3.660   5.849  12.872  1.6288 -0.2320  1.3980
 7628TIP3    H244300   3.638   5.851  12.722 -0.5984  0.5795  1.6922
 7629TIP3   OH244301   4.529   3.589   2.318  0.7445  0.4951 -0.0560
 7629TIP3    H144302   4.547   3.524   2.385 -0.3143  0.1828 -0.0553
 7629TIP3    H244303   4.611   3.598   2.270  0.7762 -1.2063 -0.3801
 7630TIP3   OH244304   1.083   5.639  10.385  0.6147  0.4419  0.7052
 7630TIP3    H144305   1.092   5.595  10.470 -0.7265 -0.9939  0.1541
 7630TIP3    H244306   1.155   5.604  10.333 -0.6813 -1.5533  0.1379
 7631TIP3   OH244307   2.035   2.462  13.318  0.0624 -0.4408  0.2381
 7631TIP3    H144308   2.028   2.539  13.375  1.1096  0.3341 -0.6406
 7631TIP3    H244309   1.974   2.479  13.246 -0.2065 -0.7570  0.3887
 7632TIP3   OH244310   1.599   1.302   0.659 -0.5900 -0.1168 -0.0788
 7632TIP3    H144311   1.556   1.273   0.740 -0.3556 -1.2463 -0.3397
 7632TIP3    H244312   1.630   1.221   0.618  0.1351  0.5226 -0.8295
 7633TIP3   OH244313   1.036   5.133  13.747  0.2440  0.2464 -0.1377
 7633TIP3    H144314   0.990   5.217  13.743  0.0757  0.1839  0.5271
 7633TIP3    H244315   1.046   5.115  13.840 -1.3835 -1.3835 -0.2393
 7634TIP3   OH244316   1.697   1.473  15.894  0.4421 -0.6319 -0.4928
 7634TIP3    H144317   1.765   1.518  15.844  0.4192  0.3403  0.2959
 7634TIP3    H244318   1.737   1.391  15.921  1.7704  0.4171  0.9437
 7635TIP3   OH244319   6.558   6.405   3.455  0.3684 -0.3326 -0.0699
 7635TIP3    H144320   6.493   6.359   3.402  0.1752 -0.1987  0.0497
 7635TIP3    H244321   6.517   6.490   3.475  0.3256 -0.4856  0.5151
 7636TIP3   OH244322   6.556   1.667   3.593  0.1880 -0.5522 -0.3256
 7636TIP3    H144323   6.515   1.647   3.677 -0.1012  0.0336 -0.3204
 7636TIP3    H244324   6.648   1.684   3.615  0.6488 -2.6242 -0.4411
 7637TIP3   OH244325   3.558   2.539  12.516 -0.5438 -0.2173  0.8998
 7637TIP3    H144326   3.639   2.519  12.562 -1.4848 -3.2454  1.4422
 7637TIP3    H244327   3.560   2.634  12.504  1.9671  0.0907  2.9418
 7638TIP3   OH244328   0.254   0.852   4.022 -0.1597  0.1087  0.1711
 7638TIP3    H144329   0.174   0.823   4.066 -0.7380  0.8052 -0.4068
 7638TIP3    H244330   0.285   0.774   3.976 -1.9489  0.4364 -1.7468
 7639TIP3   OH244331   2.673   5.614   5.998  0.0648  0.3822  0.4054
 7639TIP3    H144332   2.695   5.703   6.026  0.8507  0.4834 -0.4890
 7639TIP3    H244333   2.719   5.558   6.060  2.2140  0.6007 -0.9116
 7640TIP3   OH244334   5.421   2.472   2.612  0.3379 -0.5163 -0.3783
 7640TIP3    H144335   5.394   2.509   2.528 -3.7632  1.5765  1.5707
 7640TIP3    H244336   5.483   2.534   2.647 -0.6221  0.5019 -0.4285
 7641TIP3   OH244337   0.214   0.859   4.613  0.5169  0.2724  0.0966
 7641TIP3    H144338   0.237   0.944   4.574  1.2160  0.3173  0.5968
 7641TIP3    H244339   0.133   0.877   4.662  0.9803  0.7951  0.6839
 7642TIP3   OH244340   0.445   3.247  16.335 -1.1048 -0.0583  0.1201
 7642TIP3    H144341   0.354   3.216  16.329 -1.2674  0.5445 -0.7729
 7642TIP3    H244342   0.437   3.342  16.343 -0.5689 -0.0806  1.0471
 7643TIP3   OH244343   1.725   0.033  16.451 -0.1232  0.3896  0.3283
 7643TIP3    H144344   1.783   0.005  16.522  0.0941  0.3737  0.1432
 7643TIP3    H244345   1.637   0.028  16.489 -0.0616 -0.2250  0.4005
 7644TIP3   OH244346   0.409   1.138   4.813  0.4307 -0.1043  0.8662
 7644TIP3    H144347   0.315   1.155   4.820 -0.0057 -2.4770  1.4985
 7644TIP3    H244348   0.432   1.168   4.725 -0.6299  1.5969  1.1155
 7645TIP3   OH244349   1.195   4.988  12.740 -0.4995 -0.0295  0.3086
 7645TIP3    H144350   1.258   4.926  12.703  0.1320 -0.2294  1.6542
 7645TIP3    H244351   1.131   5.002  12.670  0.6806 -0.3209 -0.8758
 7646TIP3   OH244352   2.383   5.796   4.996  0.2910 -0.6210 -0.5125
 7646TIP3    H144353   2.403   5.867   4.935  0.9752  0.3480  0.7906
 7646TIP3    H244354   2.450   5.730   4.979 -0.6522 -1.2219 -2.0845
 7647TIP3   OH244355   1.501   6.632   4.555 -0.1872 -0.3112  0.2774
 7647TIP3    H144356   1.477   6.570   4.486 -1.9588  0.7002 -0.0599
 7647TIP3    H244357   1.516   6.577   4.632  0.6190 -1.3438 -0.5759
 7648TIP3   OH244358   0.415   4.976   4.141 -0.0373 -0.2261  0.3383
 7648TIP3    H144359   0.447   5.022   4.218  0.0149  1.1357 -0.4640
 7648TIP3    H244360   0.384   4.891   4.174  0.0904  0.2833  1.8145
 7649TIP3   OH244361   0.373   1.321  14.800  0.0204 -0.2983 -0.1380
 7649TIP3    H144362   0.422   1.373  14.737  1.9796  0.3892  1.8105
 7649TIP3    H244363   0.359   1.237  14.756  2.1794 -0.2027 -1.1621
 7650TIP3   OH244364   4.533   0.920   3.104 -0.8167 -0.1253 -0.6003
 7650TIP3    H144365   4.589   0.922   3.181  0.4315 -2.6773 -1.3234
 7650TIP3    H244366   4.450   0.956   3.134  0.3142  1.0971  1.2827
 7651TIP3   OH244367   5.659   5.603   3.487 -0.0724 -1.0312  0.5017
 7651TIP3    H144368   5.586   5.556   3.528  0.8977 -1.4273  1.8541
 7651TIP3    H244369   5.623   5.689   3.465 -0.9404 -1.2022  1.1894
 7652TIP3   OH244370   2.975   4.682  15.966 -0.1875  0.1102 -0.0017
 7652TIP3    H144371   2.958   4.621  16.038 -1.2171  0.0086 -0.3079
 7652TIP3    H244372   3.056   4.727  15.991  1.9267 -2.9195 -0.7789
 7653TIP3   OH244373   2.936   6.774   4.008  0.1112 -0.4545  0.5818
 7653TIP3    H144374   2.998   6.833   4.051 -1.9064  0.1088  2.9339
 7653TIP3    H244375   2.971   6.687   4.024  1.0831 -0.0959  0.5076
 7654TIP3   OH244376   5.612   1.578   3.045 -0.3524 -0.3017 -0.2831
 7654TIP3    H144377   5.659   1.590   2.963  0.3630 -0.1191  0.1389
 7654TIP3    H244378   5.681   1.583   3.113 -0.9762 -0.0571  0.3452
 7655TIP3   OH244379   0.256   1.749   2.317 -0.2694 -0.0084 -0.0700
 7655TIP3    H144380   0.230   1.793   2.236  1.7279 -1.6270 -1.6937
 7655TIP3    H244381   0.350   1.766   2.325 -0.2308 -0.7262  1.3885
 7656TIP3   OH244382   4.646   6.700  15.795 -0.4961 -0.1322  0.5553
 7656TIP3    H144383   4.644   6.700  15.891  0.5718  1.1799  0.6102
 7656TIP3    H244384   4.588   6.773  15.770  1.4295  1.4258  0.3527
 7657TIP3   OH244385   2.448   3.157  14.524 -0.0922  0.0894  0.5109
 7657TIP3    H144386   2.358   3.190  14.525 -0.2998 -0.3265 -1.1734
 7657TIP3    H244387   2.438   3.062  14.528  0.3598  0.0762  1.8314
 7658TIP3   OH244388   3.716   3.918  14.855  0.0909  0.9960  0.0405
 7658TIP3    H144389   3.794   3.902  14.802 -0.3426  0.6530 -0.4944
 7658TIP3    H244390   3.686   3.832  14.881 -1.7445  0.9125 -2.1269
 7659TIP3   OH244391   3.255   0.683  13.881  0.3736 -0.5563  0.3089
 7659TIP3    H144392   3.172   0.693  13.929  0.5188 -0.7871  0.6100
 7659TIP3    H244393   3.320   0.727  13.936 -0.0690  2.7094 -1.5165
 7660TIP3   OH244394   4.847   2.532   0.435 -0.0908  0.4660  0.1615
 7660TIP3    H144395   4.793   2.601   0.475 -0.3163 -0.3583  1.3385
 7660TIP3    H244396   4.857   2.467   0.505  0.3736 -0.5501 -0.8326
 7661TIP3   OH244397   3.566   4.827   4.768 -0.1776 -0.4822 -0.6251
 7661TIP3    H144398   3.527   4.799   4.851  0.7497 -1.8722 -0.6101
 7661TIP3    H244399   3.606   4.912   4.788 -0.9787 -0.2472  0.0277
 7662TIP3   OH244400   4.290   4.399  12.782 -0.5680  0.0045 -1.0139
 7662TIP3    H144401   4.316   4.316  12.821 -2.7306 -0.3319 -0.1153
 7662TIP3    H244402   4.372   4.441  12.758  0.5729 -2.6258 -2.0680
 7663TIP3   OH244403   1.342   4.686   3.300 -0.4532 -0.0715 -0.1708
 7663TIP3    H144404   1.286   4.747   3.349  1.9149  2.3997 -0.2866
 7663TIP3    H244405   1.352   4.727   3.214 -0.1652 -1.5545 -0.8713
 7664TIP3   OH244406   4.422   1.977   3.958  0.0852  0.3470 -0.0712
 7664TIP3    H144407   4.441   2.026   3.878  2.2468  0.4285  0.4220
 7664TIP3    H244408   4.473   2.022   4.026 -1.1783 -0.1133  1.2547
 7665TIP3   OH244409   1.635   3.960   1.169 -0.2426  0.0074  0.5334
 7665TIP3    H144410   1.600   3.944   1.082  1.0330  1.3161 -0.2774
 7665TIP3    H244411   1.719   3.914   1.170  1.4626  2.7804 -0.3285
 7666TIP3   OH244412   0.282   0.368  12.341 -0.2072 -0.2761 -0.1886
 7666TIP3    H144413   0.190   0.340  12.342  0.0311 -1.1348  1.4640
 7666TIP3    H244414   0.286   0.441  12.403 -0.0439  0.8183 -1.4457
 7667TIP3   OH244415   5.698   6.344  11.311  0.9472  0.3073 -0.2136
 7667TIP3    H144416   5.689   6.289  11.234  2.6965  0.2373 -0.4189
 7667TIP3    H244417   5.767   6.407  11.287  1.8587 -0.0150  1.4433
 7668TIP3   OH244418   2.941   3.686  12.497  0.3981  0.6273  0.5997
 7668TIP3    H144419   2.972   3.744  12.567 -2.1593  1.4791  1.1112
 7668TIP3    H244420   2.848   3.703  12.490 -0.0737 -1.9289 -0.7251
 7669TIP3   OH244421   1.498   0.350  11.554 -0.0991 -0.1294 -0.0495
 7669TIP3    H144422   1.432   0.292  11.591  0.3332 -0.0983  0.8023
 7669TIP3    H244423   1.579   0.327  11.600  0.9289 -1.4066 -2.3040
 7670TIP3   OH244424   1.225   2.821  12.231 -0.6298  0.1110 -0.1126
 7670TIP3    H144425   1.245   2.745  12.285 -1.4513  0.7194  1.1102
 7670TIP3    H244426   1.132   2.839  12.248 -0.2251  1.9394  0.3898
 7671TIP3   OH244427   0.934   2.032   2.572  0.6125  0.6282  0.4416
 7671TIP3    H144428   0.997   2.040   2.501  0.8313  0.6990  0.6444
 7671TIP3    H244429   0.849   2.048   2.530  0.5765 -0.9174 -0.1229
 7672TIP3   OH244430   5.337   1.728   4.600  0.0792  0.1979 -0.2445
 7672TIP3    H144431   5.261   1.757   4.650 -0.6529  1.0740 -1.7813
 7672TIP3    H244432   5.316   1.639   4.574 -1.5622  1.1534 -2.5858
 7673TIP3   OH244433   4.158   3.015  12.693 -0.1057  0.4599 -0.2365
 7673TIP3    H144434   4.095   3.006  12.622  0.1263  0.6011 -0.4627
 7673TIP3    H244435   4.236   2.969  12.662  0.6540  2.1151 -0.8684
 7674TIP3   OH244436   2.392   3.115   1.059  0.5545 -0.2614  0.1902
 7674TIP3    H144437   2.480   3.138   1.029  0.4377 -0.6094 -0.4430
 7674TIP3    H244438   2.354   3.067   0.986  0.2722 -1.1913  0.9228
 7675TIP3   OH244439   6.650   3.915   0.096  0.6831  0.1402 -0.4928
 7675TIP3    H144440   6.636   3.933   0.003  1.2351  0.3213 -0.5442
 7675TIP3    H244441   6.568   3.875   0.125  0.7780 -0.6183 -1.2307
 7676TIP3   OH244442   4.061   1.561  10.506  0.0184 -0.5418 -0.1204
 7676TIP3    H144443   4.069   1.654  10.527  1.9745 -1.0073  1.5976
 7676TIP3    H244444   4.147   1.537  10.473 -0.1777 -1.9337  0.3313
 7677TIP3   OH244445   5.190   3.641  16.936  0.4509  0.1726 -0.0260
 7677TIP3    H144446   5.260   3.590  16.894 -0.3473 -0.2988 -0.8200
 7677TIP3    H244447   5.139   3.577  16.984  0.0919  0.3874 -0.1174
 7678TIP3   OH244448   0.802   3.974  12.780 -0.2792 -0.0015  0.0796
 7678TIP3    H144449   0.748   4.054  12.778 -0.5356 -0.1877 -1.0947
 7678TIP3    H244450   0.797   3.945  12.871 -2.0658  0.0698  0.0473
 7679TIP3   OH244451   6.349   5.297  14.385 -0.2602 -0.0334  0.2391
 7679TIP3    H144452   6.330   5.359  14.314 -0.8930  1.1533  1.3897
 7679TIP3    H244453   6.273   5.304  14.444  0.6617 -0.2754  1.5018
 7680TIP3   OH244454   1.342   1.568  17.256 -0.0567 -0.1629 -0.5696
 7680TIP3    H144455   1.261   1.550  17.208 -0.4542 -2.0027  0.6775
 7680TIP3    H244456   1.410   1.521  17.207 -0.1904 -0.7093 -0.2409
 7681TIP3   OH244457   4.953   1.327  11.126  0.7834  0.1499  0.2637
 7681TIP3    H144458   4.956   1.416  11.162  0.6835  0.3467 -0.2055
 7681TIP3    H244459   4.860   1.305  11.125  0.7797  0.1819  0.0304
 7682TIP3   OH244460   4.895   3.240  14.296 -0.2786 -0.0673 -0.4145
 7682TIP3    H144461   4.868   3.203  14.381  1.3709  1.1421  0.6986
 7682TIP3    H244462   4.927   3.165  14.246 -0.0523 -0.6201  0.5337
 7683TIP3   OH244463   4.080   2.993  13.565 -0.4236  0.0707 -0.3148
 7683TIP3    H144464   4.137   2.962  13.495 -0.2878 -2.2102  0.7066
 7683TIP3    H244465   4.043   2.913  13.603 -1.5558  1.2975  1.3287
 7684TIP3   OH244466   3.786   6.362   4.174 -0.2057  0.3070 -0.0859
 7684TIP3    H144467   3.813   6.436   4.229  1.7884  0.3174 -0.9920
 7684TIP3    H244468   3.781   6.399   4.086  2.7578 -0.9792 -0.8950
 7685TIP3   OH244469   1.563   6.137  14.001  0.0290  0.1851  0.0479
 7685TIP3    H144470   1.548   6.044  13.984 -1.1400  0.3287  0.2542
 7685TIP3    H244471   1.648   6.155  13.961 -1.2403 -0.1815 -3.0806
 7686TIP3   OH244472   1.666   5.907   0.522 -0.0867 -0.0742  0.7825
 7686TIP3    H144473   1.609   5.963   0.575  0.3521  2.9435 -1.6746
 7686TIP3    H244474   1.730   5.873   0.584 -2.1816 -0.4475  2.9200
 7687TIP3   OH244475   2.286   2.922   4.517  0.2145  0.0869  0.2388
 7687TIP3    H144476   2.335   2.953   4.441 -0.3948  0.2228 -0.1076
 7687TIP3    H244477   2.318   2.975   4.590  0.2049  0.5382 -0.0834
 7688TIP3   OH244478   2.671   1.013   5.012 -0.2541 -0.0188  0.4464
 7688TIP3    H144479   2.699   0.968   5.092  0.8888  0.7655  0.5159
 7688TIP3    H244480   2.663   1.105   5.038  0.1421  0.2502 -0.3380
 7689TIP3   OH244481   5.157   1.647   2.911  0.0530  0.2861 -0.0821
 7689TIP3    H144482   5.125   1.737   2.918 -1.5733 -0.3545  1.8043
 7689TIP3    H244483   5.249   1.652   2.938 -0.2078  1.3058  0.6976
 7690TIP3   OH244484   1.566   6.203   4.646  0.1554  0.0948 -0.0217
 7690TIP3    H144485   1.633   6.270   4.660 -1.6290  2.3102 -1.3126
 7690TIP3    H244486   1.570   6.147   4.723  1.1214  2.2778  1.6135
 7691TIP3   OH244487   4.398   4.014  12.665  0.4719 -0.4926 -0.3008
 7691TIP3    H144488   4.374   4.054  12.748  0.3255 -0.9793 -0.1074
 7691TIP3    H244489   4.493   4.001  12.672  1.0232  2.2243 -1.4039
 7692TIP3   OH244490   5.924   2.580  13.810  0.1492  0.2869 -0.2459
 7692TIP3    H144491   5.949   2.538  13.892  0.4619 -0.6779 -0.8158
 7692TIP3    H244492   6.005   2.584  13.759  0.1534  1.7026 -0.1756
 7693TIP3   OH244493   6.291   3.999  14.980  0.4642 -0.2476  0.3791
 7693TIP3    H144494   6.263   3.978  14.891 -2.2511 -0.8278  1.2966
 7693TIP3    H244495   6.338   3.921  15.010  0.3165 -0.5280 -0.1164
 7694TIP3   OH244496   2.618   4.598  15.375  0.1082  0.0804  0.5050
 7694TIP3    H144497   2.700   4.631  15.410  0.6616 -0.7515  0.0413
 7694TIP3    H244498   2.616   4.506  15.402 -0.8116  0.1496  0.7420
 7695TIP3   OH244499   6.782   3.727  12.259  0.5109 -0.1439 -0.5420
 7695TIP3    H144500   6.715   3.792  12.279  0.7840 -0.3259  1.0641
 7695TIP3    H244501   6.784   3.723  12.163 -1.7445 -0.1135 -0.6337
 7696TIP3   OH244502   4.057   4.391   0.262  0.1119 -0.3570 -0.0972
 7696TIP3    H144503   4.101   4.427   0.339 -1.0036 -0.8215  0.7991
 7696TIP3    H244504   4.105   4.311   0.242  1.9000  0.9869 -1.4066
 7697TIP3   OH244505   4.914   0.851  14.646  0.1933  0.2026  0.2922
 7697TIP3    H144506   4.853   0.815  14.710  1.2023 -0.3664  0.9655
 7697TIP3    H244507   4.934   0.939  14.677  0.6519 -0.0589  0.7489
 7698TIP3   OH244508   0.555   3.992   1.375  0.6065  0.8603  0.3057
 7698TIP3    H144509   0.609   3.926   1.332 -0.6910  0.6357 -1.0498
 7698TIP3    H244510   0.609   4.071   1.376  2.0072 -0.0653  1.5440
 7699TIP3   OH244511   0.188   3.661  14.398  0.1258 -0.4112 -0.3855
 7699TIP3    H144512   0.143   3.644  14.480 -1.1336  0.5937 -0.8385
 7699TIP3    H244513   0.234   3.744  14.412  2.3689 -1.6974  0.2593
 7700TIP3   OH244514   3.535   1.076  14.747 -0.6747 -0.1290  0.6932
 7700TIP3    H144515   3.576   1.055  14.830 -2.1569  0.0467  1.4969
 7700TIP3    H244516   3.460   1.016  14.741  0.8999 -2.0977 -1.8287
 7701TIP3   OH244517   2.621   4.421  11.301 -0.3675  0.8167 -0.0668
 7701TIP3    H144518   2.576   4.501  11.274 -2.7324 -0.9092 -1.6377
 7701TIP3    H244519   2.675   4.396  11.226 -1.0513  0.0069 -0.3021
 7702TIP3   OH244520   1.829   5.745  15.159 -0.3396 -0.5576  0.0508
 7702TIP3    H144521   1.825   5.670  15.218 -4.0482 -0.6207 -0.0641
 7702TIP3    H244522   1.854   5.818  15.215  0.1705 -1.2918  0.8131
 7703TIP3   OH244523   4.914   1.543  16.584 -0.3711 -0.3998  0.5656
 7703TIP3    H144524   4.912   1.470  16.522  1.7963  0.4613 -0.6217
 7703TIP3    H244525   4.839   1.597  16.560  0.7550  0.2438 -1.7931
 7704TIP3   OH244526   5.111   5.068  15.910  0.2985  0.9120  0.4512
 7704TIP3    H144527   5.189   5.054  15.964 -0.4117 -2.8473  0.7788
 7704TIP3    H244528   5.038   5.043  15.966 -0.6932 -0.4084 -1.3504
 7705TIP3   OH244529   4.589   1.048   0.406  0.2430 -0.1647  0.0135
 7705TIP3    H144530   4.653   1.119   0.403  0.1749 -0.0213  1.2924
 7705TIP3    H244531   4.638   0.970   0.381  0.4438  0.2321 -0.8901
 7706TIP3   OH244532   2.584   5.911   2.390  0.3202 -0.4058  0.3018
 7706TIP3    H144533   2.492   5.884   2.387  0.6167 -1.5418  0.7367
 7706TIP3    H244534   2.582   5.997   2.431 -0.8145  1.0355 -2.5454
 7707TIP3   OH244535   0.280   6.124  17.025 -0.4721 -0.6758  0.2076
 7707TIP3    H144536   0.324   6.115  17.109  0.5266 -3.3454 -0.4977
 7707TIP3    H244537   0.236   6.209  17.030  0.7714 -0.0772  2.8150
 7708TIP3   OH244538   2.677   4.057   1.802 -0.0383  0.1765 -0.0294
 7708TIP3    H144539   2.645   4.124   1.863  1.4736 -0.4572  1.5582
 7708TIP3    H244540   2.698   4.105   1.722 -2.3193  1.0044 -0.2007
 7709TIP3   OH244541   5.640   6.243   4.232 -0.4656 -0.2359  0.0747
 7709TIP3    H144542   5.676   6.163   4.194 -0.3318  0.2992 -0.9605
 7709TIP3    H244543   5.677   6.314   4.179 -0.1802  0.5524  1.2876
 7710TIP3   OH244544   2.636   0.384  15.422 -0.2966 -0.0345  0.8494
 7710TIP3    H144545   2.650   0.336  15.340  1.4263 -0.3788  1.2894
 7710TIP3    H244546   2.670   0.472  15.405  1.3997 -0.5102  1.5726
 7711TIP3   OH244547   3.662   1.553   0.338  0.1970 -0.2993 -0.4857
 7711TIP3    H144548   3.609   1.555   0.417  1.2812 -1.6930  0.3299
 7711TIP3    H244549   3.717   1.631   0.343  0.6677 -0.6757  0.4540
 7712TIP3   OH244550   0.646   2.280   4.049  0.2117  0.3996  0.0527
 7712TIP3    H144551   0.575   2.334   4.015 -0.3065  0.1348  0.7148
 7712TIP3    H244552   0.680   2.234   3.972 -2.5483 -2.0982  0.1844
 7713TIP3   OH244553   2.328   4.193   3.604  0.1096  0.3606 -0.4081
 7713TIP3    H144554   2.411   4.150   3.628  0.2067 -0.0085 -1.3399
 7713TIP3    H244555   2.294   4.139   3.532 -1.2490  0.1625  0.3675
 7714TIP3   OH244556   4.227   0.295   2.435 -0.6834 -0.1906 -0.5402
 7714TIP3    H144557   4.244   0.220   2.377 -3.1020 -2.1156  1.0506
 7714TIP3    H244558   4.135   0.316   2.421 -0.8297  0.5165  1.2540
 7715TIP3   OH244559   1.102   6.513  11.837 -0.1861  0.1610  0.4237
 7715TIP3    H144560   1.164   6.498  11.909 -0.6218  0.2112  0.8138
 7715TIP3    H244561   1.048   6.434  11.835  0.6640 -0.4140 -0.7155
 7716TIP3   OH244562   2.164   5.038   5.365  0.1994  0.0921 -0.8344
 7716TIP3    H144563   2.147   5.013   5.275  1.6440 -0.1664 -1.0588
 7716TIP3    H244564   2.126   4.967   5.417  0.9418 -0.6709 -1.3193
 7717TIP3   OH244565   5.510   4.464   1.917  0.3958 -0.6635  0.5014
 7717TIP3    H144566   5.553   4.457   1.831  1.1341  1.0390  0.6910
 7717TIP3    H244567   5.567   4.522   1.968 -0.4971 -0.9229  1.8500
 7718TIP3   OH244568   1.650   5.622  16.141 -0.1746  0.5056  0.2217
 7718TIP3    H144569   1.673   5.610  16.049 -0.4262 -0.9540  0.3236
 7718TIP3    H244570   1.719   5.577  16.189  0.3904  1.9577  0.7891
 7719TIP3   OH244571   4.057   5.082   4.489 -0.0480  0.4364  0.5514
 7719TIP3    H144572   3.968   5.118   4.486 -0.4933 -0.6455 -0.2595
 7719TIP3    H244573   4.098   5.124   4.564 -1.6630  0.0478  1.7119
 7720TIP3   OH244574   2.895   4.868   0.644 -0.7116 -0.1933 -0.4297
 7720TIP3    H144575   2.914   4.778   0.619  0.3043 -0.1197  0.0548
 7720TIP3    H244576   2.800   4.876   0.634 -0.5124 -0.4283 -3.3654
 7721TIP3   OH244577   1.205   6.633   1.447  0.1605  0.3687 -0.3633
 7721TIP3    H144578   1.254   6.701   1.401  2.5061 -0.7082  0.3812
 7721TIP3    H244579   1.248   6.551   1.422 -2.1510 -0.8017 -0.6931
 7722TIP3   OH244580   3.235   2.539   4.434 -0.0719  0.0521 -0.1938
 7722TIP3    H144581   3.142   2.518   4.421  0.0611 -1.0748  0.5086
 7722TIP3    H244582   3.270   2.547   4.345 -0.8659  0.6549 -0.4658
 7723TIP3   OH244583   2.177   5.408  14.896 -0.2429  0.1601 -0.1132
 7723TIP3    H144584   2.188   5.325  14.849 -1.9064 -0.0894 -0.1384
 7723TIP3    H244585   2.176   5.475  14.827 -0.6093  0.0110 -0.2571
 7724TIP3   OH244586   4.619   4.799  17.177  0.4128 -0.1751  0.2330
 7724TIP3    H144587   4.585   4.889  17.182  0.6139  0.0723 -1.7525
 7724TIP3    H244588   4.569   4.759  17.106  0.9627 -1.3487  0.4944
 7725TIP3   OH244589   3.101   4.996  15.385  0.8383  0.4769 -0.2703
 7725TIP3    H144590   3.188   5.035  15.394  0.5191  1.3280 -0.8339
 7725TIP3    H244591   3.040   5.067  15.405  0.2517  0.2073 -1.0417
 7726TIP3   OH244592   0.252   3.245   3.752  0.4112 -0.7947 -0.4530
 7726TIP3    H144593   0.183   3.198   3.706  0.6513  0.9622 -2.7905
 7726TIP3    H244594   0.217   3.333   3.765  0.1595 -1.2787  3.3579
 7727TIP3   OH244595   3.657   1.703  15.124  0.2343 -0.8405 -0.0275
 7727TIP3    H144596   3.661   1.756  15.045  1.1889 -0.6900  0.1181
 7727TIP3    H244597   3.572   1.659  15.119 -0.1064 -0.1167 -0.6687
 7728TIP3   OH244598   6.336   4.768  15.967  0.2218  0.1779  0.4089
 7728TIP3    H144599   6.381   4.742  15.887  0.1298  0.1470  0.3656
 7728TIP3    H244600   6.393   4.832  16.008  0.0898  0.4861  0.1215
 7729TIP3   OH244601   2.768   1.769   2.320  0.0251  0.0263 -0.0851
 7729TIP3    H144602   2.850   1.813   2.342 -0.2740  0.9290 -0.7139
 7729TIP3    H244603   2.742   1.806   2.236 -0.9041 -0.4248 -0.0153
 7730TIP3   OH244604   0.221   0.692   4.936  0.0438 -0.3293  0.3331
 7730TIP3    H144605   0.171   0.615   4.964  0.6232 -1.2477 -1.0593
 7730TIP3    H244606   0.159   0.742   4.883  0.0605 -0.5182  0.1346
 7731TIP3   OH244607   4.132   4.512   3.925  0.8863  0.1565 -0.2470
 7731TIP3    H144608   4.142   4.597   3.881 -0.3762  0.5996  0.2811
 7731TIP3    H244609   4.133   4.533   4.018 -2.6197  0.0821 -0.0675
 7732TIP3   OH244610   3.699   0.468  14.777  0.6447 -0.9103 -0.1456
 7732TIP3    H144611   3.761   0.427  14.837  1.5984  0.0616 -0.4318
 7732TIP3    H244612   3.684   0.403  14.709 -0.2366 -1.9247  0.9619
 7733TIP3   OH244613   4.160   6.115  12.812 -0.0897  0.4295  0.2341
 7733TIP3    H144614   4.229   6.107  12.878 -0.9884 -1.0852  1.0585
 7733TIP3    H244615   4.079   6.124  12.863 -0.5676  1.8370 -0.7042
 7734TIP3   OH244616   5.892   2.123   0.707  0.0013  0.0310  0.1144
 7734TIP3    H144617   5.865   2.125   0.799 -0.6938 -0.5846 -0.0702
 7734TIP3    H244618   5.962   2.188   0.701  1.8575 -1.7075  1.6344
 7735TIP3   OH244619   5.867   1.182  12.045  0.3334  0.1322 -0.5283
 7735TIP3    H144620   5.962   1.175  12.041  0.4487 -0.6441  1.9137
 7735TIP3    H244621   5.850   1.236  12.123 -1.1996 -1.2330  0.1605
 7736TIP3   OH244622   4.356   1.855  14.960 -0.4349 -0.3041  0.1124
 7736TIP3    H144623   4.438   1.821  14.996 -0.2060 -0.4026 -0.5024
 7736TIP3    H244624   4.296   1.855  15.035 -0.0987 -0.9591  0.3957
 7737TIP3   OH244625   6.276   3.724   1.393 -0.0532  0.3923  0.5804
 7737TIP3    H144626   6.232   3.744   1.476 -0.9388  1.0729 -0.0291
 7737TIP3    H244627   6.367   3.748   1.408 -0.2690  0.8471  1.2489
 7738TIP3   OH244628   4.235   5.260   5.682  0.0584 -0.0530 -0.5801
 7738TIP3    H144629   4.330   5.270   5.689 -0.1239  0.5438  2.7874
 7738TIP3    H244630   4.218   5.168   5.699 -0.0368  0.2414  1.0564
 7739TIP3   OH244631   1.000   3.779   0.020  0.5516  0.4396  0.0635
 7739TIP3    H144632   1.073   3.731   0.059 -0.3152 -1.0779 -0.1427
 7739TIP3    H244633   0.991   3.857   0.076  0.2846 -0.9451  2.0895
 7740TIP3   OH244634   0.376   3.983  11.857  0.4632  0.0745 -0.4447
 7740TIP3    H144635   0.469   4.003  11.868  0.5155 -0.8255  0.9406
 7740TIP3    H244636   0.364   3.899  11.902 -1.1614  0.5449  0.0544
 7741TIP3   OH244637   5.337   3.506   2.172 -0.0778  0.2804  0.1652
 7741TIP3    H144638   5.340   3.483   2.265 -1.7114  0.1924  0.2383
 7741TIP3    H244639   5.245   3.491   2.148  0.4090 -0.0525 -1.5598
 7742TIP3   OH244640   3.020   2.784  16.134 -0.3309 -0.2475  0.0501
 7742TIP3    H144641   3.022   2.804  16.041  0.8773 -1.6479 -0.2575
 7742TIP3    H244642   3.004   2.869  16.176 -0.0433  0.5515 -1.3763
 7743TIP3   OH244643   5.597   6.709   0.129 -0.6703  0.2843 -0.0583
 7743TIP3    H144644   5.639   6.685   0.046 -0.3326  2.8693 -0.7373
 7743TIP3    H244645   5.525   6.647   0.139  1.5374 -2.4855 -0.3120
 7744TIP3   OH244646   0.410   1.653  15.519 -0.8862 -0.1220 -0.1004
 7744TIP3    H144647   0.369   1.617  15.598 -0.7491  1.2005  0.6037
 7744TIP3    H244648   0.420   1.578  15.460 -1.8121 -0.9648  0.7878
 7745TIP3   OH244649   5.249   0.562   2.428 -0.1242 -0.1853  0.1470
 7745TIP3    H144650   5.326   0.536   2.379 -0.9641 -2.2986 -0.1565
 7745TIP3    H244651   5.227   0.485   2.481 -1.9466  0.3975  0.3042
 7746TIP3   OH244652   5.592   2.338  13.829  0.4176  0.2198  0.0035
 7746TIP3    H144653   5.585   2.419  13.880  0.0161 -0.5133  1.1361
 7746TIP3    H244654   5.683   2.311  13.839  0.0725 -0.5252  1.3025
 7747TIP3   OH244655   4.393   1.293  15.923 -0.8478 -0.2188  0.1613
 7747TIP3    H144656   4.468   1.250  15.964 -0.2970 -0.0318 -0.6448
 7747TIP3    H244657   4.328   1.297  15.993 -0.5243 -1.3827  0.5660
 7748TIP3   OH244658   6.601   1.034   4.840  0.2784  0.2441 -0.3844
 7748TIP3    H144659   6.558   1.046   4.925  0.2259  1.2146 -0.5403
 7748TIP3    H244660   6.530   1.012   4.780 -0.2306  2.8394 -0.8578
 7749TIP3   OH244661   5.054   2.100  15.937 -0.4151  0.3346 -0.1522
 7749TIP3    H144662   5.031   2.026  15.880 -1.7887 -0.0691  0.8799
 7749TIP3    H244663   4.990   2.096  16.008  1.1416  0.9181  1.3508
 7750TIP3   OH244664   1.172   6.117  13.663  0.7155 -0.4996  0.1206
 7750TIP3    H144665   1.254   6.112  13.711 -0.0438 -0.8771  1.4228
 7750TIP3    H244666   1.138   6.205  13.681  0.7410 -0.4030 -0.2789
 7751TIP3   OH244667   0.836   1.609   2.353 -0.0589  0.2996  0.2168
 7751TIP3    H144668   0.803   1.519   2.352  1.7389 -0.3939  0.7448
 7751TIP3    H244669   0.931   1.600   2.345  0.0642  2.2217 -1.0225
 7752TIP3   OH244670   3.402   5.867   6.333 -0.6938  0.4133  0.0268
 7752TIP3    H144671   3.484   5.864   6.283 -1.6082 -0.2765 -1.5159
 7752TIP3    H244672   3.419   5.814   6.411 -0.6542 -2.7639 -1.9470
 7753TIP3   OH244673   1.884   5.659   4.250 -0.3162 -0.0352  0.1870
 7753TIP3    H144674   1.918   5.593   4.190  0.5911  0.2711  0.3615
 7753TIP3    H244675   1.950   5.728   4.251 -0.7450  0.3767  0.8491
 7754TIP3   OH244676   4.214   5.989  17.090 -0.0322  0.4045 -0.9009
 7754TIP3    H144677   4.257   5.985  17.004 -0.2748  0.0364 -1.0075
 7754TIP3    H244678   4.277   6.034  17.146 -1.4399  4.4448 -2.1890
 7755TIP3   OH244679   2.106   5.220   1.024 -0.0840  0.7891  0.1675
 7755TIP3    H144680   2.147   5.241   0.940  0.0151  0.5893  0.1667
 7755TIP3    H244681   2.178   5.225   1.087  0.0206  0.0535  0.1093
 7756TIP3   OH244682   4.935   6.373  13.948 -0.2214  0.0395  0.4686
 7756TIP3    H144683   4.962   6.359  14.039  1.6440  1.0205  0.1160
 7756TIP3    H244684   5.014   6.356  13.897 -0.6982  1.4120 -0.7941
 7757TIP3   OH244685   5.538   2.635   3.197 -0.8120 -0.2849  0.2738
 7757TIP3    H144686   5.539   2.714   3.251 -0.8512  0.2483 -0.4840
 7757TIP3    H244687   5.470   2.580   3.236 -3.0682  1.4018 -1.0375
 7758TIP3   OH244688   1.420   5.889  12.575 -0.0690 -0.0027 -0.1935
 7758TIP3    H144689   1.377   5.840  12.506 -0.6071 -1.9413  1.4264
 7758TIP3    H244690   1.505   5.846  12.587 -0.9886 -1.3964  1.9966
 7759TIP3   OH244691   0.702   4.956  13.997 -0.1827  0.1854 -0.0816
 7759TIP3    H144692   0.786   4.999  13.981 -0.1085  0.1342  0.1734
 7759TIP3    H244693   0.658   5.011  14.061  0.1311 -0.3844  0.6434
 7760TIP3   OH244694   2.180   0.816   6.337  0.6900  0.4092  0.3161
 7760TIP3    H144695   2.173   0.905   6.373 -0.0552  0.7238 -0.5577
 7760TIP3    H244696   2.263   0.815   6.291 -0.1981  1.3357 -1.3935
 7761TIP3   OH244697   1.734   4.902  15.229  0.1826  0.0116 -0.0791
 7761TIP3    H144698   1.722   4.943  15.315  0.8718 -0.2113  0.1288
 7761TIP3    H244699   1.717   4.972  15.166  0.4694  0.3836  0.2547
 7762TIP3   OH244700   1.886   6.254  14.045 -0.2271  0.3561 -0.0446
 7762TIP3    H144701   1.925   6.332  14.084 -0.7509  0.3979  0.4107
 7762TIP3    H244702   1.882   6.191  14.117 -0.3798  0.1227 -0.2555
 7763TIP3   OH244703   2.465   0.639  10.980  0.0712  0.3959 -0.1449
 7763TIP3    H144704   2.549   0.627  10.937  0.7242 -1.8606  1.5373
 7763TIP3    H244705   2.468   0.580  11.055 -2.5165  1.2228  0.7229
 7764TIP3   OH244706   5.395   0.471   5.989  0.0300 -0.3510 -0.3901
 7764TIP3    H144707   5.362   0.466   6.078 -1.9476 -0.6730 -1.0892
 7764TIP3    H244708   5.476   0.420   5.991  1.1416  1.3447  1.6366
 7765TIP3   OH244709   6.584   0.596  15.480  0.6286 -0.2625 -0.2675
 7765TIP3    H144710   6.494   0.576  15.453  0.2052 -0.2430  1.0334
 7765TIP3    H244711   6.608   0.673  15.429 -1.4808  2.0269  1.9158
 7766TIP3   OH244712   2.397   2.054  15.097  0.4159  0.1876  0.0036
 7766TIP3    H144713   2.480   2.070  15.142  1.1598 -0.4799 -1.0771
 7766TIP3    H244714   2.421   2.002  15.020 -0.9717  0.2206 -0.4833
 7767TIP3   OH244715   5.857   2.928   5.809 -0.4763 -0.4380 -0.7600
 7767TIP3    H144716   5.773   2.883   5.820 -0.0571 -1.0589 -0.0959
 7767TIP3    H244717   5.902   2.916   5.892  0.1578  0.1511 -1.0119
 7768TIP3   OH244718   6.136   3.434  11.540  0.0307 -0.6601 -0.0534
 7768TIP3    H144719   6.193   3.442  11.616 -0.8778  0.6061  0.5209
 7768TIP3    H244720   6.190   3.462  11.466  0.4617 -0.4707  0.3359
 7769TIP3   OH244721   4.706   1.705  16.481  0.2503  0.0268 -0.3306
 7769TIP3    H144722   4.718   1.688  16.387 -0.3326 -1.6481 -0.1336
 7769TIP3    H244723   4.619   1.744  16.487  0.2091 -0.0415 -0.4698
 7770TIP3   OH244724   6.444   3.515   0.789 -0.1226 -0.5910 -0.0503
 7770TIP3    H144725   6.516   3.516   0.851  0.0686 -2.5176 -0.1965
 7770TIP3    H244726   6.487   3.522   0.703 -0.1247 -1.2670 -0.1129
 7771TIP3   OH244727   6.056   5.810  17.110 -0.6340  0.1824 -0.4885
 7771TIP3    H144728   5.994   5.883  17.105 -0.5500  0.2867 -0.0455
 7771TIP3    H244729   6.030   5.761  17.188  0.8930  1.1973  0.7170
 7772TIP3   OH244730   5.649   5.082  14.871 -0.2033  0.5439  0.5257
 7772TIP3    H144731   5.714   5.142  14.833 -0.7405  0.4250 -0.6381
 7772TIP3    H244732   5.614   5.128  14.946  2.9546 -0.3444  2.7651
 7773TIP3   OH244733   5.900   5.730   0.392 -0.3799 -0.4014  0.6463
 7773TIP3    H144734   5.957   5.765   0.324  0.0595  1.5771  1.9241
 7773TIP3    H244735   5.815   5.720   0.350 -0.2691  1.3316 -0.0774
 7774TIP3   OH244736   2.822   3.902   6.792 -0.2509  0.6008  0.1745
 7774TIP3    H144737   2.776   3.977   6.755 -1.7415 -0.9587 -1.2598
 7774TIP3    H244738   2.757   3.833   6.797  1.5015 -1.1773 -0.2420
 7775TIP3   OH244739   1.971   1.500   5.813  0.3663  0.5512  0.3692
 7775TIP3    H144740   1.896   1.556   5.796 -0.2125 -0.2301  0.3067
 7775TIP3    H244741   1.956   1.422   5.761  0.5838 -0.1561  1.3391
 7776TIP3   OH244742   5.748   2.764   3.963 -0.2302  0.2139  0.2856
 7776TIP3    H144743   5.775   2.699   3.899  0.8871  1.0031 -0.0639
 7776TIP3    H244744   5.686   2.717   4.019  0.5713 -1.1634  0.0768
 7777TIP3   OH244745   2.613   2.442  15.104  0.1585  0.7278 -0.6558
 7777TIP3    H144746   2.690   2.386  15.090 -1.4158 -1.2451 -1.9394
 7777TIP3    H244747   2.576   2.411  15.186 -0.1671  0.5381 -0.8717
 7778TIP3   OH244748   2.019   6.463  10.357  0.1485  0.2272  0.2431
 7778TIP3    H144749   2.035   6.538  10.300 -1.7006  1.2173  0.9276
 7778TIP3    H244750   2.105   6.441  10.392  0.5730  3.3059  1.5282
 7779TIP3   OH244751   2.126   4.134  12.357  0.0888  0.0843  0.0182
 7779TIP3    H144752   2.117   4.209  12.415 -3.1742 -0.1138 -0.0797
 7779TIP3    H244753   2.160   4.064  12.413  0.2264  0.7877  0.8333
 7780TIP3   OH244754   6.169   2.260  12.144 -0.4629 -0.2619  0.1714
 7780TIP3    H144755   6.090   2.314  12.148  0.4890  1.0934  1.4611
 7780TIP3    H244756   6.236   2.318  12.107  0.3706 -0.8353  0.7479
 7781TIP3   OH244757   0.815   4.494  15.627 -0.1116  0.1358 -0.2357
 7781TIP3    H144758   0.883   4.515  15.563 -1.4543  0.6040 -1.5866
 7781TIP3    H244759   0.736   4.536  15.592 -0.2084  4.0189  3.7735
 7782TIP3   OH244760   1.842   0.102  11.110 -0.5161 -0.0966 -0.6400
 7782TIP3    H144761   1.760   0.054  11.098 -0.5412 -0.0945 -0.4805
 7782TIP3    H244762   1.819   0.174  11.169 -0.9192  1.2287 -2.3337
 7783TIP3   OH244763   2.943   5.486   1.315  0.5024  0.1955  0.2827
 7783TIP3    H144764   2.976   5.400   1.288  0.4216  0.1333  0.3827
 7783TIP3    H244765   2.946   5.485   1.410  0.1100  0.1483  0.2965
 7784TIP3   OH244766   5.945   3.204   5.124  0.4017  0.0488 -0.3090
 7784TIP3    H144767   5.988   3.287   5.106 -0.4092  0.7509  0.8093
 7784TIP3    H244768   5.874   3.226   5.185  1.2541 -1.7033  1.4437
 7785TIP3   OH244769   1.787   1.239  10.974  0.2507  0.0450  0.4053
 7785TIP3    H144770   1.708   1.290  10.959 -0.7559 -1.3352  0.7833
 7785TIP3    H244771   1.796   1.237  11.070  2.1032  2.1210  0.3604
 7786TIP3   OH244772   0.253   6.663   5.534  0.1915  0.3361 -0.1936
 7786TIP3    H144773   0.184   6.680   5.470 -0.0040  1.1497  0.2175
 7786TIP3    H244774   0.208   6.620   5.607  0.3213 -0.1271 -0.3855
 7787TIP3   OH244775   5.010   1.874  13.691 -0.2394 -0.0267  0.1863
 7787TIP3    H144776   5.001   1.909  13.602 -0.8038 -1.8691 -0.5219
 7787TIP3    H244777   5.089   1.916  13.725 -0.7285  1.7112 -0.6682
 7788TIP3   OH244778   0.672   1.612  14.722 -0.1308 -0.0306 -0.1611
 7788TIP3    H144779   0.598   1.657  14.682  1.5517  0.2328 -3.2718
 7788TIP3    H244780   0.724   1.682  14.761 -0.1474  0.0917 -0.3575
 7789TIP3   OH244781   1.189   5.762  11.351  0.1000  0.2304 -0.8894
 7789TIP3    H144782   1.101   5.760  11.389  0.5202  0.4909  0.1535
 7789TIP3    H244783   1.175   5.758  11.257 -1.0599  0.9297 -0.7689
 7790TIP3   OH244784   1.213   5.439   2.477 -0.0751  0.2603 -0.6690
 7790TIP3    H144785   1.173   5.520   2.510 -1.2674  0.0330 -1.4721
 7790TIP3    H244786   1.297   5.467   2.441  1.5670  0.4560  2.8589
 7791TIP3   OH244787   0.932   3.187   2.508  0.4921 -0.4578  0.4154
 7791TIP3    H144788   1.024   3.175   2.530  0.9421  0.9900 -0.5372
 7791TIP3    H244789   0.884   3.150   2.582  1.8619 -0.2118  1.4597
 7792TIP3   OH244790   2.766   0.954   1.295 -0.2442 -0.1188  0.4218
 7792TIP3    H144791   2.747   1.031   1.242 -1.5935 -0.8981 -0.2753
 7792TIP3    H244792   2.800   0.890   1.232 -3.8311 -1.7880 -0.0160
 7793TIP3   OH244793   1.868   0.518   3.712  0.4951  0.8299 -0.1559
 7793TIP3    H144794   1.907   0.563   3.638 -0.5605 -0.6453 -1.6757
 7793TIP3    H244795   1.776   0.508   3.689 -0.1332  1.3187  1.8798
 7794TIP3   OH244796   0.426   1.012  16.833 -0.8755  0.7019  0.2394
 7794TIP3    H144797   0.488   1.002  16.905  1.2248 -1.2844 -1.6593
 7794TIP3    H244798   0.395   0.923  16.816 -0.9975  1.0487 -1.5266
 7795TIP3   OH244799   3.363   4.405  12.427 -0.7916 -0.2230  0.3298
 7795TIP3    H144800   3.339   4.494  12.451  1.9044  0.3738  1.2162
 7795TIP3    H244801   3.412   4.415  12.345 -0.5981 -0.9171  0.3519
 7796TIP3   OH244802   5.904   2.774  11.530 -0.4928  0.1674 -0.1091
 7796TIP3    H144803   5.903   2.719  11.451 -0.7593  0.3232 -0.2140
 7796TIP3    H244804   5.997   2.779  11.554 -0.1538  1.7365 -1.5557
 7797TIP3   OH244805   0.818   3.121  14.732  0.2104  0.1500  0.1028
 7797TIP3    H144806   0.748   3.125  14.667  0.5051  1.0074 -0.1683
 7797TIP3    H244807   0.840   3.028  14.737 -1.9460 -0.3486  1.2761
 7798TIP3   OH244808   0.019   5.810   5.479  0.2950  0.6600  0.2851
 7798TIP3    H144809  -0.021   5.729   5.511 -0.3728  0.8282 -0.1040
 7798TIP3    H244810   0.015   5.870   5.553  0.2174  0.5335  0.3829
 7799TIP3   OH244811   5.295   5.111  11.013  0.1112  0.1769  0.1565
 7799TIP3    H144812   5.387   5.132  10.997 -0.5733  2.6197 -0.8787
 7799TIP3    H244813   5.261   5.186  11.062 -0.9701 -1.4513  2.0646
 7800TIP3   OH244814   4.603   1.600   0.548 -0.0903  0.1530 -0.0185
 7800TIP3    H144815   4.528   1.607   0.489 -0.6698  0.8005  0.7634
 7800TIP3    H244816   4.645   1.518   0.525 -0.7652  0.0149 -0.7910
 7801TIP3   OH244817   5.885   0.677   0.098  0.2331  0.2660  0.5271
 7801TIP3    H144818   5.897   0.742   0.028  0.6389  1.4376  1.6377
 7801TIP3    H244819   5.809   0.625   0.070  2.1765 -1.3226 -2.2384
 7802TIP3   OH244820   5.289   1.724   4.283 -0.1574  0.1389  0.3961
 7802TIP3    H144821   5.317   1.772   4.360  0.5483  0.6071 -0.1416
 7802TIP3    H244822   5.327   1.637   4.293  0.0449  0.2418  0.5041
 7803TIP3   OH244823   4.403   0.231   5.546 -0.3648  0.9202 -0.2080
 7803TIP3    H144824   4.435   0.186   5.624  1.5373  0.0000 -1.4255
 7803TIP3    H244825   4.396   0.323   5.571  2.6141  1.0746  0.4506
 7804TIP3   OH244826   3.386   6.234   4.256 -0.5762 -0.2698  0.5104
 7804TIP3    H144827   3.456   6.200   4.312 -0.5914  0.1665  0.8007
 7804TIP3    H244828   3.306   6.220   4.306 -0.4838  1.0970  1.0863
 7805TIP3   OH244829   5.931   3.398   0.479  0.3531  0.0063  0.6937
 7805TIP3    H144830   5.988   3.475   0.480  0.1305  0.1973 -0.6473
 7805TIP3    H244831   5.843   3.433   0.466  0.2933 -0.4822 -0.3136
 7806TIP3   OH244832   1.764   6.415   0.151 -0.0940  0.0680 -0.1611
 7806TIP3    H144833   1.809   6.355   0.210 -0.4760 -0.6444 -0.5763
 7806TIP3    H244834   1.792   6.502   0.179  1.4604 -0.3500 -0.3689
 7807TIP3   OH244835   4.303   3.052   6.457 -0.9616  0.0665 -0.1605
 7807TIP3    H144836   4.392   3.037   6.426 -0.9613  0.3785 -0.3089
 7807TIP3    H244837   4.271   3.126   6.406 -1.6716 -0.6894 -0.8485
 7808TIP3   OH244838   4.293   5.695  14.594  0.3183  0.6603 -0.2875
 7808TIP3    H144839   4.224   5.708  14.658  0.2004 -0.9033 -0.0828
 7808TIP3    H244840   4.272   5.757  14.524  0.1309  1.9812  0.8827
 7809TIP3   OH244841   3.636   0.976  14.059  0.3811  0.3373  0.3096
 7809TIP3    H144842   3.653   0.897  14.009 -2.6859 -1.1383  1.3715
 7809TIP3    H244843   3.561   0.955  14.113 -0.4246  3.9127  0.8519
 7810TIP3   OH244844   0.292   0.816   1.361 -0.2171  0.0695  0.7122
 7810TIP3    H144845   0.356   0.745   1.352  0.0138  0.2703  0.7367
 7810TIP3    H244846   0.317   0.879   1.292 -0.9515 -0.2729  0.1202
 7811TIP3   OH244847   1.092   0.204   0.484  0.1587 -0.9134  0.0993
 7811TIP3    H144848   1.004   0.240   0.474  0.4375 -0.9181 -3.5572
 7811TIP3    H244849   1.080   0.110   0.481  0.2312 -0.9344  0.4285
 7812TIP3   OH244850   5.324   2.858  14.321 -0.7809 -0.0784 -0.9546
 7812TIP3    H144851   5.236   2.842  14.287 -0.6627  1.0624 -1.8509
 7812TIP3    H244852   5.331   2.800  14.397 -1.3354 -2.1719 -2.4160
 7813TIP3   OH244853   3.327   6.479   3.409 -0.0923 -0.2434 -0.4813
 7813TIP3    H144854   3.386   6.435   3.348  3.1768  2.9409  0.0291
 7813TIP3    H244855   3.276   6.539   3.354 -2.1138 -2.1083 -0.7611
 7814TIP3   OH244856   3.138   6.231   0.871 -0.5528 -0.0790 -0.0555
 7814TIP3    H144857   3.043   6.237   0.860 -0.3523  0.2530 -1.9168
 7814TIP3    H244858   3.171   6.208   0.784  1.0212 -1.0623  0.7472
 7815TIP3   OH244859   3.982   6.491  12.737  0.5034  0.2955 -0.2630
 7815TIP3    H144860   3.950   6.427  12.800 -1.3786 -0.4302 -1.8463
 7815TIP3    H244861   4.036   6.551  12.789  0.9004 -1.5397  1.5791
 7816TIP3   OH244862   0.768   0.719  15.103  0.4779 -0.4738 -0.0568
 7816TIP3    H144863   0.831   0.715  15.031 -0.2529  0.0256 -0.7476
 7816TIP3    H244864   0.768   0.811  15.130 -0.0328 -0.4401 -0.1485
 7817TIP3   OH244865   3.700   0.129  11.228 -0.8663 -0.0671 -0.0136
 7817TIP3    H144866   3.739   0.190  11.165  0.0687 -0.6404 -0.0137
 7817TIP3    H244867   3.687   0.048  11.179 -2.4817  0.2348 -0.1221
 7818TIP3   OH244868   6.630   6.499  13.334  0.5177 -0.4196 -0.2477
 7818TIP3    H144869   6.539   6.524  13.324  0.7802  1.2242  1.1521
 7818TIP3    H244870   6.635   6.456  13.419  1.3263  1.1614  0.5573
 7819TIP3   OH244871   6.290   1.684   1.387 -0.1256 -0.2275 -0.2996
 7819TIP3    H144872   6.226   1.661   1.454 -0.5230 -0.1986 -0.6644
 7819TIP3    H244873   6.335   1.761   1.422 -0.9655  0.3557 -0.4617
 7820TIP3   OH244874   3.766   2.041   4.709 -0.5885 -0.2145  0.2892
 7820TIP3    H144875   3.757   2.123   4.661  0.0376 -1.2272 -1.6796
 7820TIP3    H244876   3.677   2.012   4.726 -0.8609 -0.2685 -1.1214
 7821TIP3   OH244877   5.515   6.506  13.831  0.5621  0.1483  0.3355
 7821TIP3    H144878   5.529   6.418  13.867 -1.2147  0.0738  0.9659
 7821TIP3    H244879   5.445   6.494  13.767  0.4396  1.0672  0.2907
 7822TIP3   OH244880   6.720   5.802   4.863  0.1058 -0.2066 -0.0055
 7822TIP3    H144881   6.809   5.781   4.835 -0.5202 -2.9695 -0.2405
 7822TIP3    H244882   6.715   5.771   4.953 -0.6912 -0.3432 -0.0865
 7823TIP3   OH244883   4.719   4.591  15.086 -0.2007  1.0380 -0.3682
 7823TIP3    H144884   4.758   4.643  15.016 -1.5251  0.0207 -1.9148
 7823TIP3    H244885   4.627   4.617  15.088 -0.1845  1.1001  1.0763
 7824TIP3   OH244886   2.577   1.245  12.978 -0.0527  0.5506 -0.0318
 7824TIP3    H144887   2.498   1.197  13.000 -0.3162  1.3085  0.7322
 7824TIP3    H244888   2.647   1.179  12.982 -0.3654  0.2731  1.2681
 7825TIP3   OH244889   6.780   5.849   5.225  0.2618  1.3853  0.6477
 7825TIP3    H144890   6.786   5.756   5.200 -2.1765  1.1203  0.7446
 7825TIP3    H244891   6.820   5.854   5.312 -0.1462  0.2738  0.9158
 7826TIP3   OH244892   6.386   4.075   1.952  0.1512 -0.2297 -0.6163
 7826TIP3    H144893   6.378   3.991   1.905  0.8498 -1.9967  2.1966
 7826TIP3    H244894   6.479   4.096   1.947  0.0604  0.1191 -0.8674
 7827TIP3   OH244895   5.363   2.345  15.718  0.0176  0.6129  0.0702
 7827TIP3    H144896   5.366   2.353  15.813  1.2620  0.7979  0.0346
 7827TIP3    H244897   5.425   2.275  15.698 -1.9035 -1.0137 -0.4705
 7828TIP3   OH244898   3.339   4.774  14.209 -0.2496  0.1285  0.5377
 7828TIP3    H144899   3.428   4.796  14.236 -0.1968  0.6079  0.0002
 7828TIP3    H244900   3.350   4.697  14.153 -0.2844 -0.4177  1.2667
 7829TIP3   OH244901   4.306   0.106   2.264  0.2856  0.1771  0.1683
 7829TIP3    H144902   4.234   0.062   2.219  0.8465 -0.2912 -0.2967
 7829TIP3    H244903   4.376   0.040   2.266  1.7379  1.5434 -1.9805
 7830TIP3   OH244904   2.350   0.597   2.175  0.0681  0.1213 -0.2954
 7830TIP3    H144905   2.256   0.583   2.186  0.1889 -1.5930 -1.0868
 7830TIP3    H244906   2.382   0.515   2.138  1.7507  0.9831 -0.8407
 7831TIP3   OH244907   2.163   2.566   2.458  0.4925  0.5208 -0.1737
 7831TIP3    H144908   2.204   2.557   2.372 -0.6929  0.5321 -0.7668
 7831TIP3    H244909   2.107   2.488   2.466  1.5741 -0.1578  1.1646
 7832TIP3   OH244910   4.670   2.659   5.223 -0.0647  0.2564 -0.2216
 7832TIP3    H144911   4.727   2.631   5.151 -0.6619 -1.9599  0.0929
 7832TIP3    H244912   4.698   2.605   5.297 -0.0110  1.9252  1.0202
 7833TIP3   OH244913   5.349   0.739   4.339 -0.3373 -0.3396  0.5393
 7833TIP3    H144914   5.254   0.748   4.331 -0.2841 -1.1802 -1.6568
 7833TIP3    H244915   5.363   0.645   4.347  0.4117 -0.5066 -1.9473
 7834TIP3   OH244916   3.387   6.333  10.992 -0.2128 -0.4340  0.3096
 7834TIP3    H144917   3.337   6.307  10.914  0.2618 -0.2914 -0.0520
 7834TIP3    H244918   3.355   6.276  11.061  0.5534 -1.7844 -0.3935
 7835TIP3   OH244919   3.987   2.065   1.342 -0.4340 -0.4549 -0.1001
 7835TIP3    H144920   4.004   2.135   1.404 -0.4545  0.3958 -1.0249
 7835TIP3    H244921   4.053   1.998   1.361  0.1999  0.2377  0.1604
 7836TIP3   OH244922   0.658   4.940   4.822 -0.1188  0.2118 -0.6278
 7836TIP3    H144923   0.735   4.944   4.766  0.0147  0.0049 -0.4583
 7836TIP3    H244924   0.606   4.868   4.786  0.4028 -0.5331  0.0648
 7837TIP3   OH244925   2.101   6.258  12.617 -0.0312 -0.3737 -0.0709
 7837TIP3    H144926   2.166   6.202  12.660 -0.1980 -0.7934 -0.3656
 7837TIP3    H244927   2.066   6.204  12.547 -0.8922 -0.2429  0.2513
 7838TIP3   OH244928   4.122   5.726  15.460 -0.0159 -0.1218 -0.1293
 7838TIP3    H144929   4.191   5.721  15.394 -0.3595  1.3309 -0.6228
 7838TIP3    H244930   4.063   5.795  15.428  0.5882  1.7043  2.4383
 7839TIP3   OH244931   3.758   3.573   2.581  0.0329 -0.2510  0.8482
 7839TIP3    H144932   3.688   3.533   2.529  2.9568 -2.8445 -1.4853
 7839TIP3    H244933   3.774   3.657   2.539  0.7800 -1.3081 -1.1337
 7840TIP3   OH244934   3.722   5.603   1.621  0.3920 -0.5340 -0.3790
 7840TIP3    H144935   3.726   5.517   1.579 -1.8256 -0.2589 -1.2695
 7840TIP3    H244936   3.640   5.602   1.671  1.4645  0.2628  1.5143
 7841TIP3   OH244937   4.357   5.173  12.504 -1.0498  0.5129 -0.4717
 7841TIP3    H144938   4.408   5.196  12.427 -0.8722  0.7309 -0.2908
 7841TIP3    H244939   4.266   5.176  12.475 -0.9535 -0.0998 -0.8554
 7842TIP3   OH244940   5.698   3.731   4.903  0.0647 -0.3651 -0.1864
 7842TIP3    H144941   5.621   3.787   4.910  0.3160 -0.2002  1.8292
 7842TIP3    H244942   5.704   3.688   4.989  2.6707  0.2438  0.0204
 7843TIP3   OH244943   5.345   2.184   5.918 -0.3644 -0.0434  0.1543
 7843TIP3    H144944   5.441   2.185   5.913 -0.1816 -2.8317  1.3435
 7843TIP3    H244945   5.320   2.098   5.884 -2.3058 -0.0671  1.4578
 7844TIP3   OH244946   2.737   3.377  13.197 -0.1382 -1.2732 -0.3777
 7844TIP3    H144947   2.823   3.418  13.196  0.2191 -1.9376 -2.5788
 7844TIP3    H244948   2.743   3.310  13.266  2.0106 -2.9756 -2.0602
 7845TIP3   OH244949   4.174   0.971   1.490 -0.3710 -0.2912 -0.3635
 7845TIP3    H144950   4.083   0.976   1.459 -1.3168 -0.3708  2.1726
 7845TIP3    H244951   4.167   0.937   1.579  1.9559  1.6114  0.6613
 7846TIP3   OH244952   3.927   6.775  11.612 -0.0095 -0.2764 -0.1120
 7846TIP3    H144953   3.968   6.848  11.658  0.6349 -1.1249  0.6965
 7846TIP3    H244954   3.943   6.792  11.519  0.0166  0.6678  0.0622
 7847TIP3   OH244955   0.095   2.696   1.272  0.2168 -0.2768  0.1530
 7847TIP3    H144956   0.069   2.604   1.261  0.7276 -0.4030 -0.0522
 7847TIP3    H244957   0.013   2.745   1.273 -0.0329 -0.6779 -0.3380
 7848TIP3   OH244958   2.802   1.622  17.261 -0.3146 -0.1796  0.2664
 7848TIP3    H144959   2.831   1.540  17.220  0.0266 -0.9544  1.9718
 7848TIP3    H244960   2.707   1.621  17.251 -0.1058  1.0245 -2.9016
 7849TIP3   OH244961   4.313   3.272   1.562  0.5492  0.3803  0.0556
 7849TIP3    H144962   4.390   3.215   1.559  0.8993  0.8174  0.6545
 7849TIP3    H244963   4.306   3.307   1.473  0.0998 -0.8826 -0.4315
 7850TIP3   OH244964   4.337   3.508  13.821  0.2028  0.1533  0.1753
 7850TIP3    H144965   4.246   3.481  13.825  0.2535 -0.0943 -0.3077
 7850TIP3    H244966   4.380   3.461  13.892  0.0489 -0.0871  0.1072
 7851TIP3   OH244967   3.474   4.313   3.288 -0.1023  0.1675  0.7003
 7851TIP3    H144968   3.409   4.360   3.339  0.4089  0.4314  1.1145
 7851TIP3    H244969   3.557   4.356   3.309  0.2944 -0.5688  0.6611
 7852TIP3   OH244970   3.553   3.390   0.293  0.5795  0.2878 -0.4519
 7852TIP3    H144971   3.640   3.411   0.327  1.0220 -0.4414 -1.1227
 7852TIP3    H244972   3.557   3.297   0.271 -1.2107 -0.5105  2.0439
 7853TIP3   OH244973   5.020   4.888   4.128 -0.0572 -0.2461 -0.3023
 7853TIP3    H144974   5.041   4.798   4.101  3.4370 -0.9720  3.7123
 7853TIP3    H244975   5.093   4.940   4.097 -0.0265  0.3703  0.7388
 7854TIP3   OH244976   4.692   6.376   4.678  0.0281 -0.2337 -0.0550
 7854TIP3    H144977   4.777   6.373   4.723 -0.0052  0.2603  0.0437
 7854TIP3    H244978   4.632   6.414   4.742  0.1711  1.3360 -0.7836
 7855TIP3   OH244979   4.340   4.776   0.043 -0.0962  0.1224  0.7496
 7855TIP3    H144980   4.418   4.720   0.036  0.8164  1.3749  0.4796
 7855TIP3    H244981   4.376   4.864   0.052 -1.4925  0.8641 -0.5798
 7856TIP3   OH244982   3.498   1.550  12.350 -0.2037 -0.1684 -0.2299
 7856TIP3    H144983   3.457   1.629  12.383  1.8501  1.8575 -2.2175
 7856TIP3    H244984   3.541   1.511  12.426 -1.1112  0.6764  0.7346
 7857TIP3   OH244985   6.211   2.657  13.745  0.4694 -0.0144 -0.0692
 7857TIP3    H144986   6.296   2.624  13.715  0.9209 -0.8168  1.9493
 7857TIP3    H244987   6.232   2.727  13.807 -0.3378 -0.2223  0.4606
 7858TIP3   OH244988   1.594   0.531  12.854 -0.1424  0.5159 -0.5137
 7858TIP3    H144989   1.515   0.563  12.897 -0.3229  0.0300 -0.4818
 7858TIP3    H244990   1.657   0.602  12.864 -1.1238  1.6618 -2.1243
 7859TIP3   OH244991   0.923   0.767  16.908  0.1245 -0.2779 -0.5380
 7859TIP3    H144992   0.913   0.812  16.824  1.5155 -0.2231 -0.7013
 7859TIP3    H244993   0.928   0.837  16.972 -1.9426 -0.3338 -0.2371
 7860TIP3   OH244994   6.404   3.421  15.228  0.2173  0.6379  0.4186
 7860TIP3    H144995   6.356   3.427  15.310 -0.9019  2.5376 -0.3108
 7860TIP3    H244996   6.466   3.495  15.231  0.6573  0.3050 -0.1567
 7861TIP3   OH244997   2.816   1.638   0.483  0.4107 -0.1100  0.0096
 7861TIP3    H144998   2.818   1.568   0.548 -1.4690  0.6236  0.9358
 7861TIP3    H244999   2.900   1.682   0.492  0.2585 -0.1243  1.8549
 7862TIP3   OH245000   4.286   3.718   4.474 -0.2421 -0.5436 -0.4321
 7862TIP3    H145001   4.264   3.737   4.382  0.1140 -0.2843 -0.4653
 7862TIP3    H245002   4.286   3.804   4.516 -1.1832 -0.7375 -0.0121
 7863TIP3   OH245003   3.881   1.198  12.056 -0.1197 -0.1709  0.3297
 7863TIP3    H145004   3.858   1.224  12.145  0.2439  0.4416  0.2571
 7863TIP3    H245005   3.879   1.103  12.056 -4.1357 -0.2532 -0.0454
 7864TIP3   OH245006   4.935   0.977   5.195 -0.3852 -0.1586 -0.0620
 7864TIP3    H145007   4.983   1.060   5.195 -0.9149  0.1578 -0.4738
 7864TIP3    H245008   4.866   0.989   5.260  0.8274 -1.0805  1.4949
 7865TIP3   OH245009   4.786   2.986  13.798 -0.2748 -0.5198 -0.0452
 7865TIP3    H145010   4.816   2.909  13.751 -0.0279 -0.7551  0.4855
 7865TIP3    H245011   4.866   3.034  13.818 -0.5006  0.4878 -1.3842
 7866TIP3   OH245012   6.183   5.374  13.870  0.2548  0.7616 -0.0510
 7866TIP3    H145013   6.118   5.343  13.807  0.7964  0.1556 -0.3184
 7866TIP3    H245014   6.142   5.450  13.911 -1.8510 -1.2435  1.8568
 7867TIP3   OH245015   0.040   2.303   6.599  1.0010 -0.2141  0.2094
 7867TIP3    H145016  -0.046   2.269   6.576  1.1219  0.5012 -1.4350
 7867TIP3    H245017   0.029   2.398   6.603  1.2942 -0.2158  1.9681
 7868TIP3   OH245018   5.945   6.689  16.398  0.1077  0.4574  0.0854
 7868TIP3    H145019   5.863   6.662  16.439  0.0476  2.1972  1.2049
 7868TIP3    H245020   5.999   6.609  16.396 -1.7018 -0.8090 -1.0058
 7869TIP3   OH245021   1.284   2.056  14.632 -0.2445 -0.2021  0.1826
 7869TIP3    H145022   1.202   2.007  14.633 -0.3618 -0.0482 -0.7149
 7869TIP3    H245023   1.294   2.084  14.541  1.1854 -0.8476  0.1103
 7870TIP3   OH245024   3.013   2.390   4.186  0.0912 -0.3550 -0.0078
 7870TIP3    H145025   2.973   2.427   4.107 -1.8748 -1.8826  0.2150
 7870TIP3    H245026   3.063   2.315   4.155 -0.0484 -0.5005  0.1211
 7871TIP3   OH245027   4.715   4.037  15.185 -0.2405 -0.2103  0.0548
 7871TIP3    H145028   4.765   4.059  15.263 -0.5994 -0.7751  0.4482
 7871TIP3    H245029   4.629   4.075  15.200 -0.5417 -0.9631  0.2758
 7872TIP3   OH245030   4.690   1.218  11.519  0.1389  0.1416 -0.1811
 7872TIP3    H145031   4.703   1.127  11.492 -0.4853 -0.0628  0.1783
 7872TIP3    H245032   4.765   1.264  11.484  1.5812 -0.8883  1.3833
 7873TIP3   OH245033   4.410   5.139  15.410 -0.5435 -0.0748 -0.2576
 7873TIP3    H145034   4.483   5.084  15.379  0.0352  0.5158  0.0191
 7873TIP3    H245035   4.452   5.206  15.464 -1.3094  0.2377 -0.0346
 7874TIP3   OH245036   2.143   6.031   6.336 -0.1394 -0.4861 -0.2718
 7874TIP3    H145037   2.164   5.975   6.411 -1.6200  0.7558  1.1505
 7874TIP3    H245038   2.105   5.972   6.271  0.7490 -1.5073  0.1053
 7875TIP3   OH245039   3.154   5.212   2.035  0.1170 -0.5942 -0.4383
 7875TIP3    H145040   3.089   5.282   2.027  1.6283  0.5802 -4.2996
 7875TIP3    H245041   3.127   5.147   1.970  0.8868 -1.8474  0.4440
 7876TIP3   OH245042   5.970   1.504   5.767  0.1401  0.0914  0.4096
 7876TIP3    H145043   5.940   1.504   5.857 -2.2681 -1.4841 -0.2945
 7876TIP3    H245044   5.946   1.590   5.733 -0.1337  0.2171  0.9165
 7877TIP3   OH245045   6.030   3.910  14.238  0.4152 -0.1180 -0.7807
 7877TIP3    H145046   6.075   3.985  14.197 -1.3740 -0.4166 -3.5998
 7877TIP3    H245047   6.041   3.839  14.175  0.5507 -1.7610  1.0130
 7878TIP3   OH245048   2.175   1.625  14.113  0.5904  0.3445  0.2710
 7878TIP3    H145049   2.163   1.569  14.036  1.2679  0.6360 -0.0494
 7878TIP3    H245050   2.231   1.573  14.171  0.8018  0.4786  0.1893
 7879TIP3   OH245051   1.854   2.941   2.262 -0.0275 -0.3873  0.4128
 7879TIP3    H145052   1.884   2.886   2.334 -0.6441 -0.9426  0.2599
 7879TIP3    H245053   1.911   2.918   2.189 -0.8065 -1.4452  0.1189
 7880TIP3   OH245054   2.373   6.276  12.860 -0.2461  0.6123  0.3851
 7880TIP3    H145055   2.334   6.210  12.803  0.9081  0.2543 -0.0237
 7880TIP3    H245056   2.463   6.246  12.873  1.0860  3.3011 -1.7842
 7881TIP3   OH245057   4.955   1.068  17.052 -0.2089 -0.9861  0.3949
 7881TIP3    H145058   5.013   1.144  17.046  0.2072 -1.3192  0.1367
 7881TIP3    H245059   4.977   1.027  17.136 -1.4459 -0.0152  1.2173
 7882TIP3   OH245060   3.729   1.642  15.711  0.2174  0.3838 -0.0014
 7882TIP3    H145061   3.669   1.706  15.749 -0.2534  0.6184 -1.1155
 7882TIP3    H245062   3.688   1.615  15.629  0.0235 -1.9461  0.7960
 7883TIP3   OH245063   0.529   1.917  16.845 -0.3980 -0.4487 -0.1987
 7883TIP3    H145064   0.553   1.858  16.917 -2.2573 -0.7938  0.1866
 7883TIP3    H245065   0.435   1.930  16.855 -0.3327  1.1744 -1.3608
 7884TIP3   OH245066   0.151   1.067  17.114  0.5614 -0.2663  0.1277
 7884TIP3    H145067   0.068   1.115  17.107  1.4209  1.0585 -1.7899
 7884TIP3    H245068   0.125   0.975  17.122 -1.0846  0.0825 -0.8995
 7885TIP3   OH245069   5.482   0.204  11.608 -0.0618 -0.0368  0.5609
 7885TIP3    H145070   5.523   0.128  11.648 -0.5396 -0.9891 -0.6641
 7885TIP3    H245071   5.426   0.167  11.539  0.6970  1.4889 -0.9438
 7886TIP3   OH245072   1.994   2.760  14.672  0.5754  0.1429 -0.2159
 7886TIP3    H145073   1.959   2.849  14.670  1.5120  0.6339  2.3040
 7886TIP3    H245074   1.929   2.709  14.721 -0.2510 -0.7833 -2.1461
 7887TIP3   OH245075   3.866   0.927  12.097 -0.3733  0.0974  0.1217
 7887TIP3    H145076   3.783   0.958  12.133 -0.6161  2.4290 -2.1363
 7887TIP3    H245077   3.841   0.869  12.025 -0.0328  0.3884 -0.2346
 7888TIP3   OH245078   4.924   3.317   1.613  0.0177 -0.5627  0.2150
 7888TIP3    H145079   5.009   3.279   1.595  0.0721 -0.6811  0.7092
 7888TIP3    H245080   4.862   3.263   1.563  0.0210 -1.7177  1.4060
 7889TIP3   OH245081   5.928   2.133   2.945 -0.2298  0.2983 -0.2358
 7889TIP3    H145082   5.968   2.199   3.000  0.9194 -0.2801 -0.3412
 7889TIP3    H245083   5.988   2.122   2.871 -0.2585 -1.0298 -0.0947
 7890TIP3   OH245084   3.390   5.344   5.647 -0.0418 -0.8598 -0.4493
 7890TIP3    H145085   3.297   5.338   5.668 -0.4118  1.3148 -1.1977
 7890TIP3    H245086   3.435   5.323   5.728 -1.1968 -1.5915  0.0123
 7891TIP3   OH245087   2.437   2.953   1.346 -0.3035 -0.2395  0.4814
 7891TIP3    H145088   2.416   3.023   1.408 -0.9934 -0.5208  0.5649
 7891TIP3    H245089   2.379   2.881   1.370 -0.6819 -0.3007 -0.5910
 7892TIP3   OH245090   5.070   6.561   2.869  0.1494 -0.5236  0.4981
 7892TIP3    H145091   4.987   6.573   2.914 -0.4056  0.3458 -0.7309
 7892TIP3    H245092   5.075   6.467   2.853 -1.5619 -0.3781 -1.1792
 7893TIP3   OH245093   5.126   4.943   2.067 -0.3021  0.2066 -0.2176
 7893TIP3    H145094   5.166   5.010   2.011 -0.1569 -0.1470 -0.5406
 7893TIP3    H245095   5.159   4.860   2.032 -0.0117 -0.0060  0.5543
 7894TIP3   OH245096   2.249   1.756  12.978  0.4047 -0.2184 -0.4277
 7894TIP3    H145097   2.177   1.694  12.964  0.6592 -0.4465 -0.7275
 7894TIP3    H245098   2.223   1.833  12.927  0.7750 -0.6183 -1.2388
 7895TIP3   OH245099   0.084   0.732   3.768 -0.2116  0.6427 -0.4213
 7895TIP3    H145100   0.064   0.668   3.836 -1.3628  2.0306  0.6041
 7895TIP3    H245101   0.177   0.751   3.779 -0.3240  0.6308  0.5698
 7896TIP3   OH245102   5.007   3.577   3.493 -0.0595  0.3910 -0.1458
 7896TIP3    H145103   5.015   3.641   3.564  0.6472 -0.3977  0.5117
 7896TIP3    H245104   4.923   3.534   3.508  0.2150  0.0335  0.3896
 7897TIP3   OH245105   1.210   3.891  12.858  0.1249 -0.5748 -0.2857
 7897TIP3    H145106   1.300   3.867  12.837 -0.8752 -2.9154 -2.3725
 7897TIP3    H245107   1.176   3.930  12.777 -0.6848  0.6508  0.5973
 7898TIP3   OH245108   0.865   6.528  16.192 -0.3034  0.4974 -0.2044
 7898TIP3    H145109   0.929   6.503  16.125  0.4662 -0.6480  0.9277
 7898TIP3    H245110   0.856   6.623  16.181  0.3124  0.4356 -1.4788
 7899TIP3   OH245111   2.575   3.846   5.612  0.4130  0.2828  0.3011
 7899TIP3    H145112   2.626   3.785   5.664  1.9312 -0.4690 -1.9378
 7899TIP3    H245113   2.628   3.862   5.534 -1.1218  2.4381 -0.3943
 7900TIP3   OH245114   0.812   1.032   1.170  0.1981 -0.1440 -0.3454
 7900TIP3    H145115   0.774   1.084   1.099  0.8983  0.9571  0.0641
 7900TIP3    H245116   0.857   1.096   1.225  0.2938 -1.0748  0.6896
 7901TIP3   OH245117   6.215   1.805   0.237 -0.1832  0.5997  0.3709
 7901TIP3    H145118   6.212   1.783   0.331 -0.7379  1.6038  0.6056
 7901TIP3    H245119   6.280   1.876   0.232  0.6383 -0.1715 -0.1792
 7902TIP3   OH245120   3.700   5.564   2.929 -0.4896 -0.0882 -0.1401
 7902TIP3    H145121   3.733   5.594   2.844  1.0811 -1.8934 -0.2405
 7902TIP3    H245122   3.765   5.594   2.992 -0.2918 -0.9507  0.0804
 7903TIP3   OH245123   3.058   0.883   2.537 -0.2105 -0.4986 -0.5718
 7903TIP3    H145124   2.977   0.882   2.588  1.1304 -0.1383  1.6577
 7903TIP3    H245125   3.106   0.805   2.566  0.0200 -1.0798 -2.3512
 7904TIP3   OH245126   5.884   6.164   6.102 -0.2568 -0.3345 -0.3198
 7904TIP3    H145127   5.823   6.103   6.145  1.1645 -1.0603  0.7647
 7904TIP3    H245128   5.836   6.198   6.027 -1.5817 -1.7560 -0.1524
 7905TIP3   OH245129   4.422   1.918   3.125  0.0141 -0.1252  0.2821
 7905TIP3    H145130   4.434   1.979   3.051  1.1932 -0.0404  0.5348
 7905TIP3    H245131   4.510   1.901   3.157 -0.5016  0.2396  2.0115
 7906TIP3   OH245132   4.449   3.826  11.706  0.2700  0.3824 -0.1709
 7906TIP3    H145133   4.460   3.846  11.799 -0.5368  0.6266 -0.1203
 7906TIP3    H245134   4.420   3.735  11.703 -2.6525  1.1921  0.0481
 7907TIP3   OH245135   4.367   6.088   0.041 -0.0176 -0.1062  0.2961
 7907TIP3    H145136   4.315   6.151   0.091  0.4598  0.0788  0.5570
 7907TIP3    H245137   4.405   6.030   0.107  0.9165  0.3646  0.1824
 7908TIP3   OH245138   2.646   0.749   3.937  0.7245  0.3367  0.4811
 7908TIP3    H145139   2.673   0.724   4.025  2.1498  1.6372  0.4502
 7908TIP3    H245140   2.559   0.787   3.948  0.2492 -0.8620  1.0803
 7909TIP3   OH245141   4.892   1.324  14.908 -0.7930 -0.4404 -0.0756
 7909TIP3    H145142   4.873   1.389  14.841 -1.6330 -1.0594 -0.4544
 7909TIP3    H245143   4.971   1.357  14.951  0.8341 -0.8768 -2.5037
 7910TIP3   OH245144   5.631   1.248  13.172  0.3545  0.1120  0.2148
 7910TIP3    H145145   5.580   1.177  13.132 -1.4477  1.4247  0.0629
 7910TIP3    H245146   5.674   1.291  13.098 -0.0777  0.3097  0.0698
 7911TIP3   OH245147   3.667   4.247  16.348 -0.0763  0.3370  0.1157
 7911TIP3    H145148   3.628   4.215  16.266 -0.6501  0.6700  0.2580
 7911TIP3    H245149   3.723   4.175  16.377 -0.0993  0.0976 -0.4140
 7912TIP3   OH245150   5.386   3.502   6.351  0.0087 -0.2884 -0.0748
 7912TIP3    H145151   5.314   3.496   6.288 -0.8263  0.3839  0.7880
 7912TIP3    H245152   5.426   3.587   6.334 -0.8988  0.3748  0.9828
 7913TIP3   OH245153   1.123   0.470   4.760  0.6542 -0.4503 -0.4922
 7913TIP3    H145154   1.148   0.550   4.805  1.2818 -0.9702  0.1133
 7913TIP3    H245155   1.117   0.495   4.668 -1.9673  0.9502 -0.0172
 7914TIP3   OH245156   4.545   4.781   4.558 -0.1566 -0.6088 -0.1693
 7914TIP3    H145157   4.503   4.736   4.631 -1.2262 -0.2624 -0.5552
 7914TIP3    H245158   4.632   4.742   4.553  0.8117  0.9148  2.6985
 7915TIP3   OH245159   2.190   5.276   5.786 -0.0753  0.8308 -0.2464
 7915TIP3    H145160   2.210   5.302   5.696 -0.1927  1.9004  0.0194
 7915TIP3    H245161   2.117   5.214   5.778  0.6657  0.0319 -0.9510
 7916TIP3   OH245162   1.138   0.106  15.801 -0.1767  0.4903  0.4351
 7916TIP3    H145163   1.056   0.078  15.760  0.5903 -1.3388  0.0622
 7916TIP3    H245164   1.172   0.174  15.744 -1.3304  1.1498  0.5019
 7917TIP3   OH245165   4.213   5.352  12.747 -0.0243  0.2327  0.4799
 7917TIP3    H145166   4.271   5.292  12.699  1.1959  0.5878  1.4677
 7917TIP3    H245167   4.249   5.438  12.729 -1.2022  0.6250 -0.1449
 7918TIP3   OH245168   4.208   0.051   4.314  0.1410  0.2211 -0.1430
 7918TIP3    H145169   4.118   0.066   4.283  0.7056  0.4475 -1.7712
 7918TIP3    H245170   4.197   0.018   4.403 -1.5184  1.1625  0.0518
 7919TIP3   OH245171   2.981   5.282   3.706  0.5191  0.3546  0.1366
 7919TIP3    H145172   2.919   5.209   3.719  1.0827 -0.6701 -2.3566
 7919TIP3    H245173   3.067   5.241   3.715  0.8860  1.3132  1.2938
 7920TIP3   OH245174   1.614   6.563  17.201 -0.2444  0.4058  0.2086
 7920TIP3    H145175   1.670   6.597  17.270  0.7293 -0.4365 -0.1388
 7920TIP3    H245176   1.648   6.602  17.121  0.4663 -0.8312 -0.1142
 7921TIP3   OH245177   1.274   4.944   4.252  0.9532 -0.8609 -0.5813
 7921TIP3    H145178   1.314   4.974   4.334  1.7921  1.2054 -1.6713
 7921TIP3    H245179   1.211   4.877   4.279  2.2775 -1.3299  1.5899
 7922TIP3   OH245180   2.391   5.010   3.435 -0.2567 -0.4596  0.8010
 7922TIP3    H145181   2.314   5.063   3.455 -0.4706 -0.4757  0.0466
 7922TIP3    H245182   2.363   4.954   3.362  0.5333 -0.3223  0.3904
 7923TIP3   OH245183   1.940   3.967   5.157 -0.4370  0.2530  0.6989
 7923TIP3    H145184   1.953   4.059   5.180  1.9673 -0.2983  1.7997
 7923TIP3    H245185   1.950   3.920   5.239 -0.1049 -1.1199 -0.1038
 7924TIP3   OH245186   4.834   4.705  13.709  0.8709 -0.6227 -0.4721
 7924TIP3    H145187   4.868   4.795  13.707 -1.2648  0.3128  1.2471
 7924TIP3    H245188   4.783   4.700  13.790 -1.0811 -2.6379 -1.6965
 7925TIP3   OH245189   2.037   6.608   1.313  0.7312  0.5557  0.2524
 7925TIP3    H145190   2.027   6.553   1.236  0.8591 -0.5003  0.9649
 7925TIP3    H245191   2.025   6.698   1.281  0.9596  0.1505 -1.0083
 7926TIP3   OH245192   0.296   2.624   3.906  0.5295  0.6314 -0.2090
 7926TIP3    H145193   0.224   2.677   3.871  0.5740  1.1380  0.4446
 7926TIP3    H245194   0.287   2.630   4.001 -2.3734 -4.4375  0.1893
 7927TIP3   OH245195   3.397   4.177  10.909  0.1031 -0.8070  0.4744
 7927TIP3    H145196   3.313   4.152  10.948 -0.6450 -0.4584 -0.8728
 7927TIP3    H245197   3.387   4.161  10.816  1.5386 -0.7320  0.2784
 7928TIP3   OH245198   5.888   3.250  15.983 -0.0879  0.2926  0.1280
 7928TIP3    H145199   5.953   3.253  15.913  0.6513  2.6022  0.8481
 7928TIP3    H245200   5.936   3.219  16.060 -0.0347  1.1339  0.4430
 7929TIP3   OH245201   2.192   6.194  13.837 -0.2290  0.0480 -0.4566
 7929TIP3    H145202   2.227   6.279  13.865  1.1013 -0.2711 -1.1039
 7929TIP3    H245203   2.173   6.148  13.919  0.1775  0.5155 -0.0919
 7930TIP3   OH245204   6.075   0.833   4.663  0.3088 -0.1398 -0.2549
 7930TIP3    H145205   6.010   0.763   4.662  0.2615 -0.1292 -2.9509
 7930TIP3    H245206   6.157   0.791   4.637  0.6579  0.4916 -0.2183
 7931TIP3   OH245207   0.440   0.246   0.274 -0.0898 -0.3502  0.2904
 7931TIP3    H145208   0.424   0.324   0.326 -0.5627 -1.5162  1.9779
 7931TIP3    H245209   0.393   0.176   0.320  0.0080 -1.5663 -1.3604
 7932TIP3   OH245210   0.821   6.098  12.335  0.6120  0.7951  0.1464
 7932TIP3    H145211   0.757   6.063  12.397  1.0908  0.0100  0.2069
 7932TIP3    H245212   0.905   6.067  12.368  0.7593 -1.1336 -1.8303
 7933TIP3   OH245213   0.476   2.281   1.469 -0.0206 -0.0979 -0.4833
 7933TIP3    H145214   0.498   2.257   1.559  0.5366 -0.1925 -0.6366
 7933TIP3    H245215   0.412   2.352   1.478  1.6893  1.4742  0.0364
 7934TIP3   OH245216   1.429   5.984   0.014 -0.0799  0.0929  0.5589
 7934TIP3    H145217   1.521   6.005   0.026 -0.2719  2.5075 -1.3759
 7934TIP3    H245218   1.384   6.068   0.021 -1.5453 -0.1910 -3.0723
 7935TIP3   OH245219   6.359   5.378  13.504  0.6258  0.4299 -0.8839
 7935TIP3    H145220   6.281   5.416  13.545  1.8193  2.1886 -0.1608
 7935TIP3    H245221   6.358   5.411  13.414  0.2375 -0.0317 -1.0536
 7936TIP3   OH245222   4.459   4.831  11.344  0.6545  0.0842  0.4384
 7936TIP3    H145223   4.463   4.896  11.274 -1.2160  1.8190  1.8107
 7936TIP3    H245224   4.405   4.872  11.412 -0.8635 -3.0256  1.3125
 7937TIP3   OH245225   3.141   4.739  15.410 -0.3831  0.4826  0.1450
 7937TIP3    H145226   3.125   4.832  15.420  1.6998  0.7599  1.3526
 7937TIP3    H245227   3.196   4.733  15.331 -0.5830  0.2547  0.0209
 7938TIP3   OH245228   6.559   5.750   5.992  0.5662 -0.0385  0.0680
 7938TIP3    H145229   6.561   5.833   6.039  0.3709  0.3987 -0.6835
 7938TIP3    H245230   6.468   5.740   5.964  0.9176  0.3257 -1.2749
 7939TIP3   OH245231   6.527   5.840   2.906 -0.2705 -0.2358 -0.0844
 7939TIP3    H145232   6.435   5.834   2.933 -0.2259 -0.2767  0.0582
 7939TIP3    H245233   6.536   5.772   2.839 -0.2619 -0.4514  0.1355
 7940TIP3   OH245234   2.649   4.043  12.327 -0.4554 -0.4541 -0.2449
 7940TIP3    H145235   2.672   4.086  12.245  0.0275 -0.3610 -0.0643
 7940TIP3    H245236   2.554   4.055  12.334  0.0187  5.2971  2.3246
 7941TIP3   OH245237   1.234   0.277   0.694  0.5418  0.0706 -0.1588
 7941TIP3    H145238   1.158   0.309   0.742  0.1539  0.7121 -1.1786
 7941TIP3    H245239   1.198   0.241   0.613  1.3617  1.0011 -0.9671
 7942TIP3   OH245240   6.210   6.060  12.527 -0.6084  0.1092  0.0009
 7942TIP3    H145241   6.137   6.121  12.536 -0.9515 -0.5247  2.2191
 7942TIP3    H245242   6.207   6.032  12.436 -3.0740  0.2030 -0.0191
 7943TIP3   OH245243   0.383   4.112   1.586 -0.5152 -0.2244 -0.3786
 7943TIP3    H145244   0.298   4.153   1.572 -0.3011  0.6702  0.7830
 7943TIP3    H245245   0.416   4.094   1.498 -1.0405  1.2553 -0.9139
 7944TIP3   OH245246   0.863   2.448  12.974  0.7674 -0.4295  0.4250
 7944TIP3    H145247   0.860   2.528  13.026  1.0266  0.3508 -0.7079
 7944TIP3    H245248   0.883   2.379  13.037 -1.6196  0.0202  1.8107
 7945TIP3   OH245249   6.378   5.484  16.558 -0.0806 -0.1028 -0.4201
 7945TIP3    H145250   6.388   5.402  16.509 -0.2178 -1.0184  1.0151
 7945TIP3    H245251   6.465   5.503  16.591  0.2311  1.0776 -1.8243
 7946TIP3   OH245252   2.505   0.257   3.301 -1.0796  0.4671 -0.2898
 7946TIP3    H145253   2.492   0.184   3.362  0.3849 -1.7505 -2.4516
 7946TIP3    H245254   2.418   0.293   3.288 -1.8677 -0.9341  0.8214
 7947TIP3   OH245255   6.020   2.659   1.497  0.0087 -0.0855 -0.2152
 7947TIP3    H145256   5.989   2.747   1.477  0.5949 -0.0799 -1.1644
 7947TIP3    H245257   6.083   2.671   1.567  0.8280  0.3872 -1.0147
 7948TIP3   OH245258   4.496   6.305  11.634  0.2042 -0.6457 -0.2306
 7948TIP3    H145259   4.440   6.250  11.689 -0.6887  0.9881  0.5777
 7948TIP3    H245260   4.579   6.310  11.681  0.4323 -1.5797 -0.5081
 7949TIP3   OH245261   4.665   0.284  14.581 -0.1906  0.4193 -0.5472
 7949TIP3    H145262   4.609   0.223  14.629 -0.8003  0.9844 -0.5379
 7949TIP3    H245263   4.630   0.371  14.601  1.3390  0.8770  0.3235
 7950TIP3   OH245264   4.944   1.815  12.405 -0.4879 -0.2366 -0.5175
 7950TIP3    H145265   4.866   1.831  12.458 -1.0379 -0.0505 -1.3649
 7950TIP3    H245266   5.015   1.858  12.453 -0.8124 -0.7777  0.4831
 7951TIP3   OH245267   3.299   0.359   2.575  0.7066 -0.1897  0.1204
 7951TIP3    H145268   3.259   0.369   2.489  1.1611  1.0266  0.0269
 7951TIP3    H245269   3.379   0.411   2.570  0.1183  0.9608  1.6485
 7952TIP3   OH245270   4.458   4.900   6.413 -0.2277  0.2728 -0.6713
 7952TIP3    H145271   4.378   4.937   6.376 -0.7540 -0.3271 -0.1564
 7952TIP3    H245272   4.443   4.805   6.413 -0.2901  0.2504  1.1095
 7953TIP3   OH245273   3.497   2.846  13.991  0.0585  0.1874  0.2288
 7953TIP3    H145274   3.417   2.870  13.943 -0.1963 -0.7883  0.1398
 7953TIP3    H245275   3.545   2.791  13.930  0.7503  0.6649  0.3331
 7954TIP3   OH245276   0.749   1.504   1.336 -0.1892 -0.4118 -0.1436
 7954TIP3    H145277   0.729   1.520   1.428 -0.0604  1.4557 -0.3938
 7954TIP3    H245278   0.696   1.428   1.313 -1.2156 -0.1340  1.1382
 7955TIP3   OH245279   2.667   0.313   1.689  0.2531  0.4370 -0.2402
 7955TIP3    H145280   2.656   0.350   1.776  2.0053  0.7954 -0.1449
 7955TIP3    H245281   2.726   0.373   1.644 -0.8008  0.3910 -1.7747
 7956TIP3   OH245282   0.299   6.183  10.815 -0.0505 -0.0522  0.3406
 7956TIP3    H145283   0.309   6.253  10.751  0.0666 -0.4551 -0.0851
 7956TIP3    H245284   0.358   6.114  10.786 -0.1018 -0.3012  0.8010
 7957TIP3   OH245285   6.404   1.854  11.663 -0.2190 -0.1943 -0.1493
 7957TIP3    H145286   6.349   1.886  11.735 -0.2725  1.2072 -0.7960
 7957TIP3    H245287   6.482   1.909  11.665 -0.5207  0.3264 -1.5880
 7958TIP3   OH245288   1.752   6.697   0.162 -0.1523  0.3726  0.4738
 7958TIP3    H145289   1.812   6.730   0.229 -0.4560  4.7851 -1.0574
 7958TIP3    H245290   1.672   6.675   0.210  0.9952 -0.7808  1.9585
 7959TIP3   OH245291   1.266   3.606  15.378  0.1004 -0.4979 -0.3837
 7959TIP3    H145292   1.316   3.644  15.305  0.0533 -0.6290 -0.4831
 7959TIP3    H245293   1.275   3.512  15.367  0.6687 -0.5165  0.1712
 7960TIP3   OH245294   5.268   2.857   2.530 -0.5180 -0.2711 -0.0067
 7960TIP3    H145295   5.217   2.854   2.611 -1.1202 -2.1197 -0.4038
 7960TIP3    H245296   5.212   2.816   2.465 -0.7382  2.7020 -1.8358
 7961TIP3   OH245297   0.911   0.846   5.557  0.6240  0.1429  0.9582
 7961TIP3    H145298   0.943   0.802   5.479 -0.7240 -1.0924  1.0528
 7961TIP3    H245299   0.891   0.775   5.618 -3.0070  0.6832  0.6023
 7962TIP3   OH245300   2.222   4.119  10.739  0.2350  0.1627 -0.0461
 7962TIP3    H145301   2.214   4.028  10.711 -3.8949  0.5345 -0.6227
 7962TIP3    H245302   2.217   4.116  10.835 -4.5079 -0.1703 -0.0965
 7963TIP3   OH245303   2.709   3.906   4.678  0.3608 -0.3123 -0.9434
 7963TIP3    H145304   2.719   3.837   4.613  2.7038 -0.1851 -0.7937
 7963TIP3    H245305   2.769   3.975   4.649 -0.1726  0.6562  0.1936
 7964TIP3   OH245306   3.357   0.608  13.371 -0.1857 -0.4559  0.2341
 7964TIP3    H145307   3.439   0.602  13.323  0.3360 -1.6584  1.2350
 7964TIP3    H245308   3.307   0.675  13.324  0.8100 -0.6688 -1.1940
 7965TIP3   OH245309   4.655   0.049   0.045  0.3102  0.6354  0.0376
 7965TIP3    H145310   4.603  -0.010  -0.010  0.7842  1.0398 -0.8671
 7965TIP3    H245311   4.600   0.066   0.121  0.1846 -1.0185  0.3577
 7966TIP3   OH245312   6.581   5.842  11.674 -0.2390 -0.1028  0.0934
 7966TIP3    H145313   6.543   5.756  11.654  0.4140 -0.3514 -0.0929
 7966TIP3    H245314   6.574   5.891  11.592  2.0667 -0.9850 -0.7115
 7967TIP3   OH245315   0.834   0.319  15.552  0.4842  0.3786  0.2668
 7967TIP3    H145316   0.850   0.255  15.483  0.6073  0.0776  0.5756
 7967TIP3    H245317   0.756   0.367  15.522  0.3889  0.0835  0.0406
 7968TIP3   OH245318   0.193   1.472  14.940  0.1490 -0.3501  0.4804
 7968TIP3    H145319   0.151   1.490  14.856 -0.9470  0.1146  1.1132
 7968TIP3    H245320   0.239   1.389  14.927 -1.3061 -1.0904 -0.1253
 7969TIP3   OH245321   4.474   1.303   1.806 -0.4608  0.2757  0.2241
 7969TIP3    H145322   4.518   1.328   1.724 -1.8645 -0.3820 -0.7690
 7969TIP3    H245323   4.532   1.237   1.844 -0.2557 -0.1088 -0.7278
 7970TIP3   OH245324   1.103   4.012   2.214  0.7647  0.2379 -0.7124
 7970TIP3    H145325   1.145   3.976   2.136  0.8931  0.8838 -0.9491
 7970TIP3    H245326   1.118   3.946   2.282  0.5470 -0.3860 -1.2566
 7971TIP3   OH245327   5.327   1.302  14.794 -0.5149 -0.1808 -0.2682
 7971TIP3    H145328   5.352   1.390  14.766  1.9462 -0.7337 -0.0400
 7971TIP3    H245329   5.269   1.316  14.869 -0.7758  1.2278 -0.7057
 7972TIP3   OH245330   4.526   2.586  16.417  0.4744  0.5929 -0.3992
 7972TIP3    H145331   4.595   2.545  16.469  1.0722  1.6733 -0.3053
 7972TIP3    H245332   4.485   2.648  16.478  1.0010  1.6742 -1.1092
 7973TIP3   OH245333   2.547   2.946   3.060 -0.2628  0.9558 -0.0266
 7973TIP3    H145334   2.458   2.952   3.097 -0.2468  0.3051  0.1329
 7973TIP3    H245335   2.596   2.895   3.124 -0.1756 -0.0202 -0.8473
 7974TIP3   OH245336   2.645   6.359  14.231  1.0706  0.2664 -0.5559
 7974TIP3    H145337   2.613   6.446  14.206  0.8489  0.7417  1.2645
 7974TIP3    H245338   2.716   6.342  14.170 -0.7580  0.4105 -2.8645
 7975TIP3   OH245339   0.289   3.456   4.124 -0.1046 -0.0490  0.3792
 7975TIP3    H145340   0.323   3.545   4.127 -1.7511  0.5892  0.8234
 7975TIP3    H245341   0.343   3.408   4.187 -0.0146  0.9283  1.0607
 7976TIP3   OH245342   3.242   3.212   1.422 -0.3687  0.6511 -0.1055
 7976TIP3    H145343   3.148   3.199   1.412 -0.7113  2.5817  0.2236
 7976TIP3    H245344   3.250   3.282   1.486  1.3111  0.4522 -0.0499
 7977TIP3   OH245345   2.137   3.121   2.164 -0.3271  0.0688  0.0674
 7977TIP3    H145346   2.126   3.059   2.092  1.0447  0.3390 -0.3948
 7977TIP3    H245347   2.166   3.068   2.238  1.7628  0.2279 -0.5799
 7978TIP3   OH245348   5.645   6.302   3.780  0.5439 -0.0269 -0.5637
 7978TIP3    H145349   5.684   6.324   3.865  0.4551 -0.1466 -0.4912
 7978TIP3    H245350   5.718   6.264   3.730  0.1503 -1.9475  0.1964
 7979TIP3   OH245351   3.588   4.047   2.366 -0.4727  0.3962  0.1336
 7979TIP3    H145352   3.552   4.090   2.288 -1.3065 -0.8171 -0.1824
 7979TIP3    H245353   3.528   3.975   2.383  2.1672 -2.2355 -0.8467
 7980TIP3   OH245354   0.161   1.119   4.534 -0.3721 -0.1905  0.2854
 7980TIP3    H145355   0.079   1.145   4.492  0.0743  1.5948  0.4415
 7980TIP3    H245356   0.174   1.184   4.603  0.9761 -0.6871  0.5218
 7981TIP3   OH245357   5.552   5.767   3.856  0.3625  0.0955 -0.0721
 7981TIP3    H145358   5.544   5.839   3.794  1.3986  0.7432  0.5264
 7981TIP3    H245359   5.507   5.797   3.935  0.1790 -0.1974 -0.0636
 7982TIP3   OH245360   1.196   3.501   1.481  0.0157  0.4009 -0.1328
 7982TIP3    H145361   1.250   3.485   1.403  0.8415 -1.3718  0.7214
 7982TIP3    H245362   1.260   3.513   1.551 -0.6619 -0.8320  0.7403
 7983TIP3   OH245363   2.664   3.547  15.746 -0.7777 -1.2341  0.5416
 7983TIP3    H145364   2.591   3.553  15.808 -0.3095 -0.9257  1.0582
 7983TIP3    H245365   2.623   3.514  15.666 -1.6109 -0.4431  0.6271
 7984TIP3   OH245366   2.533   6.519  12.217  0.3827 -0.3258 -0.0587
 7984TIP3    H145367   2.459   6.480  12.263 -0.5461  0.5074 -0.7786
 7984TIP3    H245368   2.523   6.491  12.126  2.3333 -2.1577  0.2115
 7985TIP3   OH245369   1.348   0.866   0.896 -0.1391  0.3386  0.0864
 7985TIP3    H145370   1.358   0.878   0.991 -0.8403 -0.3725  0.2574
 7985TIP3    H245371   1.328   0.773   0.886 -1.0935  0.6215 -0.6840
 7986TIP3   OH245372   2.848   1.605  14.216 -0.5934  0.0848 -0.3047
 7986TIP3    H145373   2.922   1.635  14.163 -0.9874 -1.2633 -1.7078
 7986TIP3    H245374   2.772   1.652  14.181 -0.4445  1.5591  1.2148
 7987TIP3   OH245375   0.381   4.351  17.040 -0.4805 -0.0023  0.8215
 7987TIP3    H145376   0.442   4.412  17.082  0.4207 -0.7033  0.5692
 7987TIP3    H245377   0.377   4.276  17.099  1.5480 -1.4294 -0.6959
 7988TIP3   OH245378   0.038   5.113  15.902  0.0554  0.0421 -0.2438
 7988TIP3    H145379   0.111   5.144  15.848 -0.2620 -0.6486 -1.0949
 7988TIP3    H245380   0.065   5.133  15.992  0.2650  1.9118 -0.6724
 7989TIP3   OH245381   2.489   0.417   5.030 -0.3533 -0.5232 -0.6106
 7989TIP3    H145382   2.468   0.508   5.050  0.1164 -0.4096 -0.6430
 7989TIP3    H245383   2.423   0.392   4.965 -0.9308 -0.4330 -0.0644
 7990TIP3   OH245384   5.465   5.058  14.092  0.0578  0.0600 -0.1293
 7990TIP3    H145385   5.494   5.141  14.131  0.7855 -0.0823 -0.3408
 7990TIP3    H245386   5.459   4.998  14.166 -1.3623  0.5266  0.1559
 7991TIP3   OH245387   1.155   2.074   3.310 -0.0626  0.2535 -0.3547
 7991TIP3    H145388   1.166   2.093   3.216  0.1758 -1.2921 -0.6575
 7991TIP3    H245389   1.065   2.042   3.317  0.1149 -0.2017 -0.1513
 7992TIP3   OH245390   4.344   5.924   3.303  0.8154 -0.2836  0.1853
 7992TIP3    H145391   4.389   5.943   3.386  1.4149  1.7144 -0.5257
 7992TIP3    H245392   4.252   5.939   3.322  0.6716 -1.9808  1.0143
 7993TIP3   OH245393   6.654   1.903   3.179  0.2024  0.6328 -0.0698
 7993TIP3    H145394   6.593   1.920   3.251  1.6804  2.0144  0.9326
 7993TIP3    H245395   6.603   1.852   3.116 -1.1802 -0.5847  1.9032
 7994TIP3   OH245396   4.353   1.058  13.525 -0.0231 -0.1451 -0.1310
 7994TIP3    H145397   4.296   1.126  13.490 -1.3859 -0.3315  1.5479
 7994TIP3    H245398   4.347   1.069  13.620 -0.6411 -2.8215  0.2381
 7995TIP3   OH245399   5.486   3.393  17.113  0.2466 -0.2244  0.2192
 7995TIP3    H145400   5.405   3.391  17.165 -0.3398  0.5200 -0.6262
 7995TIP3    H245401   5.490   3.306  17.073 -0.5771 -0.0106 -0.3636
 7996TIP3   OH245402   4.618   1.597   6.148 -0.0929 -0.0403  0.5625
 7996TIP3    H145403   4.626   1.666   6.082 -0.8628 -1.0182 -0.5966
 7996TIP3    H245404   4.524   1.593   6.167  0.0115 -0.3963  1.0293
 7997TIP3   OH245405   5.171   5.814   3.785  0.7011  0.3129  0.4123
 7997TIP3    H145406   5.240   5.799   3.850 -1.3780  0.6645  2.8513
 7997TIP3    H245407   5.138   5.727   3.764  2.1186  0.1063 -1.1072
 7998TIP3   OH245408   0.092   0.524   3.993 -0.1220  0.3238 -0.3520
 7998TIP3    H145409   0.172   0.499   3.946  0.0868 -1.2866  0.7634
 7998TIP3    H245410   0.122   0.548   4.080 -0.8957 -1.0511  0.3226
 7999TIP3   OH245411   5.704   2.528   3.021 -0.7245  0.5901  0.6624
 7999TIP3    H145412   5.693   2.435   3.001  0.4634  0.9708 -2.3870
 7999TIP3    H245413   5.635   2.548   3.084 -0.6432 -2.4506  1.8585
 8000TIP3   OH245414   6.241   5.735   0.450 -0.0543  0.5204 -0.2235
 8000TIP3    H145415   6.222   5.646   0.479  0.8382  0.2478 -0.4666
 8000TIP3    H245416   6.332   5.750   0.472 -0.1689  1.3543 -0.2586
 8001TIP3   OH245417   4.938   6.438   1.362 -0.4905 -0.0378  0.6345
 8001TIP3    H145418   5.031   6.427   1.340 -0.2410  0.5603  1.3281
 8001TIP3    H245419   4.908   6.508   1.304 -0.3376  0.2089  0.8508
 8002TIP3   OH245420   3.749   2.294   2.691  0.6246  0.0677 -0.3164
 8002TIP3    H145421   3.751   2.288   2.787 -1.1004 -0.4043 -0.2658
 8002TIP3    H245422   3.681   2.232   2.665  1.6194 -0.4056 -1.9292
 8003TIP3   OH245423   5.244   5.084  11.804 -0.6831 -0.7902 -0.2558
 8003TIP3    H145424   5.263   5.013  11.743 -1.9100 -2.2343  0.9686
 8003TIP3    H245425   5.268   5.050  11.890 -0.5500  0.5885  0.2932
 8004TIP3   OH245426   0.772   5.077   5.423 -0.0625 -0.0730  0.1099
 8004TIP3    H145427   0.852   5.057   5.472  1.1150 -1.2717 -2.1300
 8004TIP3    H245428   0.800   5.138   5.355 -0.7036 -1.4984 -1.5168
 8005TIP3   OH245429   4.077   4.277   4.080 -0.6282  0.1559 -0.0863
 8005TIP3    H145430   4.086   4.352   4.021  1.4182  1.1667  1.4245
 8005TIP3    H245431   3.994   4.293   4.125 -1.6839 -0.0748 -1.8214
 8006TIP3   OH245432   3.567   2.890   0.215 -0.2804 -0.4653  0.0541
 8006TIP3    H145433   3.596   2.981   0.219  0.3205 -0.6943  2.7512
 8006TIP3    H245434   3.646   2.841   0.191 -0.1059 -0.4557  0.6049
 8007TIP3   OH245435   1.037   0.991  16.733 -0.4622  0.5163 -0.4992
 8007TIP3    H145436   1.096   0.950  16.797 -1.2713  0.4595  0.2168
 8007TIP3    H245437   1.076   0.969  16.648  0.1677 -0.1137 -0.0607
 8008TIP3   OH245438   0.941   1.606  16.457  0.7223  0.5314  0.3980
 8008TIP3    H145439   1.014   1.667  16.446 -0.0394  1.7547  1.8536
 8008TIP3    H245440   0.942   1.554  16.376  3.1220  0.5465  0.3294
 8009TIP3   OH245441   4.515   5.901  15.294 -0.2206  0.2718 -0.7048
 8009TIP3    H145442   4.589   5.917  15.236 -0.1770 -0.1151 -0.7579
 8009TIP3    H245443   4.522   5.809  15.317  1.7895  1.0922  2.6979
 8010TIP3   OH245444   3.498   3.976  16.824 -0.0738 -0.0654 -0.3552
 8010TIP3    H145445   3.483   3.977  16.729  2.9149 -0.8770 -0.9584
 8010TIP3    H245446   3.567   3.911  16.836  1.3918  1.7679  2.0831
 8011TIP3   OH245447   4.569   3.205  16.649 -0.0305  0.1916  0.1443
 8011TIP3    H145448   4.643   3.151  16.674 -1.8319 -2.8398 -0.5554
 8011TIP3    H245449   4.519   3.217  16.730 -0.4304 -0.6041  0.0284
 8012TIP3   OH245450   4.404   5.451  16.230 -0.4619  0.3673  0.3916
 8012TIP3    H145451   4.460   5.524  16.258  2.6091 -0.8998 -1.9891
 8012TIP3    H245452   4.327   5.494  16.192  0.7281  2.3377  0.0877
 8013TIP3   OH245453   5.919   4.584   5.250 -0.5022  0.5537  0.0899
 8013TIP3    H145454   5.959   4.671   5.255  2.1337 -0.5072 -0.5637
 8013TIP3    H245455   5.876   4.572   5.334 -0.9086  2.4432  0.2076
 8014TIP3   OH245456   2.129   2.425   4.937  0.2077 -0.1049  0.3793
 8014TIP3    H145457   2.073   2.503   4.940  0.4217  0.1995 -1.6541
 8014TIP3    H245458   2.179   2.429   5.018 -0.4211  1.3958  0.7440
 8015TIP3   OH245459   1.384   4.064   4.859 -0.0455 -0.6360 -0.3459
 8015TIP3    H145460   1.397   4.103   4.772  0.1078 -0.1712 -0.1174
 8015TIP3    H245461   1.353   4.136   4.913 -2.3134 -1.3777 -0.5220
 8016TIP3   OH245462   5.185   6.309  13.870  0.6134  0.5261 -0.1799
 8016TIP3    H145463   5.237   6.339  13.795  1.1722 -0.0585 -0.0418
 8016TIP3    H245464   5.247   6.257  13.922  0.0367  0.3116  0.3017
 8017TIP3   OH245465   5.670   4.199   3.357 -0.0469 -0.1415  0.9405
 8017TIP3    H145466   5.611   4.137   3.401 -0.4147  0.9029  1.9694
 8017TIP3    H245467   5.647   4.194   3.265 -1.3844 -0.1527  1.2632
 8018TIP3   OH245468   3.835   4.558  16.145  0.4044 -0.2613  0.4601
 8018TIP3    H145469   3.825   4.603  16.228 -0.4022 -0.7018  0.6163
 8018TIP3    H245470   3.745   4.541  16.116  0.6752 -0.1055 -0.5035
 8019TIP3   OH245471   2.673   4.320  16.116 -0.3596  0.0536 -0.4007
 8019TIP3    H145472   2.646   4.305  16.206 -0.7639  1.0639 -0.3377
 8019TIP3    H245473   2.603   4.373  16.078  0.9311  1.7696 -0.5544
 8020TIP3   OH245474   0.375   4.073  16.189  0.4386 -0.0741  0.1335
 8020TIP3    H145475   0.419   4.144  16.236  1.1841 -0.7863  0.5415
 8020TIP3    H245476   0.333   4.115  16.114 -0.6495  1.0607  1.3589
 8021TIP3   OH245477   0.343   6.402  15.457  0.0967  0.2612  1.0105
 8021TIP3    H145478   0.343   6.307  15.461 -0.4803  0.1003 -1.1705
 8021TIP3    H245479   0.302   6.430  15.539 -1.4452 -1.4553  0.9004
 8022TIP3   OH245480   3.297   2.190  12.167  0.8001 -0.0398  0.1778
 8022TIP3    H145481   3.386   2.169  12.196  1.3447  0.3776 -1.1279
 8022TIP3    H245482   3.270   2.114  12.116  0.7944  0.2482 -0.2544
 8023TIP3   OH245483   0.159   3.054   2.967 -0.2549 -0.9087  0.2034
 8023TIP3    H145484   0.196   3.008   2.892  0.0251  0.7858 -0.7482
 8023TIP3    H245485   0.065   3.038   2.962 -0.1342 -1.5909  0.0615
 8024TIP3   OH245486   4.172   1.552   0.444 -0.6823  0.3090  0.1107
 8024TIP3    H145487   4.086   1.556   0.486 -0.9945  1.4898 -0.5849
 8024TIP3    H245488   4.229   1.510   0.509 -1.9622 -1.3115  0.2449
 8025TIP3   OH245489   1.905   6.603   0.648 -0.7568  0.2734 -0.0485
 8025TIP3    H145490   1.862   6.519   0.665  0.2967  0.1803  2.6987
 8025TIP3    H245491   1.860   6.664   0.705 -0.4398  1.2496 -0.8201
 8026TIP3   OH245492   6.668   1.299  15.105 -0.3357  0.1107  0.2868
 8026TIP3    H145493   6.590   1.326  15.056 -0.5544 -0.0482  0.5407
 8026TIP3    H245494   6.739   1.352  15.070 -0.5907  0.3718  0.1634
 8027TIP3   OH245495   6.102   4.380   5.161 -0.3702  0.0704 -0.1869
 8027TIP3    H145496   6.038   4.312   5.141 -0.7030 -0.0203  1.0905
 8027TIP3    H245497   6.051   4.452   5.198  0.1220  0.5520 -0.4186
 8028TIP3   OH245498   2.723   1.792   3.079 -0.3159 -0.5227 -0.1531
 8028TIP3    H145499   2.792   1.839   3.032  1.0051 -2.8250 -0.6783
 8028TIP3    H245500   2.656   1.776   3.013 -1.6599  2.0917  0.4569
 8029TIP3   OH245501   5.536   5.521   3.744 -0.3846  0.7525 -0.4810
 8029TIP3    H145502   5.515   5.611   3.767  2.0409  1.1636  0.5219
 8029TIP3    H245503   5.553   5.479   3.828  0.3282 -0.1129 -1.0379
 8030TIP3   OH245504   4.921   4.247   4.769  0.2030  0.0398  0.3550
 8030TIP3    H145505   4.965   4.327   4.799  1.3343  0.2332 -1.6915
 8030TIP3    H245506   4.980   4.176   4.795  0.1325  0.0180  0.4594
 8031TIP3   OH245507   6.754   6.040  13.337 -0.2471  0.1019 -0.1543
 8031TIP3    H145508   6.783   6.131  13.345  1.0533 -0.4326  1.8738
 8031TIP3    H245509   6.664   6.041  13.368 -0.4286  0.7727 -0.6715
 8032TIP3   OH245510   0.446   2.021   2.184  0.1001 -0.1806 -0.2531
 8032TIP3    H145511   0.539   2.009   2.205  0.7843  0.6317 -2.5278
 8032TIP3    H245512   0.432   1.968   2.105 -0.5612  2.0603 -1.7211
 8033TIP3   OH245513   5.798   1.913   2.624  0.1990 -0.5218 -0.0968
 8033TIP3    H145514   5.739   1.949   2.690  1.9722 -0.1487  1.3928
 8033TIP3    H245515   5.741   1.885   2.553 -1.7311 -0.1398  1.2207
 8034TIP3   OH245516   2.486   5.382  11.856 -0.7498 -0.5225 -0.2837
 8034TIP3    H145517   2.559   5.331  11.819 -2.0836 -1.6863 -1.4395
 8034TIP3    H245518   2.426   5.316  11.891 -1.8621  0.3219 -0.5400
 8035TIP3   OH245519   0.359   1.894  14.908  0.1795 -0.4902  0.1072
 8035TIP3    H145520   0.395   1.808  14.884  0.5755  0.0047 -1.1797
 8035TIP3    H245521   0.432   1.954  14.900  0.1893 -0.1693  2.1305
 8036TIP3   OH245522   0.411   1.547  16.393  0.2520  0.0731  0.7490
 8036TIP3    H145523   0.487   1.562  16.449  0.3474 -2.5496  1.4611
 8036TIP3    H245524   0.356   1.487  16.442 -2.8259  2.5626  0.6338
 8037TIP3   OH245525   0.110   3.597  11.075 -0.1322  0.5069  0.0111
 8037TIP3    H145526   0.186   3.634  11.119 -0.9290  2.1879  0.0520
 8037TIP3    H245527   0.076   3.669  11.021 -1.6733 -0.2043 -0.0231
 8038TIP3   OH245528   1.914   5.405  13.938  0.3527 -0.0607  0.3881
 8038TIP3    H145529   1.969   5.388  13.861  1.4046  1.2814  0.8100
 8038TIP3    H245530   1.919   5.324  13.989  0.6077 -0.5413 -0.3775
 8039TIP3   OH245531   0.240   5.283   5.117  0.7414  0.8716  0.5084
 8039TIP3    H145532   0.231   5.378   5.123 -0.8350  0.8152 -0.3888
 8039TIP3    H245533   0.214   5.262   5.027 -1.6859 -0.6212  1.4528
 8040TIP3   OH245534   2.393   5.224  11.592  0.3060  0.4169  0.1674
 8040TIP3    H145535   2.420   5.310  11.625  0.7854  0.5861 -0.6332
 8040TIP3    H245536   2.305   5.212  11.625 -0.5448  2.1098 -1.2957
 8041TIP3   OH245537   4.780   4.296   5.659  0.1501  0.1585 -0.2579
 8041TIP3    H145538   4.721   4.226   5.688 -0.6927  0.8424 -0.3078
 8041TIP3    H245539   4.749   4.319   5.572 -1.7900  2.9405  1.0361
 8042TIP3   OH245540   2.385   4.911   5.634  0.3418  0.4378  0.6498
 8042TIP3    H145541   2.454   4.883   5.695 -0.2000 -0.5475  0.8292
 8042TIP3    H245542   2.305   4.874   5.670 -0.1609  0.8285 -0.0446
 8043TIP3   OH245543   0.434   4.488   4.908 -0.2211 -0.0893 -0.1361
 8043TIP3    H145544   0.525   4.505   4.883 -0.0456 -2.0153 -1.0657
 8043TIP3    H245545   0.388   4.478   4.825 -1.6108  2.0972  0.2954
 8044TIP3   OH245546   5.368   5.162  17.000  0.0705  0.1082 -0.0457
 8044TIP3    H145547   5.299   5.216  17.038  1.3978  0.3025  2.2721
 8044TIP3    H245548   5.369   5.083  17.052 -0.0541 -1.0397 -1.7005
 8045TIP3   OH245549   4.281   0.457  11.643 -0.3339  0.0688 -0.1604
 8045TIP3    H145550   4.245   0.503  11.568 -1.8305 -0.6240  0.1038
 8045TIP3    H245551   4.376   0.461  11.630 -0.5392  0.6144 -1.6836
 8046TIP3   OH245552   0.795   2.224  11.746  0.1312 -0.5747  0.6408
 8046TIP3    H145553   0.762   2.155  11.803 -2.8306  0.6144  0.5415
 8046TIP3    H245554   0.827   2.177  11.668 -2.3799 -1.8900  0.2882
 8047TIP3   OH245555   5.837   5.599  13.528  0.5563 -0.1299 -0.0919
 8047TIP3    H145556   5.775   5.626  13.596 -0.2948 -0.2695 -0.7890
 8047TIP3    H245557   5.852   5.679  13.476  0.2674 -0.3078 -0.4503
 8048TIP3   OH245558   0.947   1.662   4.679 -0.5671  0.2003 -0.1886
 8048TIP3    H145559   0.889   1.737   4.674  1.1585  1.5621 -0.6159
 8048TIP3    H245560   0.934   1.616   4.596 -0.7134  0.7412 -0.4674
 8049TIP3   OH245561   3.584   5.016  17.123  0.0383  0.3481  0.1071
 8049TIP3    H145562   3.647   5.016  17.051  0.1206 -0.8833  0.1678
 8049TIP3    H245563   3.637   5.034  17.201  0.1625  0.2544  0.0445
 8050TIP3   OH245564   2.521   0.768   0.298 -0.1607  0.2534  0.4170
 8050TIP3    H145565   2.493   0.779   0.390  0.8229 -0.4149  0.8045
 8050TIP3    H245566   2.523   0.673   0.285 -1.4806  0.3426 -0.6899
 8051TIP3   OH245567   3.639   1.710  11.020 -0.0713 -0.0858  0.1845
 8051TIP3    H145568   3.550   1.688  11.049  0.0225  0.2649  0.7661
 8051TIP3    H245569   3.693   1.695  11.098  0.6209 -1.7064 -0.5597
 8052TIP3   OH245570   3.190   2.178   4.091  0.0109 -0.0581 -0.4277
 8052TIP3    H145571   3.276   2.206   4.123  0.6498 -0.3435 -1.7986
 8052TIP3    H245572   3.196   2.187   3.996 -0.9346 -1.5785 -0.6721
 8053TIP3   OH245573   5.529   2.828   2.173 -0.1051 -0.3356 -0.0950
 8053TIP3    H145574   5.536   2.736   2.145 -0.1061 -0.2555 -0.3540
 8053TIP3    H245575   5.598   2.873   2.126 -0.5068 -0.0846 -0.4493
 8054TIP3   OH245576   1.803   0.345  11.241  0.9261 -0.0675 -0.0002
 8054TIP3    H145577   1.784   0.401  11.166  1.2687 -0.9490 -0.7589
 8054TIP3    H245578   1.829   0.406  11.311  0.8923  0.7385 -0.6804
 8055TIP3   OH245579   4.270   1.900   1.690  0.1240 -0.1902  1.2855
 8055TIP3    H145580   4.356   1.864   1.669 -0.8248 -1.2851 -1.1335
 8055TIP3    H245581   4.228   1.833   1.744 -0.2129 -0.9609  0.0865
 8056TIP3   OH245582   1.088   2.573   1.788 -0.5169  0.4423 -0.3097
 8056TIP3    H145583   1.036   2.607   1.715 -3.3186  0.1997  1.3985
 8056TIP3    H245584   1.078   2.478   1.783  0.4258  0.3347 -0.3568
 8057TIP3   OH245585   2.505   6.052  14.014  0.4250  0.0596  0.0607
 8057TIP3    H145586   2.528   5.968  13.977 -0.3674  0.4233 -1.3232
 8057TIP3    H245587   2.541   6.117  13.953  1.8311  0.7861  1.5681
 8058TIP3   OH245588   0.264   0.165   4.705  0.0605 -0.3538 -0.7999
 8058TIP3    H145589   0.316   0.088   4.680 -2.9000 -3.4164  1.5672
 8058TIP3    H245590   0.240   0.149   4.797 -1.6673  2.8980 -0.5368
 8059TIP3   OH245591   6.327   1.314   1.481 -0.5386 -0.3298 -0.1031
 8059TIP3    H145592   6.416   1.347   1.497  0.1312 -0.5011 -2.8811
 8059TIP3    H245593   6.294   1.292   1.568  1.3321  1.7018  1.2410
 8060TIP3   OH245594   6.344   2.164   5.872  0.4093 -0.2100  0.9550
 8060TIP3    H145595   6.437   2.182   5.857  0.3129 -1.0740 -1.1067
 8060TIP3    H245596   6.336   2.069   5.859 -0.8596 -0.0407  0.2788
 8061TIP3   OH245597   6.143   5.858  12.713  0.6782  0.8757  0.2194
 8061TIP3    H145598   6.228   5.836  12.751  1.3217  0.1634 -1.5157
 8061TIP3    H245599   6.163   5.929  12.651  0.1180  0.3821 -0.5479
 8062TIP3   OH245600   3.492   6.473   5.333  0.0036  0.3374 -0.7653
 8062TIP3    H145601   3.543   6.457   5.412 -0.1633 -1.6709 -1.0212
 8062TIP3    H245602   3.512   6.399   5.276 -0.5302  1.3126 -2.2747
 8063TIP3   OH245603   4.202   4.838   1.276 -0.5156  0.0732 -0.6931
 8063TIP3    H145604   4.265   4.902   1.243 -0.9613  1.5058  1.1087
 8063TIP3    H245605   4.256   4.770   1.317 -0.0598 -0.5614 -2.2530
 8064TIP3   OH245606   2.887   4.727   5.804 -0.1190 -0.2574 -0.2106
 8064TIP3    H145607   2.969   4.720   5.755 -0.4485  2.2337 -1.2829
 8064TIP3    H245608   2.901   4.673   5.882  2.8776  0.6837  0.0533
 8065TIP3   OH245609   0.793   1.592  15.018  0.0164  0.1593  0.0397
 8065TIP3    H145610   0.838   1.669  15.054  0.2948  0.0245 -0.0161
 8065TIP3    H245611   0.700   1.611  15.030  0.1001 -0.5645  2.2528
 8066TIP3   OH245612   5.124   0.789  16.991  0.2997 -0.6852  0.1712
 8066TIP3    H145613   5.028   0.785  16.993  0.2472  0.2005  0.0909
 8066TIP3    H245614   5.152   0.746  17.071 -0.2419  0.5687  1.0653
 8067TIP3   OH245615   5.450   1.995  14.599 -0.1041 -0.0682 -0.4092
 8067TIP3    H145616   5.541   1.969  14.618  2.0468  4.5222 -2.7819
 8067TIP3    H245617   5.423   2.046  14.676 -0.9078 -1.6357  0.4038
 8068TIP3   OH245618   4.571   0.068   4.813 -0.1440 -0.0664 -0.3563
 8068TIP3    H145619   4.657   0.096   4.783  1.1382 -2.8723  0.3461
 8068TIP3    H245620   4.568   0.094   4.905  0.1682 -0.3432 -0.2642
 8069TIP3   OH245621   0.623   0.726   4.335  0.2388 -0.0412 -0.0320
 8069TIP3    H145622   0.589   0.690   4.417 -3.4650  2.1053 -0.4285
 8069TIP3    H245623   0.633   0.649   4.277  1.4730 -1.3907  1.8554
 8070TIP3   OH245624   1.694   4.989  14.104  0.2712 -0.4790  0.8683
 8070TIP3    H145625   1.684   4.928  14.178 -0.1586 -1.3475  0.1100
 8070TIP3    H245626   1.664   4.939  14.028  1.5562  0.1097 -0.0400
 8071TIP3   OH245627   3.466   2.987  14.223 -0.4688  0.0444  0.4840
 8071TIP3    H145628   3.498   2.971  14.134 -0.1007 -0.8788  0.7707
 8071TIP3    H245629   3.380   3.028  14.211  0.5249  2.0707 -0.3146
 8072TIP3   OH245630   2.637   1.624  14.040  0.3571  0.2662 -0.2555
 8072TIP3    H145631   2.597   1.538  14.034  1.1697 -0.0355 -1.9384
 8072TIP3    H245632   2.583   1.681  13.985 -0.1263  0.8282  0.7765
 8073TIP3   OH245633   5.405   6.606  17.159 -0.2543 -0.1403 -0.2949
 8073TIP3    H145634   5.497   6.580  17.161 -0.5362 -1.2426 -0.8904
 8073TIP3    H245635   5.357   6.524  17.150 -1.2544  0.4900 -0.8967
 8074TIP3   OH245636   4.506   5.358  15.850  0.1428 -0.4494 -0.4450
 8074TIP3    H145637   4.442   5.417  15.891 -0.1565 -0.8167 -0.3798
 8074TIP3    H245638   4.463   5.272  15.851  0.4363 -0.5995 -0.8620
 8075TIP3   OH245639   1.892   6.245  10.899 -0.1051  0.3086 -0.4519
 8075TIP3    H145640   1.898   6.165  10.951  1.8401  0.5481 -0.2386
 8075TIP3    H245641   1.813   6.288  10.931 -1.2835 -1.5745 -0.6809
 8076TIP3   OH245642   6.293   0.394   4.009 -0.0462  0.7912 -0.2520
 8076TIP3    H145643   6.347   0.363   3.936 -0.8278  1.4134 -1.1194
 8076TIP3    H245644   6.349   0.456   4.056  0.9278 -0.6009  0.4903
 8077TIP3   OH245645   6.709   5.502  15.060 -0.4524 -0.1385  0.0454
 8077TIP3    H145646   6.646   5.467  15.124  0.4351  0.8155  1.4996
 8077TIP3    H245647   6.786   5.447  15.069 -0.5208 -0.3444 -0.6138
 8078TIP3   OH245648   2.300   3.022  12.797  0.4147 -0.0650 -0.2471
 8078TIP3    H145649   2.293   3.100  12.742  1.5257 -0.3953 -0.8712
 8078TIP3    H245650   2.330   2.953  12.738  0.5078 -0.7076  0.5324
 8079TIP3   OH245651   0.753   6.614   6.407 -0.5667  0.5152 -0.0713
 8079TIP3    H145652   0.822   6.677   6.385 -1.8684  2.1329  0.2639
 8079TIP3    H245653   0.702   6.606   6.326 -1.1119  0.8604  0.2298
 8080TIP3   OH245654   3.587   5.694   0.904  0.1341  0.0668 -0.3436
 8080TIP3    H145655   3.635   5.618   0.872 -0.4017 -0.1410 -0.6676
 8080TIP3    H245656   3.519   5.658   0.961  1.3361  0.4579  1.4146
 8081TIP3   OH245657   6.230   3.647  15.203 -0.0322 -0.5954 -0.0341
 8081TIP3    H145658   6.257   3.571  15.153 -1.2325 -0.4491 -0.9410
 8081TIP3    H245659   6.228   3.719  15.139  0.5625  0.0912  0.6899
 8082TIP3   OH245660   3.055   1.322  13.965  0.3147 -0.5275  0.0899
 8082TIP3    H145661   2.959   1.327  13.964  0.3737  0.7056 -0.8024
 8082TIP3    H245662   3.081   1.380  14.036  0.4240 -0.2111 -0.2061
 8083TIP3   OH245663   4.993   0.503  15.902  0.2671 -0.1733 -0.3705
 8083TIP3    H145664   4.986   0.594  15.874  0.4520  0.2449  0.8730
 8083TIP3    H245665   4.987   0.507  15.998  0.0369 -1.4908 -0.3110
 8084TIP3   OH245666   1.525   6.027  15.324  0.0109  0.5366  0.3632
 8084TIP3    H145667   1.554   6.012  15.234  0.8705  1.9418  0.3885
 8084TIP3    H245668   1.597   6.075  15.365 -0.9968  1.2293  1.3744
 8085TIP3   OH245669   1.264   4.462   2.278  0.0795  0.2001 -0.2400
 8085TIP3    H145670   1.273   4.398   2.208  0.9469 -0.0224  0.0546
 8085TIP3    H245671   1.205   4.528   2.243 -2.6483 -1.8262  0.2642
 8086TIP3   OH245672   5.095   1.090   5.537  0.1130 -0.1336  0.0063
 8086TIP3    H145673   5.102   1.111   5.444  3.6861  0.0231  0.1845
 8086TIP3    H245674   5.087   1.175   5.581 -0.4321 -0.1356 -0.0874
 8087TIP3   OH245675   6.407   1.318   0.298  0.1020  0.0962  0.0276
 8087TIP3    H145676   6.457   1.305   0.218 -0.7778 -0.2668 -0.4815
 8087TIP3    H245677   6.326   1.268   0.284  0.1420 -0.3760  1.3396
 8088TIP3   OH245678   4.514   2.445   1.042 -0.1272 -0.2311 -0.0056
 8088TIP3    H145679   4.432   2.400   1.061  0.5798 -1.5674  0.0262
 8088TIP3    H245680   4.488   2.530   1.008 -1.5246 -0.6576 -0.0452
 8089TIP3   OH245681   0.741   0.136   2.324 -0.2935  0.6913  0.2625
 8089TIP3    H145682   0.802   0.091   2.383  0.5120  0.8984 -0.3919
 8089TIP3    H245683   0.758   0.098   2.238  0.9476  2.7296 -0.4658
 8090TIP3   OH245684   4.633   2.716   4.719  0.8007 -0.3201 -0.0727
 8090TIP3    H145685   4.679   2.764   4.788  0.9158  1.4477 -1.3072
 8090TIP3    H245686   4.679   2.633   4.713  1.7571  0.1116  0.9292
 8091TIP3   OH245687   1.211   0.036  13.805 -0.4487 -0.3792  0.0617
 8091TIP3    H145688   1.244   0.019  13.893  0.8190  0.7649 -0.1472
 8091TIP3    H245689   1.220   0.130  13.794 -0.3755 -0.5257 -1.3612
 8092TIP3   OH245690   0.905   3.966   4.922 -0.1864 -0.5154  0.3483
 8092TIP3    H145691   0.913   3.879   4.885 -0.8043  0.1894 -1.5713
 8092TIP3    H245692   0.844   4.012   4.863 -1.4387  0.6218  2.4096
 8093TIP3   OH245693   4.312   1.018   0.356  0.5138 -0.1527 -0.0558
 8093TIP3    H145694   4.402   1.032   0.387  0.0543  0.4543  1.0406
 8093TIP3    H245695   4.300   1.082   0.287  0.2704  1.1829  1.1813
 8094TIP3   OH245696   6.655   0.677   4.796 -0.4754  0.4297  0.4572
 8094TIP3    H145697   6.728   0.737   4.812  0.4241  0.0116 -1.7377
 8094TIP3    H245698   6.697   0.594   4.775 -1.5254  0.3354 -1.4904
 8095TIP3   OH245699   3.054   3.822   1.530  0.5388  0.3675 -0.6868
 8095TIP3    H145700   3.024   3.790   1.445  0.2592  0.3854 -0.5964
 8095TIP3    H245701   3.042   3.917   1.525 -0.7752  0.2554 -0.1393
 8096TIP3   OH245702   0.478   1.401   1.869  1.1368  0.2383 -0.0334
 8096TIP3    H145703   0.568   1.385   1.841  0.2099  0.2662 -3.5057
 8096TIP3    H245704   0.424   1.357   1.804 -1.3758  3.5603 -0.4773
 8097TIP3   OH245705   2.921   2.546  12.299 -0.1308 -0.5186  0.0179
 8097TIP3    H145706   2.835   2.572  12.333 -1.1837 -1.2051 -1.9446
 8097TIP3    H245707   2.954   2.484  12.363 -1.1067 -0.2359  0.8225
 8098TIP3   OH245708   3.364   4.534  16.265  0.4252 -0.0461 -0.0185
 8098TIP3    H145709   3.329   4.611  16.221  2.2480  0.5058 -0.5910
 8098TIP3    H245710   3.444   4.514  16.217  1.5488 -0.4985  1.9531
 8099TIP3   OH245711   2.353   5.691  12.186 -0.3664  1.3740  0.2930
 8099TIP3    H145712   2.278   5.653  12.232  1.0052 -1.2820  0.5729
 8099TIP3    H245713   2.429   5.650  12.228  1.1536  2.4420 -1.2804
 8100TIP3   OH245714   2.556   4.538  13.402  0.2181 -0.5561  0.3160
 8100TIP3    H145715   2.545   4.619  13.452  0.2597 -0.6643  0.5035
 8100TIP3    H245716   2.549   4.565  13.311  0.0765 -0.3660  0.3828
 8101TIP3   OH245717   2.280   5.109   3.032 -0.3294 -0.2129 -0.0815
 8101TIP3    H145718   2.209   5.168   3.007  0.0185  0.8435  1.3083
 8101TIP3    H245719   2.246   5.063   3.109  0.1127 -0.4433 -0.0234
 8102TIP3   OH245720   2.872   0.421  14.560 -0.3062  0.1329  0.0133
 8102TIP3    H145721   2.890   0.329  14.573  1.0180  0.0041 -2.2495
 8102TIP3    H245722   2.776   0.427  14.561 -0.4680 -1.5754 -1.5464
 8103TIP3   OH245723   5.606   5.861  11.607  0.0122  0.1616 -0.4921
 8103TIP3    H145724   5.545   5.921  11.650  1.8590  1.0522  1.0321
 8103TIP3    H245725   5.610   5.785  11.665  1.1182  0.5756  0.0099
 8104TIP3   OH245726   1.222   6.321   2.162  0.3069 -0.1484  0.0220
 8104TIP3    H145727   1.303   6.368   2.142  0.0890 -0.2398 -1.1524
 8104TIP3    H245728   1.168   6.385   2.208  0.5745  0.2826 -0.2574
 8105TIP3   OH245729   4.772   0.429   2.830 -0.4428  0.4189  0.1307
 8105TIP3    H145730   4.768   0.406   2.923  1.2284  0.2467  0.1941
 8105TIP3    H245731   4.859   0.467   2.819 -0.5212  0.1962 -1.4161
 8106TIP3   OH245732   3.106   3.188   5.981 -0.3169  0.1707 -1.0221
 8106TIP3    H145733   3.076   3.101   6.009 -2.2183  0.9928 -0.3118
 8106TIP3    H245734   3.192   3.198   6.021  0.1157 -1.5015 -1.4211
 8107TIP3   OH245735   3.194   5.041   1.516 -0.1612  0.2760  0.5111
 8107TIP3    H145736   3.205   5.074   1.427 -0.9274  0.1174  0.3468
 8107TIP3    H245737   3.223   4.950   1.512 -1.2895 -0.0822  0.1328
 8108TIP3   OH245738   1.669   3.328   1.842 -0.2601  0.2989  0.1243
 8108TIP3    H145739   1.677   3.372   1.757  0.3754 -1.4891 -0.7852
 8108TIP3    H245740   1.751   3.279   1.851 -0.1366  0.7734  1.9805
 8109TIP3   OH245741   4.644   0.633   4.064 -0.1069 -0.1115 -0.0397
 8109TIP3    H145742   4.633   0.588   3.980  0.1945 -1.8609  0.7984
 8109TIP3    H245743   4.736   0.658   4.066  0.1712 -1.0970  0.2194
 8110TIP3   OH245744   4.907   2.732  11.754 -0.1474  0.3174  0.4262
 8110TIP3    H145745   4.834   2.770  11.706  1.5248 -0.0993 -2.6456
 8110TIP3    H245746   4.973   2.801  11.756  0.7220 -0.4875 -0.0087
 8111TIP3   OH245747   5.484   5.391  15.586 -0.5375 -0.2796 -0.0421
 8111TIP3    H145748   5.511   5.334  15.658  0.2798  1.2255  0.8888
 8111TIP3    H245749   5.500   5.480  15.618 -2.5609  0.5390 -1.1089
 8112TIP3   OH245750   1.022   1.603   5.517 -0.0909 -0.1007 -0.3218
 8112TIP3    H145751   0.985   1.678   5.471 -0.7136 -0.0556  0.2348
 8112TIP3    H245752   1.031   1.536   5.449 -2.9256 -0.7350 -0.1766
 8113TIP3   OH245753   5.025   2.156  13.456 -0.1977 -0.7600 -0.8001
 8113TIP3    H145754   4.986   2.243  13.450 -0.7393 -0.7611  1.8384
 8113TIP3    H245755   5.116   2.171  13.482  0.0616 -0.9767 -1.5336
 8114TIP3   OH245756   5.793   3.973  16.226 -0.1795 -0.4718 -0.0297
 8114TIP3    H145757   5.714   3.937  16.267  0.3093 -1.6539 -0.0868
 8114TIP3    H245758   5.805   4.058  16.269 -1.9679  0.1370 -0.6413
 8115TIP3   OH245759   4.601   5.086   1.681 -0.2765 -0.1581 -0.0442
 8115TIP3    H145760   4.532   5.144   1.711 -0.2888  0.2923 -0.9102
 8115TIP3    H245761   4.651   5.064   1.760 -0.9531  0.1119  0.4621
 8116TIP3   OH245762   5.634   4.089  12.776  0.3220  0.3285  0.5456
 8116TIP3    H145763   5.631   4.045  12.860 -2.0568 -0.6005  0.0416
 8116TIP3    H245764   5.585   4.032  12.716  1.1789  1.3873 -1.2569
 8117TIP3   OH245765   1.506   5.666   1.902 -0.3102 -0.3747 -0.2583
 8117TIP3    H145766   1.476   5.627   1.820  0.5054 -0.8822 -0.3371
 8117TIP3    H245767   1.513   5.760   1.883 -1.2531 -0.3331 -0.4081
 8118TIP3   OH245768   2.960   6.241  15.909  0.0595 -0.1534 -0.4353
 8118TIP3    H145769   2.941   6.170  15.848  1.1915 -0.7440 -0.1288
 8118TIP3    H245770   2.932   6.208  15.994 -0.7383  0.3417 -0.4938
 8119TIP3   OH245771   6.590   2.174   2.620 -0.1550 -0.4328  0.2543
 8119TIP3    H145772   6.658   2.173   2.553  0.0125 -0.3427  0.4199
 8119TIP3    H245773   6.562   2.083   2.627 -0.0890 -0.4616  0.1462
 8120TIP3   OH245774   4.935   6.764   4.972  0.5056  0.0120 -0.6099
 8120TIP3    H145775   4.920   6.830   5.039 -2.1514 -2.1848  1.1976
 8120TIP3    H245776   5.015   6.719   4.999 -0.1111 -0.3375  0.7303
 8121TIP3   OH245777   3.048   1.109  15.937  0.1459  0.5397 -0.2066
 8121TIP3    H145778   3.001   1.035  15.900  0.4155  0.3383 -0.1490
 8121TIP3    H245779   3.070   1.082  16.026 -0.1321  0.8571 -0.0395
 8122TIP3   OH245780   4.666   5.388  13.460  0.3787  0.2869 -0.6279
 8122TIP3    H145781   4.754   5.424  13.463  0.6714 -0.4761  1.0406
 8122TIP3    H245782   4.679   5.293  13.465 -0.5466  0.2191  1.5330
 8123TIP3   OH245783   1.437   4.351  14.787  0.1862  0.0892  0.8842
 8123TIP3    H145784   1.361   4.392  14.746  1.3632  0.8053 -0.6771
 8123TIP3    H245785   1.444   4.394  14.872  0.7422  2.4592 -0.2647
 8124TIP3   OH245786   0.428   4.266  14.384  0.3396 -0.8013 -0.4721
 8124TIP3    H145787   0.401   4.336  14.444  1.2090  1.3359 -2.4104
 8124TIP3    H245788   0.348   4.218  14.365 -0.4670  0.2187  0.2356
 8125TIP3   OH245789   0.607   1.343  14.631 -0.2935 -0.0903 -0.6726
 8125TIP3    H145790   0.634   1.327  14.541  0.2062 -0.6074 -0.4399
 8125TIP3    H245791   0.647   1.428  14.653 -1.7209  0.8162 -1.4286
 8126TIP3   OH245792   3.227   4.565   6.342  0.1858 -0.4617  0.3886
 8126TIP3    H145793   3.226   4.470   6.327 -0.9454 -0.4397  0.1861
 8126TIP3    H245794   3.298   4.579   6.404  0.6310 -1.3929  0.1065
 8127TIP3   OH245795   5.148   4.486  13.080  0.0865  0.2308 -0.2098
 8127TIP3    H145796   5.130   4.416  13.143 -0.3960  1.7324  1.3922
 8127TIP3    H245797   5.227   4.529  13.113 -0.3145  1.2009 -0.4643
 8128TIP3   OH245798   4.100   0.271  15.186  0.2496 -0.0630 -0.3726
 8128TIP3    H145799   4.172   0.263  15.124 -1.2613  0.1147 -2.2326
 8128TIP3    H245800   4.036   0.207  15.157 -0.6409  0.2627  0.8104
 8129TIP3   OH245801   0.928   2.639   6.297  0.1983  0.0558  0.0646
 8129TIP3    H145802   0.866   2.568   6.280  0.2284  0.1186 -0.3325
 8129TIP3    H245803   0.872   2.713   6.324  0.0408  0.2791 -0.8371
 8130TIP3   OH245804   0.070   4.653   3.783  0.6628 -0.5172 -0.2035
 8130TIP3    H145805  -0.015   4.668   3.743  0.4428 -1.1737  0.0013
 8130TIP3    H245806   0.059   4.573   3.834  1.5249 -0.8579 -0.5295
 8131TIP3   OH245807   0.376   5.535   5.877 -0.5476 -0.7769 -0.2434
 8131TIP3    H145808   0.331   5.563   5.797 -1.7816  0.3852  0.8128
 8131TIP3    H245809   0.326   5.459   5.906 -1.5575  0.1768  0.6238
 8132TIP3   OH245810   6.111   0.438  12.992 -0.5757  0.0349  0.4806
 8132TIP3    H145811   6.066   0.478  12.918  4.0520  1.0424 -2.1463
 8132TIP3    H245812   6.099   0.344  12.979  0.4490  0.1673 -1.8846
 8133TIP3   OH245813   1.409   5.473   0.444 -0.7651  0.5757 -0.1604
 8133TIP3    H145814   1.494   5.516   0.435 -0.8011  0.2826 -2.4342
 8133TIP3    H245815   1.406   5.410   0.372 -2.5442 -0.0812  0.4326
 8134TIP3   OH245816   6.153   6.345   1.039 -0.1582  0.4625  0.1236
 8134TIP3    H145817   6.226   6.291   1.009 -0.8974  0.3805 -1.6544
 8134TIP3    H245818   6.194   6.412   1.094  1.8308  2.4207 -3.3731
 8135TIP3   OH245819   1.366   3.065   2.314  0.0786  0.2897  0.2615
 8135TIP3    H145820   1.385   2.976   2.286 -1.1544  0.1890 -0.3573
 8135TIP3    H245821   1.285   3.056   2.366 -0.7494  1.1689 -0.8237
 8136TIP3   OH245822   3.244   6.220   0.601  0.4939 -0.7989 -0.6934
 8136TIP3    H145823   3.262   6.225   0.507 -0.4256  1.2560 -0.8148
 8136TIP3    H245824   3.328   6.198   0.641  1.0482 -0.9875 -1.9300
 8137TIP3   OH245825   6.487   4.692   4.103  0.2927  0.7327  0.2390
 8137TIP3    H145826   6.442   4.608   4.092 -1.1304  1.2813  1.5596
 8137TIP3    H245827   6.456   4.745   4.029  1.8221 -0.1152 -1.0682
 8138TIP3   OH245828   2.279   4.623  17.018  0.1991 -0.1717 -0.1635
 8138TIP3    H145829   2.195   4.594  16.982  0.3789 -1.2411  0.2531
 8138TIP3    H245830   2.254   4.677  17.094 -0.1163 -0.4233 -0.0850
 8139TIP3   OH245831   6.505   0.537  16.908 -0.4561  0.0044  0.0940
 8139TIP3    H145832   6.422   0.490  16.917 -0.6901  0.5944  1.1152
 8139TIP3    H245833   6.535   0.515  16.820 -2.3503  0.8456 -0.8211
 8140TIP3   OH245834   4.647   3.225   5.394 -0.3776 -0.0604  0.1053
 8140TIP3    H145835   4.709   3.152   5.386  1.1873  1.1415  0.8107
 8140TIP3    H245836   4.635   3.256   5.304  0.2348 -0.1541 -0.0120
 8141TIP3   OH245837   2.578   2.011  13.883  0.4629  0.1543  0.1004
 8141TIP3    H145838   2.640   2.017  13.956 -0.4483  1.8945  0.7847
 8141TIP3    H245839   2.527   2.091  13.889 -2.4905 -1.6029  0.1348
 8142TIP3   OH245840   4.349   6.302  11.300 -0.4493 -1.0850 -0.0043
 8142TIP3    H145841   4.318   6.378  11.251 -0.2618 -0.1746  1.2637
 8142TIP3    H245842   4.393   6.248  11.234  1.0293  0.7707 -0.6369
 8143TIP3   OH245843   4.343   1.928   1.141 -0.0759  0.0675 -0.1741
 8143TIP3    H145844   4.318   1.847   1.098 -0.1899 -0.0307  0.0756
 8143TIP3    H245845   4.393   1.900   1.218  1.5638  0.2723 -1.1264
 8144TIP3   OH245846   0.431   6.274  11.559 -1.0334  0.7527 -0.4485
 8144TIP3    H145847   0.443   6.186  11.521 -0.7144  1.2616 -1.5948
 8144TIP3    H245848   0.382   6.259  11.639 -0.7824 -0.5022 -0.4987
 8145TIP3   OH245849   4.198   4.923   2.470 -0.4590  0.3060 -0.4291
 8145TIP3    H145850   4.167   4.874   2.395  0.8878 -0.9815 -0.1785
 8145TIP3    H245851   4.293   4.925   2.461 -0.4152  2.2957 -0.0626
 8146TIP3   OH245852   3.869   3.883  13.129  0.2721 -0.5629 -0.3898
 8146TIP3    H145853   3.818   3.815  13.173  0.9942 -0.1863  1.0815
 8146TIP3    H245854   3.960   3.855  13.137  0.5121  0.1158 -0.5942
 8147TIP3   OH245855   2.192   1.574   1.912 -0.4822  0.1070 -0.0990
 8147TIP3    H145856   2.099   1.593   1.908 -0.5541 -0.3687 -1.3821
 8147TIP3    H245857   2.230   1.646   1.962 -1.4637  0.6241 -0.0836
 8148TIP3   OH245858   3.614   3.369  15.963 -0.0643  0.7453 -0.7889
 8148TIP3    H145859   3.570   3.291  15.930  1.5097 -0.0927 -1.0150
 8148TIP3    H245860   3.644   3.415  15.885  1.1912  0.2460 -0.6186
 8149TIP3   OH245861   5.864   4.334  13.358 -0.3848  0.6881 -0.1215
 8149TIP3    H145862   5.821   4.298  13.280  0.5613  0.6180 -0.6274
 8149TIP3    H245863   5.896   4.257  13.406 -2.3338  0.6290  1.1935
 8150TIP3   OH245864   6.080   4.563   2.287 -0.3237 -0.3496  0.0190
 8150TIP3    H145865   6.083   4.552   2.192  3.5472 -0.3699 -0.0090
 8150TIP3    H245866   6.015   4.631   2.301 -0.7744 -0.1105 -2.6586
 8151TIP3   OH245867   1.112   6.740  14.536 -0.2624  0.1256  0.2625
 8151TIP3    H145868   1.148   6.757  14.624 -1.1549 -0.2197  0.7075
 8151TIP3    H245869   1.144   6.653  14.513  2.5734  1.4189 -1.1258
 8152TIP3   OH245870   1.367   1.228   3.942  0.3839  0.0450 -0.4345
 8152TIP3    H145871   1.420   1.148   3.951  0.3183  0.0481  0.0506
 8152TIP3    H245872   1.410   1.291   4.000  0.0277  0.1419 -0.2731
 8153TIP3   OH245873   2.234   5.620   1.660  0.0436  0.4284 -0.1192
 8153TIP3    H145874   2.176   5.548   1.685  0.7824  0.2281  1.0902
 8153TIP3    H245875   2.208   5.692   1.717 -0.1402  0.8682 -0.7547
 8154TIP3   OH245876   0.402   5.369  11.153  0.2988 -0.0128 -0.0352
 8154TIP3    H145877   0.386   5.274  11.148  0.0553 -0.1123  1.9936
 8154TIP3    H245878   0.370   5.402  11.069  1.6217 -1.8653 -1.3707
 8155TIP3   OH245879   3.847   0.575  12.377  0.0192 -0.4945  0.3583
 8155TIP3    H145880   3.834   0.524  12.297 -0.5333  0.1703  0.0161
 8155TIP3    H245881   3.850   0.510  12.447  0.4143 -1.0739 -0.1848
 8156TIP3   OH245882   6.693   4.328   2.350 -0.1798 -1.0691 -0.3161
 8156TIP3    H145883   6.729   4.387   2.284 -1.2826 -0.5511 -0.4725
 8156TIP3    H245884   6.707   4.375   2.433  0.9381 -1.5907 -0.1841
 8157TIP3   OH245885   2.066   6.114   5.442 -0.2268 -0.5859 -0.3572
 8157TIP3    H145886   2.085   6.020   5.450  2.2972  0.0024  2.2438
 8157TIP3    H245887   1.985   6.125   5.491 -0.0473 -1.2880  0.1227
 8158TIP3   OH245888   3.456   0.777  14.180 -0.1363 -0.3691  0.0382
 8158TIP3    H145889   3.414   0.718  14.242  0.3827  0.2333  0.9940
 8158TIP3    H245890   3.533   0.730  14.150 -0.6434 -0.8528 -0.5287
 8159TIP3   OH245891   1.345   4.675   6.446 -0.3270 -0.2370  0.4089
 8159TIP3    H145892   1.423   4.699   6.497 -0.3752 -0.0049  0.3725
 8159TIP3    H245893   1.380   4.622   6.374 -0.4093 -1.8996  1.5314
 8160TIP3   OH245894   3.060   4.312  14.256  0.4037 -0.9159 -0.4894
 8160TIP3    H145895   3.075   4.281  14.346  2.0981 -1.6707 -0.9928
 8160TIP3    H245896   3.138   4.285  14.208  0.4912  1.3012 -1.7372
 8161TIP3   OH245897   2.476   4.829  15.448 -0.4205  0.7959 -0.3960
 8161TIP3    H145898   2.534   4.758  15.477 -0.0726  1.6868  1.2295
 8161TIP3    H245899   2.491   4.835  15.353 -0.1143 -0.9720 -0.4927
 8162TIP3   OH245900   5.732   4.007   6.246 -0.3408 -0.3432  0.1816
 8162TIP3    H145901   5.743   4.063   6.323  3.9193 -0.5478 -0.0303
 8162TIP3    H245902   5.760   3.920   6.276 -1.4425 -1.1009 -0.9021
 8163TIP3   OH245903   5.884   2.641   1.884 -0.1324  0.3196 -0.0404
 8163TIP3    H145904   5.795   2.671   1.862 -0.0127  1.7016  1.1707
 8163TIP3    H245905   5.896   2.667   1.975  1.0862 -0.9574  0.1933
 8164TIP3   OH245906   0.864   1.100   4.451 -0.2163 -0.1470 -0.8190
 8164TIP3    H145907   0.875   1.020   4.401  0.1204  0.3309 -1.5202
 8164TIP3    H245908   0.912   1.166   4.402 -0.5316  0.4972 -0.2776
 8165TIP3   OH245909   5.961   2.936   6.075  0.4561 -0.3889  0.7809
 8165TIP3    H145910   5.919   2.930   6.161 -3.2796  0.1310 -0.8055
 8165TIP3    H245911   5.940   3.024   6.045  1.3190 -0.7091 -0.8539
 8166TIP3   OH245912   0.228   6.608  17.113 -0.2278  0.0208 -0.5947
 8166TIP3    H145913   0.301   6.566  17.158 -0.3595 -0.4819 -0.8427
 8166TIP3    H245914   0.201   6.679  17.172  0.8277  0.5940 -0.7619
 8167TIP3   OH245915   4.932   1.672   1.333 -0.0889  0.1361  0.4230
 8167TIP3    H145916   4.938   1.637   1.244 -0.4483 -0.7352  0.7328
 8167TIP3    H245917   4.921   1.595   1.388  2.2080  0.4482  1.4497
 8168TIP3   OH245918   0.545   1.271  15.595  0.0206  0.1910  0.1389
 8168TIP3    H145919   0.543   1.348  15.539 -0.4430 -0.8947 -1.3881
 8168TIP3    H245920   0.545   1.307  15.684 -2.0822  1.9543 -0.4738
 8169TIP3   OH245921   2.734   1.557   4.986  0.0100 -0.1164  0.8454
 8169TIP3    H145922   2.714   1.464   4.975 -3.0733  0.2489  2.3458
 8169TIP3    H245923   2.676   1.602   4.924  1.7620  0.8527 -0.1660
 8170TIP3   OH245924   4.786   3.409  12.836  0.5584 -0.0853  0.2751
 8170TIP3    H145925   4.752   3.367  12.915  2.2290 -0.0025  1.0918
 8170TIP3    H245926   4.871   3.445  12.863  0.8952  0.4713 -1.4105
 8171TIP3   OH245927   6.274   1.347  11.198  0.0798 -0.0475 -0.1324
 8171TIP3    H145928   6.240   1.323  11.284 -1.4911  1.7864 -0.1579
 8171TIP3    H245929   6.205   1.401  11.160  1.2277  0.1312 -2.0844
 8172TIP3   OH245930   3.247   6.315   6.241 -0.0302  0.0114 -0.0963
 8172TIP3    H145931   3.340   6.326   6.260  0.3691 -1.6248 -0.8854
 8172TIP3    H245932   3.236   6.351   6.153 -0.4832  1.5292  0.5460
 8173TIP3   OH245933   0.043   6.557  12.328  0.1153 -0.3501 -0.3320
 8173TIP3    H145934  -0.003   6.502  12.391 -1.3052  1.2016  0.0771
 8173TIP3    H245935   0.021   6.520  12.243 -2.2922  0.5150 -0.1691
 8174TIP3   OH245936   2.880   5.193   5.465  0.6890  0.2305  0.4032
 8174TIP3    H145937   2.790   5.196   5.496  0.2177 -1.3373 -0.6707
 8174TIP3    H245938   2.933   5.216   5.542 -0.5791  0.3141  1.2820
 8175TIP3   OH245939   3.085   3.152  12.086  0.7186 -0.3768 -0.5070
 8175TIP3    H145940   3.166   3.196  12.111  0.1878  0.2461  0.1531
 8175TIP3    H245941   3.040   3.136  12.170  0.3938 -1.1888 -0.8213
 8176TIP3   OH245942   2.684   5.741   5.524  0.1492  0.1680  0.4141
 8176TIP3    H145943   2.733   5.770   5.447  0.8443 -0.7115  0.5102
 8176TIP3    H245944   2.718   5.795   5.595 -3.2648  3.9028 -0.4333
 8177TIP3   OH245945   5.168   0.992  10.458 -0.7154  0.1308 -0.3775
 8177TIP3    H145946   5.141   1.037  10.378 -2.7246 -0.9749 -0.3921
 8177TIP3    H245947   5.142   1.050  10.529 -1.1321  0.0536 -0.4644
 8178TIP3   OH245948   4.249   2.987  11.237 -0.1485 -0.3377 -0.0221
 8178TIP3    H145949   4.275   2.897  11.256 -1.1914 -0.1456  2.8047
 8178TIP3    H245950   4.332   3.032  11.219  0.7161 -1.3110  1.2981
 8179TIP3   OH245951   5.220   2.628  13.755  0.3612 -0.3530 -0.1967
 8179TIP3    H145952   5.136   2.591  13.728  0.7314 -1.3826 -0.0076
 8179TIP3    H245953   5.286   2.576  13.708  0.9544 -1.0592  1.3315
 8180TIP3   OH245954   6.557   1.700   4.316 -0.1374 -0.4899 -0.8664
 8180TIP3    H145955   6.582   1.728   4.228  1.6090  1.0802  0.0556
 8180TIP3    H245956   6.525   1.611   4.305  2.5320 -1.3411 -2.7362
 8181TIP3   OH245957   4.909   0.147  13.557  0.3511  0.3878  0.1469
 8181TIP3    H145958   4.919   0.061  13.516 -0.5303  0.6586 -0.6552
 8181TIP3    H245959   4.922   0.209  13.486  2.1356  0.9942  0.9278
 8182TIP3   OH245960   2.697   5.064   2.410  0.0950 -0.0997 -0.8715
 8182TIP3    H145961   2.654   5.013   2.479 -1.2530  0.9718 -0.8747
 8182TIP3    H245962   2.790   5.046   2.422 -0.2252 -1.1809  0.2171
 8183TIP3   OH245963   3.328   0.807   6.349 -0.2461  0.3802  0.1773
 8183TIP3    H145964   3.268   0.880   6.344 -0.0298  0.4474 -2.3687
 8183TIP3    H245965   3.366   0.814   6.437 -1.6803  2.1032  0.7222
 8184TIP3   OH245966   4.686   6.626  17.072 -0.1496 -0.3554 -0.4371
 8184TIP3    H145967   4.680   6.585  17.158 -0.3320 -0.4085 -0.4763
 8184TIP3    H245968   4.756   6.692  17.082 -1.2346  0.7398  0.1987
 8185TIP3   OH245969   4.805   4.146   5.989  0.1140 -0.2997  0.1870
 8185TIP3    H145970   4.887   4.114   5.952 -0.1841 -2.3041  1.1332
 8185TIP3    H245971   4.805   4.113   6.078 -1.5075  0.0964  0.3575
 8186TIP3   OH245972   0.170   2.129   2.123  0.4858  0.7937 -0.4378
 8186TIP3    H145973   0.259   2.126   2.157  0.1709 -0.6420  0.3635
 8186TIP3    H245974   0.139   2.217   2.143 -0.0142 -0.1697  4.1248
 8187TIP3   OH245975   5.448   0.453  13.765 -0.5384 -0.1167 -0.3372
 8187TIP3    H145976   5.496   0.528  13.731 -0.5372  1.2885  2.4319
 8187TIP3    H245977   5.465   0.383  13.703  1.0026  1.6510 -2.0539
 8188TIP3   OH245978   6.770   5.365  12.391  0.2042 -0.1129 -0.0404
 8188TIP3    H145979   6.818   5.392  12.470  0.2026 -0.5410  0.1116
 8188TIP3    H245980   6.686   5.335  12.424  0.8689 -2.0588  0.0192
 8189TIP3   OH245981   0.244   2.969  16.762  0.4299 -0.2504  0.2521
 8189TIP3    H145982   0.295   2.893  16.736  1.6438  0.1165  1.4821
 8189TIP3    H245983   0.291   3.006  16.836  0.3121  2.1502 -0.7622
 8190TIP3   OH245984   0.837   5.176  11.647 -0.1977 -0.0199 -0.2258
 8190TIP3    H145985   0.767   5.189  11.711  0.1316 -2.3261  0.7052
 8190TIP3    H245986   0.818   5.092  11.606  0.6165  0.5484 -1.8847
 8191TIP3   OH245987   6.474   3.777  10.698  0.4030 -0.0081 -0.3603
 8191TIP3    H145988   6.500   3.834  10.626 -0.1426 -0.0737 -0.6221
 8191TIP3    H245989   6.454   3.836  10.771 -0.2235  0.1487 -0.6496
 8192TIP3   OH245990   6.441   5.796   4.150  0.4469 -0.7030  0.0342
 8192TIP3    H145991   6.521   5.846   4.166  1.4081 -2.3894  0.7712
 8192TIP3    H245992   6.465   5.706   4.170 -0.6757 -1.7922 -3.0434
 8193TIP3   OH245993   2.670   5.868   0.784  0.1425 -0.0054  0.5378
 8193TIP3    H145994   2.647   5.832   0.869  1.4134 -0.4311  0.7185
 8193TIP3    H245995   2.759   5.901   0.794 -0.6020  2.3583  0.1018
 8194TIP3   OH245996   2.701   1.004   3.196 -0.4903 -0.5005  0.0949
 8194TIP3    H145997   2.696   1.014   3.100 -0.0432 -1.6261 -0.0601
 8194TIP3    H245998   2.716   1.093   3.228 -1.2817 -0.0072 -0.8241
 8195TIP3   OH245999   0.610   5.094  10.958  0.0156 -0.2839  0.2950
 8195TIP3    H146000   0.599   5.088  11.053 -0.9462 -2.5161  0.1034
 8195TIP3    H246001   0.542   5.155  10.929  0.2699  0.3562  1.0151
 8196TIP3   OH246002   3.280   1.427   0.200 -0.3571 -0.1645 -0.0502
 8196TIP3    H146003   3.291   1.395   0.110  1.0714 -1.8913  0.6833
 8196TIP3    H246004   3.188   1.412   0.219 -0.5498 -0.3247 -1.0397
 8197TIP3   OH246005   0.626   0.033   6.019 -0.2862 -0.2927 -0.4019
 8197TIP3    H146006   0.645   0.123   6.047  1.2203 -0.1103 -1.8399
 8197TIP3    H246007   0.543   0.040   5.971  0.0236  0.4322 -0.8623
 8198TIP3   OH246008   6.404   3.746  12.684  0.4784 -0.2414  0.4488
 8198TIP3    H146009   6.483   3.703  12.716  0.5233 -1.1247 -0.7665
 8198TIP3    H246010   6.391   3.710  12.596 -1.7060 -0.7124  0.9083
 8199TIP3   OH246011   4.178   3.511  12.368 -0.3431  0.1635 -0.1979
 8199TIP3    H146012   4.267   3.535  12.396  0.4013 -2.1902 -0.3116
 8199TIP3    H246013   4.126   3.517  12.448  0.6933 -1.6459  0.6837
 8200TIP3   OH246014   5.547   1.823   5.053 -0.1475 -0.5184  0.4227
 8200TIP3    H146015   5.504   1.898   5.094 -0.3161 -0.0905 -0.4946
 8200TIP3    H246016   5.480   1.754   5.053 -0.5958 -0.1086 -0.2707
 8201TIP3   OH246017   2.839   6.429   3.452  0.0722 -0.5994 -0.4282
 8201TIP3    H146018   2.903   6.363   3.427  1.4044  0.9941 -1.4917
 8201TIP3    H246019   2.845   6.495   3.382 -0.5680  1.0445  0.9929
 8202TIP3   OH246020   6.137   6.261   6.001 -0.2038  0.2998 -0.0595
 8202TIP3    H146021   6.066   6.198   6.015 -0.8376  1.1967  0.9400
 8202TIP3    H246022   6.124   6.327   6.069  1.4092  0.6617 -0.0592
 8203TIP3   OH246023   4.213   2.797  15.613 -0.2683  0.2049 -0.5205
 8203TIP3    H146024   4.202   2.850  15.534  0.3055 -0.9658 -1.4254
 8203TIP3    H246025   4.306   2.774  15.613 -0.6136 -1.3189 -0.5289
 8204TIP3   OH246026   6.024   2.502   4.504 -0.3686 -0.6840  0.3249
 8204TIP3    H146027   6.081   2.499   4.427  0.4480 -0.0029  0.8858
 8204TIP3    H246028   6.069   2.560   4.565 -1.3022 -0.7337  1.0854
 8205TIP3   OH246029   4.378   4.476   1.600 -0.7381 -0.1985 -0.1607
 8205TIP3    H146030   4.450   4.417   1.623  1.0033  2.7273  2.5823
 8205TIP3    H246031   4.363   4.458   1.507  0.6279 -3.8203  0.1333
 8206TIP3   OH246032   0.848   0.594  12.984 -0.3735  0.1488 -0.2160
 8206TIP3    H146033   0.864   0.643  13.065 -2.0327  0.4862 -0.0651
 8206TIP3    H246034   0.769   0.633  12.947 -0.4289 -0.9175 -1.2901
 8207TIP3   OH246035   6.557   4.961   2.786 -0.3081  0.1440 -1.0131
 8207TIP3    H146036   6.652   4.953   2.797 -0.3281  1.2530  0.2350
 8207TIP3    H246037   6.536   5.046   2.824 -2.0957 -1.0339  0.8206
 8208TIP3   OH246038   3.825   0.128   2.355  0.0579 -0.6139  0.5611
 8208TIP3    H146039   3.860   0.190   2.419  0.6115  1.4379 -1.5736
 8208TIP3    H246040   3.782   0.183   2.289 -2.3523 -2.7290  0.1697
 8209TIP3   OH246041   3.883   1.735  16.925  0.0856  0.0104 -0.6417
 8209TIP3    H146042   3.790   1.752  16.943  0.3322  1.6556 -0.7966
 8209TIP3    H246043   3.928   1.761  17.005  0.4760 -0.1629 -0.8026
 8210TIP3   OH246044   5.656   6.105  11.850  0.5761  0.3538 -0.5659
 8210TIP3    H146045   5.675   6.183  11.901 -1.4409  1.0008 -0.7149
 8210TIP3    H246046   5.630   6.138  11.764  1.0119 -0.5663 -1.0686
 8211TIP3   OH246047   2.911   6.069   3.396  0.0511 -0.4152 -0.2727
 8211TIP3    H146048   2.983   6.131   3.385  1.2002 -1.5701  0.5118
 8211TIP3    H246049   2.926   6.030   3.482 -2.0658 -0.0095  0.3429
 8212TIP3   OH246050   1.980   1.320   5.025  0.1014 -0.7120  0.2230
 8212TIP3    H146051   1.997   1.242   4.972  0.7774 -1.5761  1.6577
 8212TIP3    H246052   1.913   1.293   5.087 -0.1771  0.0756  0.2755
 8213TIP3   OH246053   3.237   3.071   2.328  0.3332 -0.2107 -0.0707
 8213TIP3    H146054   3.245   3.164   2.348 -1.9196 -0.0507  0.4196
 8213TIP3    H246055   3.197   3.034   2.406  0.3235 -1.4086 -0.6277
 8214TIP3   OH246056   4.887   5.391   3.204 -0.0956 -0.4080 -0.4316
 8214TIP3    H146057   4.804   5.436   3.223 -0.2487 -0.2628 -1.3885
 8214TIP3    H246058   4.862   5.301   3.184  0.1643 -0.8162  0.9884
 8215TIP3   OH246059   5.114   1.977  14.835 -0.7963  0.1512 -0.1468
 8215TIP3    H146060   5.109   1.941  14.924 -1.2782 -1.3906 -0.7565
 8215TIP3    H246061   5.197   2.025  14.833 -0.2002 -0.7906  0.7968
 8216TIP3   OH246062   3.128   5.595   0.726 -0.0449  0.4428 -0.2005
 8216TIP3    H146063   3.188   5.661   0.762  0.4235 -1.2765  2.4532
 8216TIP3    H246064   3.053   5.598   0.785 -1.3442  0.5642 -1.7974
 8217TIP3   OH246065   6.600   5.304   1.416  0.4138  0.7242  0.1250
 8217TIP3    H146066   6.547   5.232   1.452 -0.1703  1.4475  0.7522
 8217TIP3    H246067   6.641   5.343   1.493  0.9860  0.8649 -0.2507
 8218TIP3   OH246068   5.260   4.406  11.681  0.5125  0.0174  0.0923
 8218TIP3    H146069   5.346   4.436  11.652  0.8438 -0.0220  0.9949
 8218TIP3    H246070   5.273   4.315  11.707 -0.0423 -0.3152 -0.7355
 8219TIP3   OH246071   5.611   2.671   1.816 -0.1080 -0.2580  0.4309
 8219TIP3    H146072   5.523   2.703   1.795 -0.5626  0.3102  2.9426
 8219TIP3    H246073   5.632   2.611   1.744 -1.1119  2.1302 -2.0662
 8220TIP3   OH246074   5.536   5.856   4.575  0.0600  0.2127  0.8614
 8220TIP3    H146075   5.546   5.915   4.649  0.2478  1.7018 -0.3066
 8220TIP3    H246076   5.616   5.866   4.524 -0.7245  0.4452 -0.3817
 8221TIP3   OH246077   4.127   5.513  16.196 -0.0405 -0.3961 -0.3372
 8221TIP3    H146078   4.128   5.481  16.286 -0.1219 -0.7347 -0.4538
 8221TIP3    H246079   4.112   5.435  16.143 -2.8962  0.1860 -0.5084
 8222TIP3   OH246080   2.092   6.052  15.074 -0.4673  0.4477 -0.8288
 8222TIP3    H146081   2.147   5.976  15.091 -2.5245 -1.4045 -1.9999
 8222TIP3    H246082   2.103   6.068  14.980 -0.8244  0.9623 -0.7851
 8223TIP3   OH246083   5.311   3.268  12.825  0.6861 -0.0441 -0.0154
 8223TIP3    H146084   5.264   3.237  12.902 -1.8227 -1.6298 -1.9950
 8223TIP3    H246085   5.298   3.363  12.826 -1.4376 -0.2929  0.3063
 8224TIP3   OH246086   2.975   5.124  16.119 -0.5784 -0.2136 -0.8636
 8224TIP3    H146087   2.979   5.172  16.036 -1.1746 -0.1564 -0.8682
 8224TIP3    H246088   2.891   5.151  16.157  0.3510  0.9290  0.4797
 8225TIP3   OH246089   2.106   0.821   0.539 -0.1800  0.1678 -0.3326
 8225TIP3    H146090   2.195   0.818   0.503 -0.1995  1.3199 -0.5195
 8225TIP3    H246091   2.115   0.787   0.628  0.0967 -1.4964 -0.9759
 8226TIP3   OH246092   1.962   6.093  14.657 -0.1463  0.2959 -0.0222
 8226TIP3    H146093   2.036   6.107  14.598 -0.4857  2.2826 -0.0565
 8226TIP3    H246094   1.927   6.181  14.673 -2.7617 -0.5932 -0.3497
 8227TIP3   OH246095   2.999   6.500  15.955  0.2492  0.0177 -0.4515
 8227TIP3    H146096   2.984   6.406  15.946  1.2165 -0.2468  0.4449
 8227TIP3    H246097   2.913   6.540  15.938 -0.1413 -1.0092 -0.9701
 8228TIP3   OH246098   2.456   4.311   5.110 -0.4218 -0.3430 -0.7926
 8228TIP3    H146099   2.534   4.257   5.095 -0.5921 -0.6199 -0.7064
 8228TIP3    H246100   2.409   4.310   5.026 -0.3977 -0.2907 -0.8061
 8229TIP3   OH246101   3.395   4.998  16.719  0.0249  0.1748 -0.0113
 8229TIP3    H146102   3.481   4.961  16.738 -0.4750 -0.6962  0.6404
 8229TIP3    H246103   3.398   5.018  16.625 -0.3773 -3.6179 -0.9901
 8230TIP3   OH246104   1.963   3.336   3.128 -0.0427 -0.1954  0.5213
 8230TIP3    H146105   1.925   3.334   3.040 -1.1756  1.2351  0.9517
 8230TIP3    H246106   1.990   3.245   3.144 -2.3859 -1.0971 -0.1853
 8231TIP3   OH246107   3.091   1.349   5.122  0.1770  0.0462  0.2126
 8231TIP3    H146108   3.125   1.403   5.193  0.5296 -0.5196  0.4753
 8231TIP3    H246109   3.147   1.369   5.047 -0.0528  0.4741  0.1560
 8232TIP3   OH246110   5.921   5.070  13.297  0.1425  0.3854 -0.0876
 8232TIP3    H146111   5.851   5.126  13.264  0.3473  0.6389 -0.0991
 8232TIP3    H246112   5.934   5.004  13.230  2.3129  2.3620 -1.8014
 8233TIP3   OH246113   3.588   4.544  16.020  0.4563  0.4016  0.0421
 8233TIP3    H146114   3.591   4.603  15.945 -1.2302 -0.5180 -0.8154
 8233TIP3    H246115   3.531   4.472  15.992  1.9923 -1.3871  1.2300
 8234TIP3   OH246116   3.272   1.484   1.127 -0.0287 -0.2135 -0.3884
 8234TIP3    H146117   3.190   1.503   1.171  0.4340  0.6555  0.1258
 8234TIP3    H246118   3.312   1.570   1.111  0.4631 -0.5850 -1.2437
 8235TIP3   OH246119   1.393   3.111  12.984 -0.3728 -0.2277  0.1928
 8235TIP3    H146120   1.363   3.158  12.907 -2.0620 -0.4643  0.6577
 8235TIP3    H246121   1.462   3.052  12.952  1.1172  1.8166 -0.5520
 8236TIP3   OH246122   3.978   5.749  12.779 -0.3160  0.4631  0.3086
 8236TIP3    H146123   3.884   5.767  12.781 -0.1630  1.2522  1.4066
 8236TIP3    H246124   4.010   5.779  12.864  0.7529 -0.8490  0.3999
 8237TIP3   OH246125   2.699   1.292   0.577 -0.2105  0.8087 -0.0733
 8237TIP3    H146126   2.757   1.355   0.619  1.9280  0.1827 -1.9248
 8237TIP3    H246127   2.727   1.289   0.486  0.6710 -3.6706  0.1016
 8238TIP3   OH246128   1.420   2.914   3.114  0.3648 -0.2511 -0.3394
 8238TIP3    H146129   1.452   2.886   3.200 -0.2091  0.5259  0.1507
 8238TIP3    H246130   1.333   2.949   3.132 -0.5738 -1.8537 -1.5574
 8239TIP3   OH246131   3.178   0.379  14.415  0.0167  0.1286  0.1300
 8239TIP3    H146132   3.127   0.449  14.456 -1.7080 -1.7897  1.4761
 8239TIP3    H246133   3.198   0.319  14.487  1.7527 -0.6154 -0.9077
 8240TIP3   OH246134   6.062   5.911  12.071 -0.1560  0.7570  0.2539
 8240TIP3    H146135   5.982   5.861  12.088 -0.0768  1.1042  1.7908
 8240TIP3    H246136   6.089   5.943  12.157 -0.6390  4.1530 -0.7450
 8241TIP3   OH246137   0.708   1.946  15.232  0.1102  0.4232 -0.4644
 8241TIP3    H146138   0.696   1.912  15.321  0.3767  2.2896  0.3388
 8241TIP3    H246139   0.762   1.881  15.188  0.2255 -0.3932  0.8345
 8242TIP3   OH246140   1.668   6.524   5.443  0.2770  0.6845  0.1117
 8242TIP3    H146141   1.677   6.619   5.446 -0.1863  0.6907  1.8745
 8242TIP3    H246142   1.701   6.493   5.527 -3.3405 -0.3562  1.3441
 8243TIP3   OH246143   2.780   0.719   1.659 -0.4062  0.3676  0.0534
 8243TIP3    H146144   2.728   0.734   1.739  0.0756  1.9731  0.1070
 8243TIP3    H246145   2.715   0.698   1.592 -0.8588 -0.5692  0.7586
 8244TIP3   OH246146   5.019   1.098  14.761 -0.0859  0.5574  0.0387
 8244TIP3    H146147   4.984   1.157  14.827 -0.8901 -1.3605  1.4157
 8244TIP3    H246148   5.088   1.049  14.806  0.6469  0.5004 -1.0949
 8245TIP3   OH246149   1.134   5.479  10.595 -0.0631  0.3093 -0.6448
 8245TIP3    H146150   1.194   5.414  10.559  1.1889  1.5877 -0.9382
 8245TIP3    H246151   1.096   5.437  10.672  4.2888  0.8098  2.0815
 8246TIP3   OH246152   1.201   5.792  16.043  0.3227  0.0194 -0.4040
 8246TIP3    H146153   1.218   5.886  16.031 -1.2871  0.4583  0.4004
 8246TIP3    H246154   1.274   5.749  16.000  1.5559  1.6540 -0.0568
 8247TIP3   OH246155   4.301   1.663   4.469 -0.0066 -0.0262 -0.4374
 8247TIP3    H146156   4.341   1.684   4.384 -0.5810 -0.4200 -0.8092
 8247TIP3    H246157   4.232   1.729   4.478 -0.4562 -0.4691 -0.6408
 8248TIP3   OH246158   2.736   0.085   2.058  0.0346 -0.2848 -0.4904
 8248TIP3    H146159   2.667   0.083   2.125  0.4312  0.1235 -0.0574
 8248TIP3    H246160   2.757   0.178   2.048 -0.5771 -0.2716 -1.7823
 8249TIP3   OH246161   5.628   4.085  10.499 -0.4564  0.2464 -0.4705
 8249TIP3    H146162   5.636   4.178  10.521  0.6070  0.4021 -1.4240
 8249TIP3    H246163   5.717   4.057  10.480 -1.0835 -0.2494 -3.0078
 8250TIP3   OH246164   3.670   2.926  12.039 -0.6064 -0.1580 -0.0883
 8250TIP3    H146165   3.713   3.009  12.019  0.5603 -0.8049 -0.3256
 8250TIP3    H246166   3.582   2.952  12.069  0.1801  1.2387  1.1763
 8251TIP3   OH246167   1.604   6.472   4.271  0.3071 -0.0116 -0.6632
 8251TIP3    H146168   1.611   6.537   4.201  1.0298  0.0724 -0.5213
 8251TIP3    H246169   1.676   6.411   4.255  0.1502 -0.2984 -0.3051
 8252TIP3   OH246170   0.863   4.358   6.117 -0.0684 -0.3554  0.0238
 8252TIP3    H146171   0.807   4.333   6.191  0.4662  0.3682  0.6971
 8252TIP3    H246172   0.924   4.285   6.107  0.5977  0.0332  1.0692
 8253TIP3   OH246173   3.112   3.803   1.074 -0.1303 -0.3113 -0.3743
 8253TIP3    H146174   3.191   3.781   1.025  2.4589  3.9515  1.3232
 8253TIP3    H246175   3.112   3.741   1.147 -0.0109 -2.1250 -1.8396
 8254TIP3   OH246176   2.436   1.280   3.022 -0.1406  0.1965 -0.4597
 8254TIP3    H146177   2.528   1.254   3.021  0.4996  1.9868  1.8608
 8254TIP3    H246178   2.388   1.203   2.993  2.0658 -0.8674 -1.4655
 8255TIP3   OH246179   6.672   6.677  11.922 -0.3757  0.2191 -0.3361
 8255TIP3    H146180   6.623   6.706  11.999 -0.3795 -0.5103 -0.0494
 8255TIP3    H246181   6.665   6.581  11.924 -0.4034  0.1917 -1.2650
 8256TIP3   OH246182   1.450   0.189   0.045  0.4344 -0.0734  0.3475
 8256TIP3    H146183   1.386   0.259   0.035 -0.5470 -0.2701  3.8219
 8256TIP3    H246184   1.532   0.234   0.064 -0.1121  0.2357  2.1798
 8257TIP3   OH246185   2.088   4.507   1.747  0.7565 -0.2484 -0.0187
 8257TIP3    H146186   2.074   4.581   1.806  1.8956 -1.4481  1.8863
 8257TIP3    H246187   2.001   4.484   1.716 -0.1412 -0.4778  2.4348
 8258TIP3   OH246188   1.432   5.001  12.391 -0.1724  0.0990 -0.3416
 8258TIP3    H146189   1.453   5.086  12.428  1.0465  0.4937 -1.8114
 8258TIP3    H246190   1.513   4.974  12.347 -1.4101 -0.4302 -2.4144
 8259TIP3   OH246191   1.949   1.857  15.135  0.4488 -0.0439 -0.4724
 8259TIP3    H146192   1.983   1.906  15.210 -1.1135 -0.2551  0.4194
 8259TIP3    H246193   2.022   1.804  15.106  0.8856 -0.5562  1.4195
 8260TIP3   OH246194   1.127   3.538   4.924 -0.8207  0.1498 -0.2450
 8260TIP3    H146195   1.156   3.465   4.869  1.5474  0.5197  0.4028
 8260TIP3    H246196   1.202   3.597   4.927 -1.6139  1.1474  1.6597
 8261TIP3   OH246197   6.256   4.837   1.809 -0.5145  0.3536  0.0872
 8261TIP3    H146198   6.164   4.853   1.830 -1.0651  1.0951 -2.4911
 8261TIP3    H246199   6.262   4.742   1.795 -0.3913  0.0210  2.1168
 8262TIP3   OH246200   4.289   4.134  14.028 -0.5901 -0.6059 -0.4101
 8262TIP3    H146201   4.289   4.050  14.074 -1.6848 -0.2568  0.2602
 8262TIP3    H246202   4.304   4.199  14.098  1.5051 -0.2866 -1.0692
 8263TIP3   OH246203   0.321   0.434  16.945 -0.0361  0.9571  0.6677
 8263TIP3    H146204   0.351   0.346  16.923 -0.0710  1.2500 -0.6067
 8263TIP3    H246205   0.226   0.424  16.958 -0.1006  0.8768  0.1466
 8264TIP3   OH246206   0.179   6.609   4.994  0.0633  0.1305 -0.8436
 8264TIP3    H146207   0.204   6.555   4.919  0.3548  0.3594 -0.9086
 8264TIP3    H246208   0.104   6.562   5.032  0.6473 -0.6237 -0.5788
 8265TIP3   OH246209   6.456   3.900   1.150  0.3094  0.3872  0.2228
 8265TIP3    H146210   6.395   3.889   1.077  0.4181 -1.7099  0.3875
 8265TIP3    H246211   6.417   3.969   1.203  0.7058  2.6419 -2.2432
 8266TIP3   OH246212   2.864   3.922   3.155  0.1807 -0.3378 -0.0845
 8266TIP3    H146213   2.776   3.884   3.159 -0.2762  0.7861  1.1022
 8266TIP3    H246214   2.902   3.885   3.075 -1.0008 -1.6124 -0.0966
 8267TIP3   OH246215   4.851   1.520  14.109 -0.0839 -0.2772 -0.4256
 8267TIP3    H146216   4.860   1.428  14.083 -0.6518 -0.1002 -1.2892
 8267TIP3    H246217   4.758   1.540  14.096  0.3015  0.8190 -1.6291
 8268TIP3   OH246218   2.218   5.283  16.583 -0.0349 -0.3275 -0.2545
 8268TIP3    H146219   2.124   5.276  16.564  0.2680 -3.3368 -1.1500
 8268TIP3    H246220   2.227   5.243  16.670  0.2366  1.6055  0.6411
 8269TIP3   OH246221   5.110   4.130  17.079  0.4592 -0.0798 -0.6051
 8269TIP3    H146222   5.082   4.103  17.166  1.3255  2.8789  0.6913
 8269TIP3    H246223   5.100   4.050  17.025  0.1383 -2.0632  2.1831
 8270TIP3   OH246224   3.868   4.470   6.399 -0.3953 -0.5243 -0.6737
 8270TIP3    H146225   3.911   4.480   6.484 -1.2700 -0.6408 -0.2005
 8270TIP3    H246226   3.908   4.392   6.360  1.5372  0.7348 -1.3335
 8271TIP3   OH246227   5.282   1.612   6.505 -0.5600 -0.7163 -0.0201
 8271TIP3    H146228   5.271   1.517   6.501  1.1334 -0.9101 -1.7115
 8271TIP3    H246229   5.373   1.625   6.532 -0.2568  0.3511 -1.4219
 8272TIP3   OH246230   1.803   2.335   2.536  0.3204  0.0981  0.2527
 8272TIP3    H146231   1.755   2.340   2.453  1.7859 -2.4047 -0.8528
 8272TIP3    H246232   1.895   2.325   2.510  0.9438  0.2163  2.2278
 8273TIP3   OH246233   1.030   6.167  14.397 -0.3258  0.3951  0.4027
 8273TIP3    H146234   1.096   6.107  14.362 -1.1571 -0.6287  0.5588
 8273TIP3    H246235   1.069   6.254  14.385 -0.5680  0.1640 -3.0932
 8274TIP3   OH246236   2.697   4.999  17.041  0.3945 -0.4057 -0.3403
 8274TIP3    H146237   2.661   5.050  17.114 -1.9767  0.7381 -2.1600
 8274TIP3    H246238   2.732   4.920  17.082 -0.4297  0.3799  2.0639
 8275TIP3   OH246239   1.875   3.196   1.313  0.1830 -0.6494  0.2180
 8275TIP3    H146240   1.889   3.117   1.365 -0.1408  0.4304  2.0281
 8275TIP3    H246241   1.915   3.177   1.229 -1.1640 -3.2868  0.0831
 8276TIP3   OH246242   4.294   2.584   0.297  0.2073  0.6391 -0.1141
 8276TIP3    H146243   4.278   2.677   0.313 -0.4004  0.2186  2.2050
 8276TIP3    H246244   4.247   2.565   0.216  0.7130  2.4265 -0.8813
 8277TIP3   OH246245   0.960   6.750   3.029  0.0982 -0.0795  0.2519
 8277TIP3    H146246   1.001   6.669   3.059  0.3706  0.1628  0.5427
 8277TIP3    H246247   0.988   6.816   3.092 -0.2253  0.2171  0.0895
 8278TIP3   OH246248   4.029   4.513   2.413 -0.7906  0.4727  0.9192
 8278TIP3    H146249   4.010   4.496   2.321  0.0959  1.5754  0.5148
 8278TIP3    H246250   4.058   4.428   2.447 -2.0814 -0.1805  0.4567
 8279TIP3   OH246251   2.118   3.548   0.873 -0.0291  0.3177 -0.0793
 8279TIP3    H146252   2.153   3.465   0.908 -0.7289 -0.1964 -0.5741
 8279TIP3    H246253   2.184   3.613   0.897  1.2084 -0.5925 -0.8536
 8280TIP3   OH246254   6.544   3.292  17.226 -0.3215 -0.0173  0.5321
 8280TIP3    H146255   6.592   3.209  17.228  1.8803  1.1785  2.5029
 8280TIP3    H246256   6.568   3.332  17.143  0.3647 -0.4253  0.5271
 8281TIP3   OH246257   1.880   0.225  14.415  0.2693 -0.3350  0.7385
 8281TIP3    H146258   1.856   0.316  14.429  1.2722 -0.0925  0.9386
 8281TIP3    H246259   1.875   0.185  14.502  0.2905 -0.3599  0.7282
 8282TIP3   OH246260   0.188   0.113   0.558 -0.3933  0.2120  0.0497
 8282TIP3    H146261   0.121   0.157   0.505  0.9690  1.2472 -0.9170
 8282TIP3    H246262   0.249   0.076   0.493 -0.2165 -1.0199  0.8930
 8283TIP3   OH246263   2.370   0.400  14.932 -0.0859 -0.3254  0.3672
 8283TIP3    H146264   2.313   0.462  14.888  1.3564 -0.7646 -2.3454
 8283TIP3    H246265   2.330   0.387  15.018 -2.0192  2.0708 -0.0673
 8284TIP3   OH246266   5.810   2.869   0.012  0.3702 -0.6281  0.7081
 8284TIP3    H146267   5.882   2.806   0.008  0.6168 -0.4365  1.7612
 8284TIP3    H246268   5.835   2.929   0.082  0.2243  0.7623 -0.3878
 8285TIP3   OH246269   5.557   2.543  15.925 -0.1754  0.3528  0.5168
 8285TIP3    H146270   5.577   2.464  15.976  0.7923  1.6148  2.2306
 8285TIP3    H246271   5.470   2.569  15.955 -0.8620 -0.4672 -0.6641
 8286TIP3   OH246272   3.400   2.986   1.431 -0.7688  0.2900 -0.9981
 8286TIP3    H146273   3.432   2.990   1.521 -0.7955 -1.0522 -0.9117
 8286TIP3    H246274   3.364   3.073   1.414 -1.7200  0.2489  0.6331
 8287TIP3   OH246275   5.364   0.187   0.501 -0.8631 -0.5862 -0.3571
 8287TIP3    H146276   5.450   0.199   0.460 -0.5111 -1.3129  0.1407
 8287TIP3    H246277   5.322   0.120   0.449 -0.2366 -1.8421  0.6936
 8288TIP3   OH246278   2.741   5.647   2.638 -0.0734  0.2886 -0.0702
 8288TIP3    H146279   2.823   5.622   2.682 -0.1694 -3.3387 -1.6564
 8288TIP3    H246280   2.675   5.642   2.707  0.2869 -2.0589  0.1831
 8289TIP3   OH246281   0.637   5.378   1.650  0.1775 -0.2075  0.6734
 8289TIP3    H146282   0.689   5.430   1.712  0.1036 -2.7107  3.0421
 8289TIP3    H246283   0.547   5.386   1.682 -0.0566 -0.5319  0.1092
 8290TIP3   OH246284   1.392   4.296   5.034  0.0418  0.0314 -0.2966
 8290TIP3    H146285   1.485   4.293   5.058 -0.0115  0.6721  0.0234
 8290TIP3    H246286   1.347   4.249   5.103  0.1840 -0.9038 -0.8180
 8291TIP3   OH246287   6.313   1.366  12.197  0.0569 -0.4042 -0.3903
 8291TIP3    H146288   6.234   1.342  12.246  0.4882 -0.6800  0.1799
 8291TIP3    H246289   6.283   1.379  12.107 -1.1687  2.1979  0.2854
 8292TIP3   OH246290   6.765   3.626   4.014 -0.1656  0.4459  0.1458
 8292TIP3    H146291   6.702   3.555   4.009 -0.5300  0.6311  1.6595
 8292TIP3    H246292   6.749   3.678   3.936  0.8115 -1.6517 -1.5769
 8293TIP3   OH246293   5.572   4.977   3.358 -0.2217  0.2846  0.2843
 8293TIP3    H146294   5.605   4.947   3.274  0.8427  0.2841  0.6936
 8293TIP3    H246295   5.519   4.904   3.390 -2.0397  0.9161 -1.1182
 8294TIP3   OH246296   3.836   5.681  16.150  0.1512  0.2378  0.0911
 8294TIP3    H146297   3.802   5.633  16.075 -0.3190  0.5908  0.0691
 8294TIP3    H246298   3.793   5.642  16.226 -1.6531  1.7602 -0.0598
 8295TIP3   OH246299   4.478   3.977   0.651 -0.2772  0.2822  0.1010
 8295TIP3    H146300   4.477   3.908   0.716 -0.3419  0.0901 -0.1031
 8295TIP3    H246301   4.484   4.058   0.702  0.6765  0.0899  0.3046
 8296TIP3   OH246302   0.582   4.976  13.057 -0.3214  0.0411  0.3742
 8296TIP3    H146303   0.541   4.975  13.144 -0.9596 -2.2980  0.1082
 8296TIP3    H246304   0.525   5.033  13.005 -1.0036 -0.0450  1.0008
 8297TIP3   OH246305   3.664   0.176  10.946 -0.0375 -0.5874  0.3392
 8297TIP3    H146306   3.715   0.252  10.919 -1.9513  0.6667  0.0961
 8297TIP3    H246307   3.594   0.212  11.000 -0.9272 -2.1861  0.3086
 8298TIP3   OH246308   4.912   5.317  14.434  0.0868 -0.7430 -0.3792
 8298TIP3    H146309   4.968   5.284  14.364  1.3917 -0.0221  0.2861
 8298TIP3    H246310   4.937   5.409  14.443  0.4500 -0.9738  1.4628
 8299TIP3   OH246311   5.019   1.101   2.032 -0.2763  0.1094  0.3258
 8299TIP3    H146312   4.992   1.014   2.062 -0.6114  0.4032  0.8750
 8299TIP3    H246313   4.944   1.134   1.983 -0.9909  0.9582  1.9199
 8300TIP3   OH246314   0.755   4.114  15.026  0.2954  0.0996  0.1529
 8300TIP3    H146315   0.722   4.028  14.999 -0.8568  1.0218 -1.6093
 8300TIP3    H246316   0.679   4.156  15.066  0.6842  0.5195  0.4482
 8301TIP3   OH246317   1.173   2.001  15.576 -0.3001 -0.0988 -0.1642
 8301TIP3    H146318   1.193   1.909  15.555 -0.7302 -0.1152 -0.4990
 8301TIP3    H246319   1.140   2.038  15.495  1.0301  0.6993 -0.3715
 8302TIP3   OH246320   2.944   6.526  13.225 -0.5687  0.6834  0.2199
 8302TIP3    H146321   2.909   6.608  13.193  1.6687  1.8248  0.4815
 8302TIP3    H246322   2.900   6.511  13.308 -2.1533  0.7494 -0.5780
 8303TIP3   OH246323   3.129   4.864   1.203  0.3014  0.0332  0.8599
 8303TIP3    H146324   3.058   4.817   1.247  0.3562  0.2910  1.2254
 8303TIP3    H246325   3.173   4.797   1.151 -0.3858 -0.0773  0.3973
 8304TIP3   OH246326   4.208   4.778  15.902 -0.1329  0.1880  0.1521
 8304TIP3    H146327   4.224   4.851  15.843 -1.1232 -0.5340 -1.0574
 8304TIP3    H246328   4.165   4.712  15.847  0.1076 -1.0241  1.3743
 8305TIP3   OH246329   0.343   4.581   2.416  0.0098  0.5619 -0.3547
 8305TIP3    H146330   0.434   4.554   2.433 -0.0945  1.1911  1.4650
 8305TIP3    H246331   0.291   4.528   2.477 -0.7625  0.7945 -0.8010
 8306TIP3   OH246332   4.219   1.622  11.234 -0.5381  0.0562 -0.2415
 8306TIP3    H146333   4.236   1.541  11.186  0.0518 -0.2554  0.4850
 8306TIP3    H246334   4.209   1.689  11.165  0.2875 -0.3816 -0.8053
 8307TIP3   OH246335   4.967   3.574  14.507  0.1619  0.3276  0.3416
 8307TIP3    H146336   5.048   3.592  14.458 -0.1015  1.5508  0.3085
 8307TIP3    H246337   4.901   3.562  14.439  0.2744 -0.5005  0.3719
 8308TIP3   OH246338   3.083   0.408   1.647 -0.5960 -0.1284  0.1169
 8308TIP3    H146339   3.148   0.445   1.588 -1.6852  1.0554 -0.3960
 8308TIP3    H246340   3.133   0.377   1.722  0.4136  2.5351  0.6381
 8309TIP3   OH246341   2.122   1.025  15.320  0.5262 -0.3366  0.1502
 8309TIP3    H146342   2.118   1.111  15.278 -0.9435 -1.4731 -2.2444
 8309TIP3    H246343   2.081   1.038  15.406 -0.3787  1.1939 -0.4671
 8310TIP3   OH246344   2.237   0.858  14.551 -0.1466 -0.5439 -0.4398
 8310TIP3    H146345   2.155   0.847  14.502  0.2922  0.4238 -1.4242
 8310TIP3    H246346   2.223   0.936  14.605 -0.5073 -1.4152  0.7839
 8311TIP3   OH246347   3.006   2.491  14.838  0.4980  0.0613 -0.1140
 8311TIP3    H146348   3.058   2.410  14.838  1.1143  0.3572  2.4900
 8311TIP3    H246349   2.957   2.487  14.921 -2.3682  0.6376 -1.6492
 8312TIP3   OH246350   5.108   5.704   4.576 -0.1499 -0.6547  0.6560
 8312TIP3    H146351   5.065   5.770   4.521 -0.9376 -1.3938  0.3622
 8312TIP3    H246352   5.192   5.687   4.533  0.4116  0.6971  1.1562
 8313TIP3   OH246353   2.548   4.007  13.380 -0.7449  0.2109 -0.3608
 8313TIP3    H146354   2.638   4.036  13.372 -0.7700  0.3286 -0.2109
 8313TIP3    H246355   2.499   4.085  13.406 -0.9758  0.2759 -0.9715
 8314TIP3   OH246356   3.811   5.205   4.399  0.4744 -0.4272 -0.7744
 8314TIP3    H146357   3.758   5.265   4.347  0.9363  0.1235 -0.6070
 8314TIP3    H246358   3.885   5.257   4.429 -1.1545  0.1188  2.8341
 8315TIP3   OH246359   2.652   2.747   2.523 -0.2974 -0.5618 -0.1503
 8315TIP3    H146360   2.659   2.830   2.569  0.0035 -1.3770  1.3302
 8315TIP3    H246361   2.568   2.710   2.552 -0.0083 -1.1812 -0.0828
 8316TIP3   OH246362   2.138   0.977   1.160 -0.2623 -0.0004  0.1217
 8316TIP3    H146363   2.084   0.911   1.202 -0.8151  0.3359 -0.0486
 8316TIP3    H246364   2.081   1.016   1.094 -0.2495  1.2830  0.8338
 8317TIP3   OH246365   0.847   6.694  15.950  0.4019  0.1541 -0.1382
 8317TIP3    H146366   0.819   6.755  16.019  0.8806 -1.4784  1.5757
 8317TIP3    H246367   0.848   6.747  15.870 -1.7172  1.7458  0.7908
 8318TIP3   OH246368   6.630   2.046  13.993  0.8123  0.1121  0.1866
 8318TIP3    H146369   6.687   1.969  14.001 -0.4516 -0.7971  0.8559
 8318TIP3    H246370   6.662   2.107  14.059  0.5668 -0.6900  1.0562
 8319TIP3   OH246371   5.003   1.136   6.524 -0.0818  0.1688 -0.4266
 8319TIP3    H146372   5.006   1.085   6.444  0.3257 -1.6719  0.7134
 8319TIP3    H246373   5.082   1.111   6.572 -1.2631 -0.2265  1.4005
 8320TIP3   OH246374   4.443   5.022   0.075 -0.0450  0.3403 -0.0543
 8320TIP3    H146375   4.448   5.117   0.071  2.3467  0.2739 -0.2377
 8320TIP3    H246376   4.524   4.996   0.120 -0.6153 -1.6013 -0.0641
 8321TIP3   OH246377   5.015   3.771  13.175 -0.4152  0.5722  0.1652
 8321TIP3    H146378   4.951   3.833  13.209  1.9762  3.9515 -0.9775
 8321TIP3    H246379   5.010   3.780  13.080 -0.4558 -1.5740 -0.0812
 8322TIP3   OH246380   6.647   6.357  16.615  0.0823  0.2927  0.2400
 8322TIP3    H146381   6.595   6.297  16.667 -0.0934  0.9350  0.8242
 8322TIP3    H246382   6.594   6.376  16.538 -1.0135  1.6875  1.2782
 8323TIP3   OH246383   0.868   1.799   2.034 -0.3980  0.1331 -0.1629
 8323TIP3    H146384   0.936   1.783   1.969 -0.5006  0.1575 -0.2748
 8323TIP3    H246385   0.915   1.841   2.107 -0.3892  0.6252 -0.4538
 8324TIP3   OH246386   4.265   3.377  15.909 -0.1424  0.6061  0.5259
 8324TIP3    H146387   4.285   3.433  15.984  0.7927 -0.7754  1.3369
 8324TIP3    H246388   4.347   3.372  15.860 -0.6748  1.2733 -0.4723
 8325TIP3   OH246389   1.852   1.548   5.202  0.2315 -0.0192 -0.0961
 8325TIP3    H146390   1.944   1.549   5.228  0.3801 -2.0689 -0.3838
 8325TIP3    H246391   1.833   1.456   5.184 -1.4636  0.5556 -1.5522
 8326TIP3   OH246392   1.784   6.282   1.213  0.0603 -0.7357 -0.1527
 8326TIP3    H146393   1.855   6.327   1.168 -1.9096  1.9391 -0.8059
 8326TIP3    H246394   1.773   6.329   1.295 -0.7400 -1.3036  0.0773
 8327TIP3   OH246395   2.167   0.289  11.408 -0.2222 -0.4109  0.5621
 8327TIP3    H146396   2.242   0.291  11.347 -0.2697  2.4088  0.4769
 8327TIP3    H246397   2.206   0.304  11.494 -0.4478 -1.6852  0.9082
 8328TIP3   OH246398   0.048   1.708   3.605 -0.1093  0.1115 -0.2573
 8328TIP3    H146399   0.110   1.644   3.570  0.4883  0.2075  0.5972
 8328TIP3    H246400   0.098   1.758   3.670 -0.7997  0.8769 -0.2884
 8329TIP3   OH246401   3.351   3.333  15.025 -0.1521  0.4517  0.0448
 8329TIP3    H146402   3.431   3.283  15.039  0.5878  0.3911 -3.3552
 8329TIP3    H246403   3.281   3.269  15.032  0.5957 -0.6664 -1.8513
 8330TIP3   OH246404   5.605   0.098  12.057  0.0646 -0.3707 -0.1292
 8330TIP3    H146405   5.541   0.040  12.016 -0.3041 -1.4359  1.8178
 8330TIP3    H246406   5.566   0.185  12.049 -1.0296 -0.8336 -0.1188
 8331TIP3   OH246407   0.066   1.414  12.487 -0.2279 -0.2402 -0.5404
 8331TIP3    H146408   0.026   1.348  12.544  0.2159 -0.1330 -0.0944
 8331TIP3    H246409   0.135   1.454  12.541  1.1788 -1.1231 -1.6038
 8332TIP3   OH246410   6.607   2.267  15.131  0.0712 -0.0664  0.0209
 8332TIP3    H146411   6.619   2.176  15.157 -0.6255  0.5735  2.8845
 8332TIP3    H246412   6.515   2.273  15.104 -0.1963  0.0083  0.9306
 8333TIP3   OH246413   3.662   4.454  12.794  0.4305 -0.4145 -0.1996
 8333TIP3    H146414   3.756   4.473  12.803  0.5678 -1.2322  0.1591
 8333TIP3    H246415   3.619   4.533  12.826  0.9776 -0.9456  1.9796
 8334TIP3   OH246416   0.771   6.118   5.623  0.0123  0.2982  0.3874
 8334TIP3    H146417   0.700   6.180   5.632 -0.0621  0.0971  1.2654
 8334TIP3    H246418   0.786   6.085   5.712  1.0781  0.2076  0.1872
 8335TIP3   OH246419   3.925   2.761  15.585  0.1197  0.0698  0.2404
 8335TIP3    H146420   3.927   2.854  15.607  0.3452 -0.2110  1.4973
 8335TIP3    H246421   3.994   2.722  15.638 -0.0540 -0.8385 -0.1743
 8336TIP3   OH246422   6.723   1.234   1.652 -0.2643  0.6228  0.3952
 8336TIP3    H146423   6.747   1.158   1.706 -0.5688  1.2020  1.3839
 8336TIP3    H246424   6.788   1.301   1.675 -0.1886  0.7731 -0.2336
 8337TIP3   OH246425   6.743   0.889  13.551 -0.0140  0.2075 -0.2446
 8337TIP3    H146426   6.783   0.976  13.550 -0.7736  0.5625 -1.4859
 8337TIP3    H246427   6.741   0.862  13.459  0.3014 -1.1798  0.1225
 8338TIP3   OH246428   0.343   5.344  12.342  0.6734 -0.1246 -0.6721
 8338TIP3    H146429   0.314   5.270  12.395  0.3863 -1.0619 -2.0752
 8338TIP3    H246430   0.297   5.419  12.379 -1.2550 -1.0953 -0.9487
 8339TIP3   OH246431   2.247   4.727   4.973  0.3114  0.3570 -0.5983
 8339TIP3    H146432   2.321   4.782   4.947  1.3058 -0.6468  0.0333
 8339TIP3    H246433   2.233   4.668   4.898  0.1264  0.5648 -0.7289
 8340TIP3   OH246434   2.888   3.708   3.579 -0.1015 -0.3414  0.1724
 8340TIP3    H146435   2.966   3.657   3.604 -0.8357 -2.6914 -1.8395
 8340TIP3    H246436   2.903   3.731   3.487 -2.1375 -1.7651 -0.6023
 8341TIP3   OH246437   3.952   3.249   0.244 -0.0659 -0.4159  0.2886
 8341TIP3    H146438   3.949   3.257   0.339 -0.0784  0.3121  0.2362
 8341TIP3    H246439   3.984   3.160   0.228  0.8132 -0.2419  0.9824
 8342TIP3   OH246440   0.580   4.864   6.025 -0.0393  0.2461  0.3951
 8342TIP3    H146441   0.675   4.865   6.019 -0.1031  0.8247 -0.7009
 8342TIP3    H246442   0.557   4.951   6.057 -0.1642 -0.2003  1.5765
 8343TIP3   OH246443   3.351   2.610  14.615  0.5806 -0.0125 -0.4898
 8343TIP3    H146444   3.322   2.702  14.618  0.6772  0.0063  0.0250
 8343TIP3    H246445   3.399   2.603  14.532  0.7338  0.4529 -0.4462
 8344TIP3   OH246446   4.749   3.374  15.274  0.1488  0.1827  0.2739
 8344TIP3    H146447   4.842   3.370  15.250  0.3838  0.5532  1.0882
 8344TIP3    H246448   4.741   3.452  15.327 -0.3302 -0.6592  1.4822
 8345TIP3   OH246449   4.427   5.817   3.926 -0.3578 -0.3737 -0.9426
 8345TIP3    H146450   4.449   5.853   3.840  0.0676 -0.8428 -1.0360
 8345TIP3    H246451   4.339   5.781   3.915 -0.1811 -0.7115 -1.2730
 8346TIP3   OH246452   6.276   6.514  11.725 -0.2256 -0.1289  0.0070
 8346TIP3    H146453   6.257   6.434  11.677  0.3362  0.1706 -0.7316
 8346TIP3    H246454   6.317   6.572  11.661  1.4109 -0.0624  1.0419
 8347TIP3   OH246455   1.362   3.686  11.156  0.1654  0.1647  0.4482
 8347TIP3    H146456   1.385   3.725  11.240  0.9098  1.5960 -0.3872
 8347TIP3    H246457   1.300   3.748  11.117  1.9757  1.0302 -1.2503
 8348TIP3   OH246458   4.201   3.769  13.860  0.5878  0.1297  0.5114
 8348TIP3    H146459   4.236   3.681  13.876 -2.9846 -1.1952  2.0767
 8348TIP3    H246460   4.211   3.782  13.766  0.5225 -2.3231  0.1095
 8349TIP3   OH246461   2.749   5.582   1.846 -0.9156  0.7028  0.4380
 8349TIP3    H146462   2.723   5.497   1.810  1.1607  1.3270 -2.9786
 8349TIP3    H246463   2.708   5.646   1.789  2.7530  1.7672 -1.3031
 8350TIP3   OH246464   4.706   0.085   2.999  0.2016  0.3659  0.1836
 8350TIP3    H146465   4.751   0.169   3.005 -0.8339  0.8996  0.9889
 8350TIP3    H246466   4.613   0.109   2.990  0.0655 -0.6828 -1.5941
 8351TIP3   OH246467   3.522   5.465   1.451 -0.3412  1.1327 -0.2510
 8351TIP3    H146468   3.560   5.394   1.398 -0.3596  0.2582  0.8837
 8351TIP3    H246469   3.453   5.423   1.502 -0.0820  1.8863  0.7537
 8352TIP3   OH246470   5.596   1.848   4.688 -0.5297  0.2209  0.1131
 8352TIP3    H146471   5.577   1.937   4.657 -0.4506  0.0368 -0.4696
 8352TIP3    H246472   5.530   1.793   4.646  0.6466 -0.2888 -1.1586
 8353TIP3   OH246473   4.997   3.276   2.294 -0.0569  0.0380  0.4669
 8353TIP3    H146474   5.086   3.267   2.330 -0.3375 -0.1556  1.1173
 8353TIP3    H246475   4.957   3.191   2.309  0.2047 -0.4473 -1.3871
 8354TIP3   OH246476   2.206   3.486  11.946 -0.3772  0.2440 -0.2033
 8354TIP3    H146477   2.131   3.545  11.951  0.8349  1.9749 -1.2537
 8354TIP3    H246478   2.252   3.513  11.866  1.9637  0.0282  0.9960
 8355TIP3   OH246479   1.897   4.573  15.649  0.5769  0.2546 -0.3235
 8355TIP3    H146480   1.883   4.491  15.602 -1.1369  0.4849 -0.2655
 8355TIP3    H246481   1.862   4.640  15.591 -1.0918  0.5967  1.0085
 8356TIP3   OH246482   1.621   5.128  16.491 -0.2290  0.2497 -0.4900
 8356TIP3    H146483   1.547   5.186  16.477 -0.3004  0.0666 -0.8968
 8356TIP3    H246484   1.639   5.091  16.404  0.2371  0.1754 -0.3677
 8357TIP3   OH246485   6.176   6.026   4.633  0.4051 -0.1959  0.1739
 8357TIP3    H146486   6.203   6.112   4.664 -0.9715  0.1217  0.5692
 8357TIP3    H246487   6.189   5.968   4.709 -3.3286  0.6532  1.6900
 8358TIP3   OH246488   3.337   4.764   4.204  0.1089  0.0163 -1.0308
 8358TIP3    H146489   3.420   4.791   4.243  0.6220 -0.9877 -1.3792
 8358TIP3    H246490   3.309   4.840   4.152  1.1028  0.1730 -1.3674
 8359TIP3   OH246491   4.324   5.490   0.683 -0.3169  0.2433  0.0118
 8359TIP3    H146492   4.286   5.410   0.646 -0.1589  0.5052 -0.7478
 8359TIP3    H246493   4.257   5.524   0.742 -0.8541  0.1547 -0.5337
 8360TIP3   OH246494   6.532   4.324   0.126  0.3259 -0.2727 -0.0660
 8360TIP3    H146495   6.588   4.399   0.106 -0.2337  0.4440  0.9870
 8360TIP3    H246496   6.445   4.361   0.139 -0.1795 -1.2405 -0.5759
 8361TIP3   OH246497   2.717   3.841  12.076 -0.2711  0.5336  0.0153
 8361TIP3    H146498   2.723   3.870  11.985  0.9495  3.5573  0.9509
 8361TIP3    H246499   2.795   3.876  12.118 -0.9237 -0.5661  2.3228
 8362TIP3   OH246500   5.541   2.867   4.130  0.4563 -0.7288 -0.1966
 8362TIP3    H146501   5.536   2.781   4.172  0.4559 -1.2783 -1.2983
 8362TIP3    H246502   5.606   2.915   4.182  0.6811 -1.4990  0.2450
 8363TIP3   OH246503   2.990   4.899  15.689  0.2563  0.2348 -1.0036
 8363TIP3    H146504   3.050   4.829  15.664  2.1777  1.6716 -0.6627
 8363TIP3    H246505   3.045   4.977  15.692 -1.3753  1.3907  0.6725
 8364TIP3   OH246506   1.528   2.179   1.603 -0.4717  0.0386 -0.2355
 8364TIP3    H146507   1.439   2.195   1.571  0.1010  3.9098 -0.3560
 8364TIP3    H246508   1.520   2.183   1.698 -0.3927  0.6165 -0.2531
 8365TIP3   OH246509   1.651   0.437   0.439  0.0501 -0.0109  0.0260
 8365TIP3    H146510   1.704   0.509   0.474  0.0022  0.1291 -0.1886
 8365TIP3    H246511   1.694   0.358   0.472 -0.2012  0.1271  0.6906
 8366TIP3   OH246512   2.873   2.327   0.903  0.6685  0.3798  0.2952
 8366TIP3    H146513   2.866   2.232   0.898 -1.8393  0.5589 -1.4980
 8366TIP3    H246514   2.931   2.351   0.831 -1.0396  0.3097 -1.1781
 8367TIP3   OH246515   1.294   2.016  13.894 -0.2493 -0.1120 -0.5344
 8367TIP3    H146516   1.366   1.976  13.844 -1.6982 -1.6346 -1.5237
 8367TIP3    H246517   1.228   2.037  13.828 -0.6870  1.4019  0.3344
 8368TIP3   OH246518   2.549   2.515  15.869 -0.2404 -0.0646 -0.4938
 8368TIP3    H146519   2.462   2.493  15.904 -0.9959  0.5577 -1.8523
 8368TIP3    H246520   2.604   2.526  15.946 -1.7781  1.1535  0.4968
 8369TIP3   OH246521   2.269   1.410   5.505  0.8451  0.0652 -0.1699
 8369TIP3    H146522   2.231   1.423   5.591  0.1340  1.1473 -0.6309
 8369TIP3    H246523   2.350   1.362   5.522  1.4871  1.5426  1.2561
 8370TIP3   OH246524   5.061   1.735  13.274  0.3108  0.1506  0.0531
 8370TIP3    H146525   5.111   1.703  13.198 -3.6316 -1.9566 -1.9773
 8370TIP3    H246526   5.058   1.830  13.262  0.1854 -0.0847 -2.2839
 8371TIP3   OH246527   4.171   3.887   1.537  0.2926  0.7512 -0.2850
 8371TIP3    H146528   4.118   3.956   1.577 -0.7373 -0.9097  1.3498
 8371TIP3    H246529   4.108   3.834   1.488  0.9704  0.5621 -0.9753
 8372TIP3   OH246530   5.879   5.917   3.720 -0.2351 -0.2510 -1.1574
 8372TIP3    H146531   5.914   5.838   3.679 -0.1497  0.4267 -2.4331
 8372TIP3    H246532   5.894   5.904   3.814  2.0861 -0.6275 -1.5204
 8373TIP3   OH246533   2.760   4.853   2.658 -0.2179  0.1419  0.9432
 8373TIP3    H146534   2.731   4.925   2.713 -0.8417  0.5184  0.1371
 8373TIP3    H246535   2.688   4.839   2.596 -0.1004 -1.1544  1.0658
 8374TIP3   OH246536   0.606   0.547  12.216 -0.1388 -0.1173  0.4073
 8374TIP3    H146537   0.546   0.507  12.153 -1.3571  0.1652  1.3620
 8374TIP3    H246538   0.564   0.629  12.241  0.4179 -0.1403  1.4597
 8375TIP3   OH246539   0.715   2.902   4.611  0.2314 -0.3869 -0.0031
 8375TIP3    H146540   0.718   2.934   4.701 -0.5552 -1.7169  0.5289
 8375TIP3    H246541   0.670   2.972   4.562  1.1833  0.5950  0.5010
 8376TIP3   OH246542   4.362   4.361   2.884  0.3640  0.0079  0.1806
 8376TIP3    H146543   4.373   4.446   2.841  1.4813 -0.6373 -0.8536
 8376TIP3    H246544   4.330   4.383   2.972  1.7001  1.5751  0.3205
 8377TIP3   OH246545   5.781   6.268  16.160  0.7235  0.1866  0.1754
 8377TIP3    H146546   5.816   6.357  16.164 -2.1520  1.7066 -3.3273
 8377TIP3    H246547   5.857   6.213  16.137  2.1954  2.0385  0.4157
 8378TIP3   OH246548   0.634   5.787   2.941 -0.3696 -0.2885  0.1412
 8378TIP3    H146549   0.623   5.700   2.904 -0.4209  0.5876 -2.0916
 8378TIP3    H246550   0.573   5.790   3.015 -0.9436 -1.8631 -0.2393
 8379TIP3   OH246551   1.524   1.747  12.582  0.1328 -0.2324  0.7470
 8379TIP3    H146552   1.567   1.711  12.659 -2.0862  0.5301  2.4583
 8379TIP3    H246553   1.502   1.837  12.606 -1.3666 -0.2250 -0.4246
 8380TIP3   OH246554   5.284   3.316   5.368  0.1658 -0.3738 -0.0774
 8380TIP3    H146555   5.242   3.232   5.345 -1.5748  0.9032 -1.9130
 8380TIP3    H246556   5.221   3.359   5.426  0.2021  0.4285 -0.6266
 8381TIP3   OH246557   4.031   2.297  13.210  0.5937 -0.3087 -0.0237
 8381TIP3    H146558   4.075   2.228  13.161 -0.4502 -0.1327 -1.2392
 8381TIP3    H246559   4.028   2.264  13.300  1.4555 -1.1665 -0.2911
 8382TIP3   OH246560   2.987   6.747   2.028 -0.2587  0.2511  0.1429
 8382TIP3    H146561   2.898   6.783   2.031 -0.4334 -0.2222  1.1399
 8382TIP3    H246562   2.974   6.654   2.009  0.0638  0.3042 -0.3460
 8383TIP3   OH246563   6.036   0.210  12.623 -0.4423  0.0036 -0.6305
 8383TIP3    H146564   6.110   0.220  12.564 -0.7120 -0.6800 -1.0915
 8383TIP3    H246565   5.963   0.253  12.578 -0.2901  0.8586 -0.0864
 8384TIP3   OH246566   0.492   5.911   2.645  0.3279  0.1498  0.3344
 8384TIP3    H146567   0.433   5.942   2.714  0.5520 -0.1843  0.6778
 8384TIP3    H246568   0.545   5.844   2.687  1.5963  1.0950  0.2897
 8385TIP3   OH246569   3.552   3.368   6.114 -0.3200 -0.3078 -0.4789
 8385TIP3    H146570   3.457   3.381   6.109 -0.8380 -3.3487 -0.8006
 8385TIP3    H246571   3.566   3.327   6.200  0.6372 -0.2688 -0.6085
 8386TIP3   OH246572   6.191   6.706   5.340  0.5054  0.1949  0.0198
 8386TIP3    H146573   6.219   6.751   5.261 -0.5074  0.5250 -0.1666
 8386TIP3    H246574   6.152   6.625   5.310  1.4368 -0.3740  0.2942
 8387TIP3   OH246575   3.346   5.905  13.338 -0.3358 -0.2842 -0.1144
 8387TIP3    H146576   3.263   5.876  13.377 -0.1333 -0.7166  0.0007
 8387TIP3    H246577   3.409   5.897  13.409  0.0083 -0.9356 -0.4885
 8388TIP3   OH246578   3.118   5.473  11.281 -0.1965 -0.4829 -0.9133
 8388TIP3    H146579   3.109   5.378  11.280 -1.9540 -0.4314  1.4547
 8388TIP3    H246580   3.204   5.489  11.320  0.0636 -1.0909 -1.2278
 8389TIP3   OH246581   4.244   5.881   5.831  0.5617 -0.2420 -0.1879
 8389TIP3    H146582   4.305   5.944   5.870  0.0304  0.3574 -0.3096
 8389TIP3    H246583   4.190   5.934   5.772 -0.1472 -0.7493 -0.0001
 8390TIP3   OH246584   2.854   1.242   2.162 -0.0114  0.0938  0.3720
 8390TIP3    H146585   2.928   1.230   2.102  0.4286  0.6333  0.7988
 8390TIP3    H246586   2.808   1.158   2.159  0.8248 -0.3834  0.3852
 8391TIP3   OH246587   5.491   4.231  11.136  0.3370 -0.0932 -0.3361
 8391TIP3    H146588   5.457   4.251  11.049 -2.2022  1.1463  0.8349
 8391TIP3    H246589   5.557   4.298  11.152 -1.6786  1.9624 -0.0266
 8392TIP3   OH246590   2.887   3.048  14.470  0.2540 -0.1333  0.5140
 8392TIP3    H146591   2.911   2.990  14.542 -0.6265 -1.9426 -0.5784
 8392TIP3    H246592   2.812   3.005  14.428 -0.6316  1.9515 -0.1884
 8393TIP3   OH246593   2.772   5.449  13.871  0.0959  0.1140 -0.0585
 8393TIP3    H146594   2.787   5.401  13.790  0.3207  1.1119 -0.6226
 8393TIP3    H246595   2.831   5.524  13.866  1.4959 -0.7725  1.8819
 8394TIP3   OH246596   2.191   1.167  12.779 -0.0134  0.1604 -0.1151
 8394TIP3    H146597   2.163   1.082  12.743  2.3572 -2.4403  3.5136
 8394TIP3    H246598   2.271   1.187  12.732 -1.6682  1.7215 -2.5140
 8395TIP3   OH246599   1.467   1.890   5.488  0.0435 -0.5057 -0.1909
 8395TIP3    H146600   1.499   1.917   5.575  3.8681 -1.1758 -1.1691
 8395TIP3    H246601   1.467   1.794   5.492 -0.6913 -0.5257 -0.6482
 8396TIP3   OH246602   4.898   3.106  12.793 -0.2748  0.4569  0.4368
 8396TIP3    H146603   4.971   3.134  12.737  0.3674  0.9712  1.4963
 8396TIP3    H246604   4.867   3.186  12.833 -1.3523  0.2151  0.1079
 8397TIP3   OH246605   6.602   2.067  16.131  0.2856 -0.3531  0.4784
 8397TIP3    H146606   6.530   2.010  16.158  1.2546 -1.1624  1.4344
 8397TIP3    H246607   6.665   2.061  16.202  0.8065  1.2491  0.1822
 8398TIP3   OH246608   6.745   4.315  16.633 -0.2331 -0.1942 -0.5647
 8398TIP3    H146609   6.796   4.396  16.638 -1.3745  0.5244 -0.1812
 8398TIP3    H246610   6.784   4.267  16.559  2.4926 -0.7850  1.1179
 8399TIP3   OH246611   2.975   5.293  12.797  0.1226  0.0806 -0.6353
 8399TIP3    H146612   2.893   5.298  12.748  0.1368 -3.0066 -1.2113
 8399TIP3    H246613   3.041   5.270  12.732  0.6726 -1.3432  0.3634
 8400TIP3   OH246614   0.454   1.905  16.078 -0.0263 -0.1299 -0.3941
 8400TIP3    H146615   0.396   1.830  16.093 -0.0374  0.0055  0.2746
 8400TIP3    H246616   0.530   1.888  16.133 -0.1760  0.5063  0.0271
 8401TIP3   OH246617   3.096   4.259   5.416  0.1844 -0.0124 -0.1402
 8401TIP3    H146618   3.113   4.166   5.434  0.0252  0.2924  1.7564
 8401TIP3    H246619   3.183   4.297   5.403  0.4732  0.0359  1.6746
 8402TIP3   OH246620   6.289   0.005   5.624  0.4740  0.0921 -0.4584
 8402TIP3    H146621   6.332  -0.076   5.595 -0.9675 -1.0722  0.5378
 8402TIP3    H246622   6.222   0.022   5.557  0.7853  0.4957 -0.6754
 8403TIP3   OH246623   5.472   1.261   0.556  0.4138 -0.5061  0.0071
 8403TIP3    H146624   5.496   1.199   0.487 -0.6622 -0.6535 -0.2399
 8403TIP3    H246625   5.452   1.342   0.510  1.0318 -0.1931  0.2698
 8404TIP3   OH246626   6.758   3.607   5.243  0.2401  0.3501  1.1431
 8404TIP3    H146627   6.704   3.683   5.263  0.2410  0.3341  1.2048
 8404TIP3    H246628   6.716   3.534   5.288  0.7049  0.4597  1.7711
 8405TIP3   OH246629   4.175   2.637  14.881  0.2135  0.2268 -0.2276
 8405TIP3    H146630   4.180   2.621  14.787 -0.5324  1.4234 -0.5041
 8405TIP3    H246631   4.095   2.689  14.892  0.6941  0.7576  0.9735
 8406TIP3   OH246632   2.335   5.986   4.806 -0.7672  0.5597 -0.1434
 8406TIP3    H146633   2.277   6.020   4.874 -1.1618  1.2257 -0.7846
 8406TIP3    H246634   2.394   6.059   4.787  1.1826 -0.5375  1.4192
 8407TIP3   OH246635   6.715   5.189  16.642  0.2631 -0.0781  0.1123
 8407TIP3    H146636   6.689   5.171  16.733  1.1762 -1.7590  0.0693
 8407TIP3    H246637   6.785   5.127  16.624 -1.9477 -1.9985 -2.7596
 8408TIP3   OH246638   5.987   0.577   3.570 -0.5840 -0.1484  0.7025
 8408TIP3    H146639   5.935   0.499   3.554 -1.4493  0.3538  1.0124
 8408TIP3    H246640   5.924   0.649   3.565  0.0704  0.4647  1.1458
 8409TIP3   OH246641   6.045   6.548   2.374  0.0206 -0.2505 -0.3168
 8409TIP3    H146642   6.090   6.622   2.332  0.0315 -1.3353 -2.3344
 8409TIP3    H246643   5.953   6.572   2.374  0.2723  1.0496  1.8935
 8410TIP3   OH246644   4.128   2.357   1.236  0.5549 -0.2610 -0.2397
 8410TIP3    H146645   4.092   2.372   1.324 -1.5714  0.5983 -1.1863
 8410TIP3    H246646   4.184   2.280   1.247  1.5535  0.6796  2.1457
 8411TIP3   OH246647   2.963   4.130  16.421 -0.5124 -0.3776  0.3691
 8411TIP3    H146648   2.993   4.079  16.496 -0.6805  0.2406  0.8661
 8411TIP3    H246649   2.876   4.093  16.400  0.2569 -1.7209 -0.6540
 8412TIP3   OH246650   2.556   5.651   0.389  0.0014 -0.4842 -0.2194
 8412TIP3    H146651   2.478   5.615   0.432  0.0252 -0.0349  0.2217
 8412TIP3    H246652   2.556   5.612   0.302 -1.3380  0.3349 -0.6269
 8413TIP3   OH246653   4.655   5.962   1.489 -0.1183 -0.2519  0.2467
 8413TIP3    H146654   4.647   5.868   1.506 -1.4879 -0.3895 -0.9578
 8413TIP3    H246655   4.718   5.969   1.418 -1.1100 -0.4069 -0.6749
 8414TIP3   OH246656   1.154   1.598   2.984 -0.4929 -0.5573 -0.7474
 8414TIP3    H146657   1.084   1.663   2.981 -0.8043 -0.8445  0.0834
 8414TIP3    H246658   1.222   1.634   2.927 -0.1777  1.0913  0.5759
 8415TIP3   OH246659   5.214   5.953   4.484  0.0833  0.4255 -0.5941
 8415TIP3    H146660   5.262   6.032   4.507  0.0367 -0.1218  1.5653
 8415TIP3    H246661   5.271   5.881   4.513 -0.6988 -0.3009 -0.8261
 8416TIP3   OH246662   4.285   1.359   4.473  0.3158 -0.1429 -0.0097
 8416TIP3    H146663   4.257   1.404   4.394 -0.0612  0.6205  0.5464
 8416TIP3    H246664   4.212   1.299   4.493 -0.0470  0.4040  0.3258
 8417TIP3   OH246665   2.724   5.588   0.706 -0.1588  0.5318 -0.3493
 8417TIP3    H146666   2.721   5.678   0.673 -1.0899  0.3467 -0.7994
 8417TIP3    H246667   2.803   5.585   0.761  0.5113  1.3049 -1.2374
 8418TIP3   OH246668   1.863   0.246  17.020 -0.3737 -0.2870 -0.3923
 8418TIP3    H146669   1.957   0.231  17.012 -0.3928  0.2207 -2.1027
 8418TIP3    H246670   1.827   0.212  16.937 -1.6333 -0.0171  0.0216
 8419TIP3   OH246671   0.288   6.106  15.422 -0.1775  0.2276  0.6028
 8419TIP3    H146672   0.307   6.028  15.369  1.6504  1.2896 -0.4441
 8419TIP3    H246673   0.309   6.080  15.511  0.1370 -0.5753  0.3054
 8420TIP3   OH246674   4.337   4.392  12.030 -0.4970  0.0837 -0.2975
 8420TIP3    H146675   4.318   4.423  11.942 -2.6101 -1.5107 -0.4846
 8420TIP3    H246676   4.334   4.471  12.084 -1.2844  0.8153 -1.3579
 8421TIP3   OH246677   3.935   5.915  16.347 -0.0680 -0.3518 -0.1337
 8421TIP3    H146678   3.971   5.865  16.274  0.1623  0.3991 -0.5453
 8421TIP3    H246679   3.841   5.895  16.346 -0.1108 -0.1606 -0.8041
 8422TIP3   OH246680   4.105   3.191  16.172 -0.1703 -0.2102 -0.2394
 8422TIP3    H146681   4.042   3.255  16.139 -0.1235  0.9410  1.7912
 8422TIP3    H246682   4.188   3.214  16.129 -0.1053  1.2709  0.6397
 8423TIP3   OH246683   1.062   0.312   2.336 -0.1160 -0.0616 -0.5913
 8423TIP3    H146684   1.143   0.335   2.291 -0.7888 -1.1955 -2.4996
 8423TIP3    H246685   1.048   0.383   2.399  0.6937  1.8204 -2.4278
 8424TIP3   OH246686   6.480   5.156   5.290  0.7231 -0.0216 -0.5465
 8424TIP3    H146687   6.418   5.179   5.360  0.7713  1.2432 -0.8910
 8424TIP3    H246688   6.564   5.147   5.335  0.4528 -0.9724 -0.1955
 8425TIP3   OH246689   1.423   0.250  14.333 -0.1449 -0.3124  0.0136
 8425TIP3    H146690   1.498   0.293  14.292  0.2249 -0.9505  0.0053
 8425TIP3    H246691   1.413   0.294  14.417 -0.3092  0.3587 -0.3467
 8426TIP3   OH246692   2.384   0.165  15.996 -0.0736 -0.1600 -0.4788
 8426TIP3    H146693   2.451   0.139  16.059 -0.1460  1.5485  0.3524
 8426TIP3    H246694   2.430   0.222  15.934 -0.1879 -1.1600 -1.5258
 8427TIP3   OH246695   4.555   3.700   4.787 -0.5288  0.2805  0.6312
 8427TIP3    H146696   4.611   3.698   4.865 -0.2961  0.5945  0.4720
 8427TIP3    H246697   4.468   3.724   4.821 -0.0123  2.4177  0.5568
 8428TIP3   OH246698   3.858   2.252   0.325 -0.0367  0.1999  0.0721
 8428TIP3    H146699   3.827   2.273   0.237 -1.3303 -1.9812 -0.0732
 8428TIP3    H246700   3.784   2.270   0.382 -0.6204 -2.0972  0.1410
 8429TIP3   OH246701   5.230   5.196  15.120 -0.5047 -0.2668  0.1699
 8429TIP3    H146702   5.140   5.216  15.092 -0.8383  0.3204  1.5697
 8429TIP3    H246703   5.227   5.103  15.144 -0.9231 -0.0726  0.8826
 8430TIP3   OH246704   4.552   4.453   3.280 -0.3686 -0.4983 -0.1214
 8430TIP3    H146705   4.585   4.426   3.366 -0.9773 -0.0568  0.2619
 8430TIP3    H246706   4.590   4.540   3.266 -1.1577 -0.0910  0.2139
 8431TIP3   OH246707   4.618   6.038   4.521  0.5561 -0.4697 -0.2820
 8431TIP3    H146708   4.706   6.076   4.530  0.4145  0.1318 -1.2384
 8431TIP3    H246709   4.613   6.012   4.429  0.0287 -1.2820 -0.0372
 8432TIP3   OH246710   1.707   2.911   4.193  0.1978 -0.1299  0.5280
 8432TIP3    H146711   1.793   2.920   4.152  0.0809  0.4871  0.4000
 8432TIP3    H246712   1.689   2.998   4.229 -1.2753  0.3323 -1.2251
 8433TIP3   OH246713   4.301   4.325  11.747 -0.1233  1.3012  0.1917
 8433TIP3    H146714   4.216   4.290  11.722  0.6243  0.3915 -1.1761
 8433TIP3    H246715   4.359   4.249  11.750  0.6006  1.8636  1.3955
 8434TIP3   OH246716   2.614   2.743  13.677 -0.0836  0.7245  1.0249
 8434TIP3    H146717   2.570   2.760  13.594 -0.2619  0.3392  1.0348
 8434TIP3    H246718   2.630   2.648  13.676  0.5026  0.8206  1.1417
 8435TIP3   OH246719   3.910   2.079  15.431  0.0390  0.1735  0.5477
 8435TIP3    H146720   3.905   2.010  15.497  0.0240 -0.1437  0.2166
 8435TIP3    H246721   3.922   2.160  15.482 -0.7059  0.0231  0.9699
 8436TIP3   OH246722   6.734   5.855  15.834  0.1102  0.0446 -0.2874
 8436TIP3    H146723   6.777   5.839  15.918  1.1974  1.5977 -0.5125
 8436TIP3    H246724   6.650   5.894  15.858  0.4292  0.5110  0.0795
 8437TIP3   OH246725   3.248   6.386   5.994  0.6418  0.1194  0.2960
 8437TIP3    H146726   3.303   6.458   5.962 -1.6319  1.3100 -1.1247
 8437TIP3    H246727   3.182   6.374   5.927 -1.0328 -1.0788  2.0562
 8438TIP3   OH246728   5.339   2.538  14.038 -0.2748  0.5319  1.2797
 8438TIP3    H146729   5.287   2.562  14.115  1.1307 -0.5067  2.6260
 8438TIP3    H246730   5.344   2.618  13.986  0.9729  2.1076  3.6253
 8439TIP3   OH246731   0.771   1.312   2.342 -0.2334  0.0073  0.4948
 8439TIP3    H146732   0.803   1.285   2.428  0.7692 -1.1437 -0.2158
 8439TIP3    H246733   0.753   1.230   2.296  1.0865  0.5412 -1.0519
 8440TIP3   OH246734   2.926   1.577  14.620 -0.0121 -0.3545  0.4411
 8440TIP3    H146735   2.973   1.556  14.700 -0.0349 -1.9096  0.0890
 8440TIP3    H246736   2.838   1.602  14.649  0.1867 -0.2313  0.9393
 8441TIP3   OH246737   3.053   6.493  12.156 -0.1804 -0.2105 -0.0298
 8441TIP3    H146738   3.110   6.563  12.190  0.4981 -0.1121 -1.3067
 8441TIP3    H246739   2.997   6.471  12.230  2.9328 -1.8350  2.1044
 8442TIP3   OH246740   1.770   0.452  13.549  0.6701  0.7354  0.0397
 8442TIP3    H146741   1.680   0.467  13.521  0.9014  2.8864  0.2777
 8442TIP3    H246742   1.763   0.388  13.620 -0.7513  1.3533  0.4816
 8443TIP3   OH246743   1.117   0.047   2.406 -0.1434 -0.8860  0.0357
 8443TIP3    H146744   1.206   0.056   2.439 -0.1179  0.2945 -0.3232
 8443TIP3    H246745   1.085   0.137   2.398 -0.6709 -1.2054 -1.7480
 8444TIP3   OH246746   3.090   5.661   2.992 -0.8435  0.0223 -0.1460
 8444TIP3    H146747   3.052   5.589   3.041  0.2487 -0.7245 -0.3672
 8444TIP3    H246748   3.088   5.735   3.053 -1.4018 -0.3477  0.2961
 8445TIP3   OH246749   6.567   4.599   2.942  0.0104  1.0301 -0.1429
 8445TIP3    H146750   6.613   4.595   3.026  2.0151  0.1726 -1.2301
 8445TIP3    H246751   6.502   4.529   2.947  0.6338  0.4817  0.4068
 8446TIP3   OH246752   1.240   2.083  13.108  0.2681 -0.4295  0.2654
 8446TIP3    H146753   1.317   2.116  13.063  0.1184 -0.1172  0.2396
 8446TIP3    H246754   1.214   2.006  13.056  1.1848 -1.1751  0.8854
 8447TIP3   OH246755   3.529   1.957  13.670  0.3817  0.0971  0.3845
 8447TIP3    H146756   3.541   2.036  13.724 -1.5704  0.6158  0.1363
 8447TIP3    H246757   3.612   1.947  13.625  1.2402  1.0619  1.6608
 8448TIP3   OH246758   4.102   3.677  15.601 -0.6356 -0.2311 -0.2751
 8448TIP3    H146759   4.035   3.648  15.539  0.3076 -2.6950 -0.2555
 8448TIP3    H246760   4.063   3.664  15.687 -1.5204  2.1168 -0.2415
 8449TIP3   OH246761   3.485   5.227  13.681 -0.2033 -0.4310 -0.2291
 8449TIP3    H146762   3.526   5.308  13.651 -3.1977  0.8809 -1.2193
 8449TIP3    H246763   3.512   5.161  13.618 -1.6333  0.9692 -2.4178
 8450TIP3   OH246764   4.056   0.915  17.165 -0.0030 -0.2508 -0.3029
 8450TIP3    H146765   4.128   0.858  17.137  0.8505  0.4029  0.5089
 8450TIP3    H246766   4.074   0.999  17.121 -0.5136 -0.2039 -0.4313
 8451TIP3   OH246767   1.333   5.562  16.529  0.2829 -0.3590  0.0863
 8451TIP3    H146768   1.363   5.653  16.522  2.2095 -0.8187  1.5764
 8451TIP3    H246769   1.240   5.566  16.503  0.5061  1.8733 -0.6404
 8452TIP3   OH246770   3.776   2.923   4.581  0.4263  0.3420 -0.5753
 8452TIP3    H146771   3.774   2.862   4.507 -2.0837 -1.4525  0.7919
 8452TIP3    H246772   3.765   2.867   4.658 -1.2478  2.4347  0.8304
 8453TIP3   OH246773   6.074   0.163  11.213 -0.4846  0.3471  0.5554
 8453TIP3    H146774   6.050   0.242  11.164  1.7101  0.4583 -0.4820
 8453TIP3    H246775   6.061   0.091  11.152 -0.9322  0.0955  0.9472
 8454TIP3   OH246776   5.930   5.069   2.426 -0.0704  0.2093 -0.0058
 8454TIP3    H146777   5.886   5.047   2.508 -1.2312  1.2891 -0.3130
 8454TIP3    H246778   6.020   5.037   2.438 -0.6484 -1.1226  1.0251
 8455TIP3   OH246779   2.381   5.701   3.162 -0.5273 -0.3118 -0.4736
 8455TIP3    H146780   2.336   5.773   3.118  1.7986  1.2802 -0.4428
 8455TIP3    H246781   2.329   5.623   3.141 -2.8704  1.2793 -0.9015
 8456TIP3   OH246782   5.970   1.656   3.845 -0.4326  0.0229  0.3699
 8456TIP3    H146783   5.957   1.629   3.754  0.7935 -0.7792  0.4090
 8456TIP3    H246784   5.973   1.752   3.841 -0.3499 -0.0064 -0.4387
 8457TIP3   OH246785   2.659   5.036   0.979 -0.0198  0.0568 -0.2239
 8457TIP3    H146786   2.678   5.109   1.038 -0.8523  0.4290 -0.4057
 8457TIP3    H246787   2.598   4.981   1.027 -0.1959  0.0229 -0.4842
 8458TIP3   OH246788   5.866   5.668  16.026  0.2464 -0.0224  0.0856
 8458TIP3    H146789   5.869   5.589  15.973  0.7839  1.5712 -2.4379
 8458TIP3    H246790   5.952   5.708  16.014 -0.3694  1.4734  0.4197
 8459TIP3   OH246791   0.111   3.493   2.395  0.5784  0.2045 -0.0918
 8459TIP3    H146792   0.170   3.465   2.326  2.0615  2.3095  0.2229
 8459TIP3    H246793   0.069   3.572   2.361  2.2846  2.0507  1.7400
 8460TIP3   OH246794   0.487   4.205  12.218  0.0248  0.0745 -0.3707
 8460TIP3    H146795   0.511   4.161  12.299  1.6517  2.4799  0.5693
 8460TIP3    H246796   0.399   4.173  12.198 -0.6269 -0.2505  2.5849
 8461TIP3   OH246797   1.456   0.027  12.164 -0.3956 -0.4550  0.5660
 8461TIP3    H146798   1.437   0.113  12.125  0.5422  0.1219  1.3340
 8461TIP3    H246799   1.370  -0.012  12.178 -0.8009 -0.3881 -1.3813
 8462TIP3   OH246800   2.317   5.218   1.205 -0.2540 -0.5088 -0.4423
 8462TIP3    H146801   2.354   5.154   1.144  0.2772 -0.4402 -0.1958
 8462TIP3    H246802   2.389   5.278   1.223  0.7033 -2.3867  2.8773
 8463TIP3   OH246803   1.913   6.627  15.566  0.4891 -0.1822  0.6924
 8463TIP3    H146804   1.836   6.674  15.598 -0.2092  0.8106 -2.1687
 8463TIP3    H246805   1.972   6.696  15.535  0.5348 -1.0210 -1.2642
 8464TIP3   OH246806   4.075   2.739  16.057 -0.9309 -0.2513 -0.3048
 8464TIP3    H146807   3.991   2.765  16.094 -0.5949  1.6996 -0.8310
 8464TIP3    H246808   4.060   2.651  16.023 -2.0908 -0.8983  1.7031
 8465TIP3   OH246809   3.686   6.743   3.376  0.1400 -0.6436  0.3057
 8465TIP3    H146810   3.776   6.772   3.383 -0.0226  0.4459 -1.4780
 8465TIP3    H246811   3.691   6.660   3.329  0.1797 -0.2760 -0.3444
 8466TIP3   OH246812   6.735   0.759  13.792 -0.0093  0.2808 -0.4608
 8466TIP3    H146813   6.743   0.798  13.705 -0.6051  0.0271 -0.6344
 8466TIP3    H246814   6.641   0.750  13.806 -0.0048  1.8386  0.8995
 8467TIP3   OH246815   0.109   5.630  16.653 -0.4695 -0.0580 -0.1349
 8467TIP3    H146816   0.082   5.719  16.674  0.3220  0.0956  0.2899
 8467TIP3    H246817   0.133   5.592  16.738  0.9777 -0.0468 -0.5150
 8468TIP3   OH246818   1.905   3.208  11.324  0.7693 -0.3991  0.2088
 8468TIP3    H146819   1.979   3.156  11.292  0.4085 -0.4224 -0.6023
 8468TIP3    H246820   1.831   3.179  11.271  0.0515 -0.7542  1.3536
 8469TIP3   OH246821   3.506   2.704   1.464 -0.2290  0.6614  0.2307
 8469TIP3    H146822   3.523   2.775   1.526 -0.9026  0.9378  0.1165
 8469TIP3    H246823   3.591   2.684   1.426 -0.1485  2.0308 -0.3811
 8470TIP3   OH246824   3.463   2.292   0.020  0.2286  0.5012  0.0093
 8470TIP3    H146825   3.440   2.334   0.103  1.0163  0.5853  0.1958
 8470TIP3    H246826   3.559   2.294   0.018  0.2794 -1.1860 -0.0389
 8471TIP3   OH246827   2.765   2.686   2.937  0.3498  0.5533  0.0481
 8471TIP3    H146828   2.687   2.632   2.929  1.6866 -1.7678  1.3503
 8471TIP3    H246829   2.746   2.747   3.008  0.0444 -0.6477  1.0184
 8472TIP3   OH246830   2.595   5.175   4.929  0.0230 -0.5827  0.2902
 8472TIP3    H146831   2.564   5.145   4.844 -0.6736 -0.1104  0.3680
 8472TIP3    H246832   2.516   5.187   4.981  0.4037 -0.3469  0.8290
 8473TIP3   OH246833   2.791   6.237  14.456 -0.5032  0.0703 -0.6887
 8473TIP3    H146834   2.720   6.247  14.393 -1.8694 -2.1599  0.3641
 8473TIP3    H246835   2.861   6.194  14.407 -1.3138 -1.0645 -0.8944
 8474TIP3   OH246836   6.375   1.821  13.920  0.2231  0.1486 -0.3439
 8474TIP3    H146837   6.427   1.788  13.993 -0.3863 -1.0166 -0.4077
 8474TIP3    H246838   6.422   1.792  13.842  0.7875  1.2537 -0.4347
 8475TIP3   OH246839   4.823   3.725  11.848 -0.1714  0.1378  0.0210
 8475TIP3    H146840   4.756   3.728  11.780 -0.6877 -2.4131  0.3222
 8475TIP3    H246841   4.784   3.672  11.917  1.6216 -0.1622  0.8402
 8476TIP3   OH246842   2.443   0.607   2.968 -0.5268  0.0018  0.1457
 8476TIP3    H146843   2.348   0.597   2.978 -1.0560  2.8631 -1.0579
 8476TIP3    H246844   2.459   0.596   2.875  0.6366 -1.9907  0.5150
 8477TIP3   OH246845   3.453   2.647  16.326  0.0002  0.4712  0.5950
 8477TIP3    H146846   3.533   2.595  16.312  0.0779  0.1377  2.0696
 8477TIP3    H246847   3.390   2.613  16.263  0.4973 -0.4545  0.5855
 8478TIP3   OH246848   0.081   5.043   4.609  0.3265  0.5624 -0.6398
 8478TIP3    H146849   0.044   4.971   4.558  2.4771 -0.2754 -1.1335
 8478TIP3    H246850   0.169   5.014   4.631  0.4118  2.0673  1.2406
 8479TIP3   OH246851   2.564   0.810  11.963  0.2633  0.7524  0.0073
 8479TIP3    H146852   2.549   0.723  11.998  1.1550  1.3405  1.9727
 8479TIP3    H246853   2.482   0.857  11.978  1.0727  1.4237  2.7744
 8480TIP3   OH246854   3.710   4.800   3.136  0.4307 -0.2056  0.7920
 8480TIP3    H146855   3.658   4.798   3.216 -2.0828  1.7096 -0.6285
 8480TIP3    H246856   3.648   4.827   3.068  2.6488 -0.8297 -1.6447
 8481TIP3   OH246857   6.399   3.526  16.270 -0.1474  0.3484 -0.3253
 8481TIP3    H146858   6.335   3.592  16.297 -0.9705 -0.1249 -1.0439
 8481TIP3    H246859   6.392   3.456  16.336  0.6055  0.8838  0.3430
 8482TIP3   OH246860   5.803   3.724   3.116  0.1553 -0.8616 -0.1848
 8482TIP3    H146861   5.808   3.782   3.191 -2.5318 -1.8100  0.8444
 8482TIP3    H246862   5.733   3.760   3.062  2.0868 -0.1360 -2.4017
 8483TIP3   OH246863   5.614   3.143   1.515 -0.0234 -0.4018 -0.5162
 8483TIP3    H146864   5.666   3.112   1.588  1.1898  0.4150 -0.9871
 8483TIP3    H246865   5.614   3.070   1.453  0.3144 -0.5226 -0.3787
 8484TIP3   OH246866   1.921   2.099  14.049  0.1494  0.0353 -0.2998
 8484TIP3    H146867   1.960   2.016  14.076  0.5200 -0.1690 -1.4060
 8484TIP3    H246868   1.867   2.126  14.123  0.5866 -0.8363  0.3499
 8485TIP3   OH246869   2.267   4.768  17.259 -0.6921  0.3332  0.3808
 8485TIP3    H146870   2.217   4.703  17.308  2.0036 -0.5126  2.2160
 8485TIP3    H246871   2.287   4.836  17.322 -0.6142  1.2965 -0.6580
 8486TIP3   OH246872   3.914   0.913  14.230  0.3662 -0.3022 -0.8665
 8486TIP3    H146873   3.865   0.990  14.260 -2.0563 -1.1174 -2.4539
 8486TIP3    H246874   3.939   0.933  14.140  1.3437 -0.6874 -0.6996
 8487TIP3   OH246875   5.301   4.647   2.672 -0.3436 -0.4965 -0.4131
 8487TIP3    H146876   5.345   4.725   2.704 -2.0816  0.3496  0.0413
 8487TIP3    H246877   5.308   4.583   2.743 -0.5145 -0.0989 -0.0385
 8488TIP3   OH246878   1.342   6.558  14.844  0.1640 -0.3265  0.1616
 8488TIP3    H146879   1.349   6.464  14.824 -1.0369 -0.7343  1.4589
 8488TIP3    H246880   1.428   6.582  14.878  1.1953 -0.3940 -2.1901
 8489TIP3   OH246881   4.743   0.986   0.663 -0.0537  0.1498  0.5470
 8489TIP3    H146882   4.718   1.012   0.752 -0.5556  0.6088  0.2791
 8489TIP3    H246883   4.671   1.018   0.609  1.6091  2.4426 -0.4162
 8490TIP3   OH246884   5.729   5.669   4.286 -0.1721  0.0010 -0.2172
 8490TIP3    H146885   5.749   5.738   4.350 -0.6596  2.1002 -2.1886
 8490TIP3    H246886   5.815   5.638   4.257  0.0651  0.1061  0.3608
 8491TIP3   OH246887   0.076   4.643  13.005 -0.0277  0.2280 -0.2566
 8491TIP3    H146888   0.019   4.567  12.993 -0.3639  0.5820 -0.9816
 8491TIP3    H246889   0.035   4.693  13.076  1.3541 -1.3209  1.7273
 8492TIP3   OH246890   3.875   0.648  14.271  0.2306  0.0120 -0.5499
 8492TIP3    H146891   3.858   0.664  14.364 -2.1719 -1.1300 -0.6987
 8492TIP3    H246892   3.911   0.730  14.238 -0.0501  0.8501  1.1382
 8493TIP3   OH246893   0.520   2.239  15.337 -0.2125  0.4105 -0.1593
 8493TIP3    H146894   0.462   2.170  15.302  0.5615 -0.3538  0.0412
 8493TIP3    H246895   0.602   2.227  15.290  0.0820  0.9025  0.2251
 8494TIP3   OH246896   0.039   1.792   1.302 -0.3310 -0.0248 -0.1860
 8494TIP3    H146897   0.072   1.834   1.381 -1.0011  1.7015 -0.7830
 8494TIP3    H246898  -0.003   1.712   1.334 -0.0324  0.3163  1.1256
 8495TIP3   OH246899   3.901   6.096   3.514 -0.1427  0.7253  0.7102
 8495TIP3    H146900   3.809   6.102   3.541 -0.4505 -0.6993  0.1179
 8495TIP3    H246901   3.901   6.129   3.424 -0.2912 -0.2377  0.3436
 8496TIP3   OH246902   4.465   2.220   1.498  0.1581  0.1611 -0.0442
 8496TIP3    H146903   4.422   2.305   1.484 -1.4569 -0.2919  1.7220
 8496TIP3    H246904   4.529   2.237   1.567 -0.8629 -0.1944  1.0388
 8497TIP3   OH246905   0.542   4.254  11.632  0.0374 -0.0398  0.3376
 8497TIP3    H146906   0.575   4.250  11.722 -0.2624 -3.3230  0.4330
 8497TIP3    H246907   0.620   4.244  11.577  0.2462  2.1629  0.1427
 8498TIP3   OH246908   4.171   0.099   0.589  0.5927 -0.5681 -0.3519
 8498TIP3    H146909   4.212   0.028   0.540  1.9705 -1.3467  1.7821
 8498TIP3    H246910   4.236   0.123   0.655 -0.5547  1.4819  0.1149
 8499TIP3   OH246911   0.665   2.969   0.733  0.2969  0.0824 -0.2229
 8499TIP3    H146912   0.625   2.921   0.660 -0.7705  1.3203 -0.4839
 8499TIP3    H246913   0.623   3.055   0.731 -1.7549 -0.6126  3.3900
 8500TIP3   OH246914   1.120   0.226   1.101 -0.1456 -0.2828 -0.3562
 8500TIP3    H146915   1.076   0.142   1.092  0.6943 -0.8971  1.0081
 8500TIP3    H246916   1.202   0.206   1.146  1.3800  0.8727 -2.4613
 8501TIP3   OH246917   3.520   5.584   1.804  0.0974  0.1182 -0.5118
 8501TIP3    H146918   3.466   5.662   1.791 -1.4482 -0.3892  2.1017
 8501TIP3    H246919   3.471   5.513   1.762 -0.9406 -0.1930  1.1330
 8502TIP3   OH246920   1.903   3.832   4.385  0.4992  0.4929 -0.4955
 8502TIP3    H146921   1.992   3.815   4.353  1.5416  0.9124  1.9383
 8502TIP3    H246922   1.898   3.927   4.393 -0.2318  0.4801 -0.7379
 8503TIP3   OH246923   3.431   3.214  15.793  0.0832  0.4913 -0.0787
 8503TIP3    H146924   3.478   3.271  15.730  0.1359  0.8111  0.2465
 8503TIP3    H246925   3.354   3.185  15.745  1.1045 -0.8670 -0.9947
 8504TIP3   OH246926   4.541   6.077  16.642 -0.7281  1.1090 -0.1813
 8504TIP3    H146927   4.612   6.122  16.687  0.8666 -1.1021 -0.3176
 8504TIP3    H246928   4.485   6.045  16.712 -0.1375  0.6184  0.0739
 8505TIP3   OH246929   1.594   1.945  10.652 -0.1138 -0.2221  0.1563
 8505TIP3    H146930   1.573   1.867  10.704 -0.2239  0.5123  1.2428
 8505TIP3    H246931   1.509   1.985  10.635 -0.2563 -1.2912 -2.0126
 8506TIP3   OH246932   1.067   0.397   0.890  0.1626 -0.2022  0.0544
 8506TIP3    H146933   0.980   0.363   0.866 -0.1429  0.1807  0.5866
 8506TIP3    H246934   1.095   0.340   0.962  0.7283 -0.8518 -0.6672
 8507TIP3   OH246935   0.829   3.805  14.419 -0.0929  0.1825  0.4910
 8507TIP3    H146936   0.844   3.733  14.358  0.3660 -0.0194  0.8317
 8507TIP3    H246937   0.845   3.884  14.368 -0.9612  0.0639  0.0140
 8508TIP3   OH246938   1.191   4.898  11.181  0.0768 -0.6116 -0.0393
 8508TIP3    H146939   1.170   4.869  11.092  0.3456  0.8615 -0.6249
 8508TIP3    H246940   1.112   4.942  11.212 -0.1244 -1.3925  0.5967
 8509TIP3   OH246941   4.154   1.188  12.787  0.2026 -0.1054  0.0793
 8509TIP3    H146942   4.132   1.215  12.876  0.2057 -1.2492  0.4386
 8509TIP3    H246943   4.245   1.158  12.792  0.5791  0.8746 -0.5597
 8510TIP3   OH246944   6.416   4.984  15.373  0.3511 -0.4443  0.1342
 8510TIP3    H146945   6.431   4.905  15.320  1.2697 -0.0991 -0.1362
 8510TIP3    H246946   6.424   4.953  15.463 -0.5191 -0.8952  0.0719
 8511TIP3   OH246947   4.924   0.804  12.776  0.0208 -0.0229  0.4164
 8511TIP3    H146948   4.890   0.889  12.806  2.3280  1.0104  0.3302
 8511TIP3    H246949   4.896   0.742  12.843 -1.9532  0.7200  0.3443
 8512TIP3   OH246950   2.378   2.268  14.927 -0.2340  0.2725 -0.4576
 8512TIP3    H146951   2.437   2.287  14.854  0.2031  1.4893  0.2036
 8512TIP3    H246952   2.433   2.222  14.991  0.1503  1.8091  0.3559
 8513TIP3   OH246953   4.413   6.268   1.549 -0.1376  0.4431 -0.2726
 8513TIP3    H146954   4.451   6.236   1.467 -0.2579  1.4324 -0.7348
 8513TIP3    H246955   4.485   6.315   1.592 -0.3235  0.7353 -0.2721
 8514TIP3   OH246956   4.071   1.833  14.851 -0.4607  0.2269  0.1142
 8514TIP3    H146957   4.132   1.907  14.857 -1.6805  1.6379 -2.7942
 8514TIP3    H246958   4.124   1.761  14.817  0.2856  0.3936  0.8868
 8515TIP3   OH246959   5.762   1.231  15.188 -0.2052  0.2982  0.0238
 8515TIP3    H146960   5.838   1.286  15.205 -0.9846  1.6382 -0.6870
 8515TIP3    H246961   5.711   1.279  15.123 -0.7689 -1.4167 -0.8782
 8516TIP3   OH246962   3.029   2.568   3.031  0.1282  0.0185  0.0765
 8516TIP3    H146963   3.030   2.497   2.967 -0.0447  1.2108 -1.2994
 8516TIP3    H246964   2.936   2.581   3.051  0.2568 -1.4712  1.9287
 8517TIP3   OH246965   1.003   0.601  14.327  0.1625  0.7227  0.0053
 8517TIP3    H146966   1.019   0.512  14.294 -0.6918  0.6363 -0.2053
 8517TIP3    H246967   1.086   0.627  14.366  0.1486 -0.5679  0.9846
 8518TIP3   OH246968   5.813   6.034  12.807 -0.0894 -0.2275 -0.1252
 8518TIP3    H146969   5.863   6.080  12.740  0.0137 -0.6380 -0.3353
 8518TIP3    H246970   5.878   5.981  12.854 -0.0666  0.4668  0.6654
 8519TIP3   OH246971   5.210   5.282  13.209  0.0628  1.0567 -0.1819
 8519TIP3    H146972   5.168   5.265  13.293  1.0971 -0.3432  0.0894
 8519TIP3    H246973   5.304   5.282  13.229  0.3814 -0.3212 -1.4714
 8520TIP3   OH246974   2.023   0.547  11.808  0.0551 -0.6690 -0.7740
 8520TIP3    H146975   2.063   0.576  11.890  2.3677 -2.7271 -1.0766
 8520TIP3    H246976   1.930   0.568  11.818  0.2241 -1.0101  2.4279
 8521TIP3   OH246977   3.986   3.450  11.980  0.2543  0.2191 -0.3375
 8521TIP3    H146978   4.002   3.482  11.891  2.9386  0.8579  0.2829
 8521TIP3    H246979   4.054   3.384  11.994 -0.5572 -0.3565  1.0237
 8522TIP3   OH246980   6.180   4.793  12.848  0.9621 -0.2994  0.2211
 8522TIP3    H146981   6.141   4.714  12.884  0.8973 -1.1789 -1.6306
 8522TIP3    H246982   6.184   4.854  12.921 -0.6633 -1.3830  1.2826
 8523TIP3   OH246983   3.879   6.607  16.770 -0.0059 -0.0819  0.7476
 8523TIP3    H146984   3.884   6.693  16.728  0.3057 -0.6165 -0.3476
 8523TIP3    H246985   3.900   6.545  16.700  2.4048 -0.9149  2.0932
 8524TIP3   OH246986   5.185   1.675  13.041 -0.3971  0.6981 -0.3708
 8524TIP3    H146987   5.273   1.639  13.056 -0.3313  0.8920 -0.2869
 8524TIP3    H246988   5.201   1.759  12.998 -0.5601  0.4616 -0.9089
 8525TIP3   OH246989   6.100   4.146  14.115  0.0923  0.1736 -0.7652
 8525TIP3    H146990   6.038   4.219  14.110 -1.1040 -0.8220 -0.9590
 8525TIP3    H246991   6.135   4.151  14.204 -1.1912  0.0502 -0.2252
 8526TIP3   OH246992   5.023   2.976  11.518 -0.6986 -0.3219 -0.0003
 8526TIP3    H146993   4.942   2.985  11.567 -0.6487  0.3209 -0.0187
 8526TIP3    H246994   5.088   3.024  11.570 -0.0262 -1.9151  0.6775
 8527TIP3   OH246995   6.771   0.636   1.103 -0.2175 -0.1163 -0.5104
 8527TIP3    H146996   6.764   0.725   1.138 -0.0561  0.5209 -2.0359
 8527TIP3    H246997   6.688   0.595   1.128 -0.2562  0.4069  0.3025
 8528TIP3   OH246998   5.055   5.229  14.203  0.3229  0.0855 -0.4885
 8528TIP3    H146999   5.044   5.156  14.143 -1.5757  0.2975 -0.4459
 8528TIP3    H247000   5.066   5.306  14.147  1.3846 -0.0713 -0.5272
 8529TIP3   OH247001   1.890   6.290   5.258  0.2027  0.0637  0.3548
 8529TIP3    H147002   1.963   6.236   5.289  0.7272  0.5475 -0.0227
 8529TIP3    H247003   1.913   6.379   5.285 -0.3451  0.1913  0.4070
 8530TIP3   OH247004   2.133   3.470  13.344  0.3077  0.0472 -0.2078
 8530TIP3    H147005   2.043   3.459  13.374  0.0263 -0.5306 -1.2124
 8530TIP3    H247006   2.160   3.555  13.380 -0.8485  0.5114 -0.3928
 8531TIP3   OH247007   5.407   2.636  12.034  0.3421  0.2783  0.2162
 8531TIP3    H147008   5.477   2.688  12.073 -0.8900  0.6247  2.0913
 8531TIP3    H247009   5.427   2.546  12.059  1.3777  0.0440 -1.3147
 8532TIP3   OH247010   4.743   1.814  13.953  0.5306  0.7945  0.6054
 8532TIP3    H147011   4.680   1.821  13.882 -0.1413 -0.9672  0.9984
 8532TIP3    H247012   4.818   1.768  13.915  0.3639  0.2679  0.9108
 8533TIP3   OH247013   0.834   1.865  16.031 -0.5586 -0.5182 -1.2439
 8533TIP3    H147014   0.896   1.820  15.974  0.0968  0.0404 -0.9856
 8533TIP3    H247015   0.817   1.948  15.986  0.0371 -0.0340 -0.5874
 8534TIP3   OH247016   6.517   1.191  12.152 -0.6260  0.1496 -0.4628
 8534TIP3    H147017   6.448   1.254  12.175 -1.6931 -0.9944 -0.4232
 8534TIP3    H247018   6.590   1.213  12.210 -1.4911  0.4670  0.5376
 8535TIP3   OH247019   6.263   5.073  14.667 -0.1133 -0.8170 -0.2012
 8535TIP3    H147020   6.325   5.027  14.722 -1.8280  0.0557  2.6712
 8535TIP3    H247021   6.233   5.147  14.720 -1.2026  0.6824 -2.7048
 8536TIP3   OH247022   0.910   6.414  15.795 -0.0880  0.2104  0.4842
 8536TIP3    H147023   0.849   6.481  15.825 -0.1162  0.4287 -0.0493
 8536TIP3    H247024   0.874   6.332  15.827 -0.1608  0.4285  0.9688
 8537TIP3   OH247025   6.525   1.001   3.157 -0.4268  0.0575  0.4745
 8537TIP3    H147026   6.585   1.057   3.107  0.8892 -0.6717  1.1818
 8537TIP3    H247027   6.505   0.929   3.097  0.1580 -0.1753  0.5501
 8538TIP3   OH247028   1.305   6.465   3.501  0.2445 -0.2402  0.6431
 8538TIP3    H147029   1.357   6.467   3.581  0.3162 -3.0580  0.7742
 8538TIP3    H247030   1.301   6.556   3.472  1.5759  0.6305  2.9581
 8539TIP3   OH247031   3.891   6.008   2.168  0.2988  0.7287  0.2098
 8539TIP3    H147032   3.852   6.062   2.099  2.4252  1.2762 -0.6189
 8539TIP3    H247033   3.884   5.919   2.135 -0.1168  0.8217  0.0323
 8540TIP3   OH247034   0.615   6.513   4.437 -0.0980  0.2385  0.2337
 8540TIP3    H147035   0.603   6.560   4.355  0.9530  1.5257  0.7927
 8540TIP3    H247036   0.529   6.477   4.456 -0.8382  1.5731 -0.4330
 8541TIP3   OH247037   3.785   3.637  17.132  0.4809  0.3821 -0.1093
 8541TIP3    H147038   3.723   3.705  17.157 -0.7103 -0.7025 -0.0230
 8541TIP3    H247039   3.870   3.670  17.162 -0.4540  0.5070  2.6945
 8542TIP3   OH247040   5.487   5.784   1.944  0.1602 -0.4556 -0.2454
 8542TIP3    H147041   5.558   5.732   1.981 -0.1562 -0.4704  0.3469
 8542TIP3    H247042   5.415   5.774   2.006  0.9334  2.8931  1.4260
 8543TIP3   OH247043   3.627   6.490   3.922  0.0099 -0.0961 -0.1147
 8543TIP3    H147044   3.605   6.470   3.831  0.0698  0.8410 -0.3517
 8543TIP3    H247045   3.564   6.441   3.974 -0.8838  0.4098 -0.6988
 8544TIP3   OH247046   6.305   0.541  15.454 -0.1972 -0.2377 -0.1649
 8544TIP3    H147047   6.255   0.527  15.534  1.9742  2.1877  1.7722
 8544TIP3    H247048   6.325   0.453  15.422 -0.8116 -1.2793  2.1424
 8545TIP3   OH247049   5.488   3.397   3.437  0.2727  0.1205  0.3002
 8545TIP3    H147050   5.452   3.322   3.484  0.1887  0.0481  0.1237
 8545TIP3    H247051   5.414   3.429   3.385  0.1068  0.7620  0.9125
 8546TIP3   OH247052   2.150   0.023   2.725 -0.3373 -0.4535  0.1892
 8546TIP3    H147053   2.145   0.053   2.634 -1.9527 -0.6036  0.2003
 8546TIP3    H247054   2.244   0.014   2.742 -0.0290 -2.1516 -2.0145
 8547TIP3   OH247055   1.197   0.619  14.516  0.5717 -0.5139 -0.2686
 8547TIP3    H147056   1.266   0.607  14.451  0.0460 -0.5464 -0.8265
 8547TIP3    H247057   1.244   0.628  14.599  1.2150 -1.1549 -0.5575
 8548TIP3   OH247058   2.472   6.639  13.699 -0.0934 -0.5706  0.1993
 8548TIP3    H147059   2.487   6.620  13.606  0.5161  0.0638  0.1617
 8548TIP3    H247060   2.399   6.701  13.699 -1.8072 -2.4945  0.2999
 8549TIP3   OH247061   6.675   0.917  16.007  0.8875  0.2551 -0.5637
 8549TIP3    H147062   6.635   0.892  15.923  1.0105 -0.5893 -0.3784
 8549TIP3    H247063   6.759   0.871  16.008  0.4909 -0.4740  0.4154
 8550TIP3   OH247064   4.539   1.737  13.774 -0.1457 -0.1908 -0.4636
 8550TIP3    H147065   4.548   1.686  13.694 -2.0448 -1.7964  0.2634
 8550TIP3    H247066   4.484   1.683  13.831 -0.4956  1.7624  1.1727
 8551TIP3   OH247067   0.160   3.460   5.548  0.1102  0.3357  0.4798
 8551TIP3    H147068   0.172   3.366   5.532 -0.9518  0.0022  1.4249
 8551TIP3    H247069   0.067   3.475   5.530  0.3337  1.2790  0.0637
 8552TIP3   OH247070   6.347   0.604   2.224  0.0532  0.3162  0.5463
 8552TIP3    H147071   6.443   0.603   2.224  0.0990  0.4349 -1.4833
 8552TIP3    H247072   6.323   0.515   2.197 -0.3981  0.4269  0.5865
 8553TIP3   OH247073   1.427   4.819  15.088 -0.5727  0.6949 -0.2350
 8553TIP3    H147074   1.517   4.825  15.058 -0.4268 -0.4930 -0.0714
 8553TIP3    H247075   1.430   4.844  15.180 -0.5012  1.1376 -0.3537
 8554TIP3   OH247076   1.842   2.784  14.019 -0.1668 -0.1134 -0.0812
 8554TIP3    H147077   1.856   2.873  13.985  0.1641 -0.3512 -0.5748
 8554TIP3    H247078   1.908   2.731  13.976  0.7639 -0.3077  1.5025
 8555TIP3   OH247079   1.480   3.896   3.881  0.5030 -0.0547 -0.2313
 8555TIP3    H147080   1.569   3.886   3.847 -0.1574 -0.0284 -2.1093
 8555TIP3    H247081   1.460   3.812   3.921  0.8620 -0.5847 -1.1344
 8556TIP3   OH247082   5.190   4.412   4.178 -0.4324  0.2493  0.0822
 8556TIP3    H147083   5.240   4.363   4.243  0.8838 -0.3733 -1.3454
 8556TIP3    H247084   5.173   4.349   4.108 -2.1364  0.8056 -0.0420
 8557TIP3   OH247085   1.163   5.373  16.318 -0.5244 -0.9620  0.0796
 8557TIP3    H147086   1.142   5.466  16.332 -0.5608 -0.9660  0.0520
 8557TIP3    H247087   1.171   5.363  16.224 -1.3622 -1.1636  0.0171
 8558TIP3   OH247088   2.132   1.128   6.415 -0.1014 -0.4904 -0.6567
 8558TIP3    H147089   2.075   1.187   6.366  1.2939  0.5415 -1.1020
 8558TIP3    H247090   2.116   1.151   6.507  0.1336  0.3266 -0.8105
 8559TIP3   OH247091   5.201   6.547  14.150 -0.1680  0.1144  0.0790
 8559TIP3    H147092   5.180   6.456  14.172  2.9437 -0.7673 -0.0441
 8559TIP3    H247093   5.260   6.540  14.074 -0.6848  2.3288 -0.6023
 8560TIP3   OH247094   3.531   5.116  11.444 -0.1373  0.3234  0.1477
 8560TIP3    H147095   3.616   5.160  11.449 -0.8415  1.6534  0.7310
 8560TIP3    H247096   3.517   5.100  11.351  1.4650 -1.4062  0.1277
 8561TIP3   OH247097   6.760   6.511  14.561 -0.1503  0.0921  0.2055
 8561TIP3    H147098   6.678   6.512  14.610 -0.3054 -0.3923 -0.0410
 8561TIP3    H247099   6.757   6.591  14.508  0.0089  0.6051  0.9633
 8562TIP3   OH247100   3.518   5.978  16.295  0.1735 -0.3067 -0.2930
 8562TIP3    H147101   3.526   6.069  16.323  1.2810 -0.3697 -0.3410
 8562TIP3    H247102   3.533   5.981  16.201 -0.7230 -0.4309 -0.4419
 8563TIP3   OH247103   5.581   6.040  11.194 -0.0500 -0.0659  0.1032
 8563TIP3    H147104   5.554   5.981  11.124  1.4365  0.4268 -0.9302
 8563TIP3    H247105   5.672   6.015  11.212 -0.2297  0.1969  1.4871
 8564TIP3   OH247106   1.856   2.665   3.229 -0.1145  0.4669 -0.3472
 8564TIP3    H147107   1.862   2.729   3.159  0.4674  0.7142 -0.0798
 8564TIP3    H247108   1.830   2.584   3.185  2.4032  0.0472 -1.2430
 8565TIP3   OH247109   4.056   0.415   2.804 -0.0844  0.0267  0.3832
 8565TIP3    H147110   3.972   0.454   2.830  0.3041 -0.1327  1.9742
 8565TIP3    H247111   4.073   0.349   2.871  0.7774 -0.7138 -0.5519
 8566TIP3   OH247112   2.668   1.315  15.415  0.2279 -0.2816  0.1973
 8566TIP3    H147113   2.709   1.286  15.334  1.9424 -2.0980  1.6092
 8566TIP3    H247114   2.733   1.373  15.455 -0.1070 -0.2942  0.7711
 8567TIP3   OH247115   6.412   2.606  16.118  0.0550 -0.2895  0.4209
 8567TIP3    H147116   6.335   2.567  16.078  0.4223 -1.5118  0.8722
 8567TIP3    H247117   6.432   2.550  16.193  0.1374  1.2247  1.5854
 8568TIP3   OH247118   0.764   5.371   2.511 -0.0676 -0.4520 -0.0334
 8568TIP3    H147119   0.763   5.351   2.605  1.7016 -1.4657 -0.1723
 8568TIP3    H247120   0.789   5.463   2.507  0.4549 -0.5615  0.4995
 8569TIP3   OH247121   3.149   6.580  16.182  0.3905 -0.6367 -0.6647
 8569TIP3    H147122   3.228   6.625  16.154 -0.3939  1.2947  0.0950
 8569TIP3    H247123   3.094   6.577  16.103  1.0228 -1.6249 -1.0877
 8570TIP3   OH247124   2.383   2.238  16.404  0.4397  0.1200 -0.0255
 8570TIP3    H147125   2.402   2.318  16.453 -1.0929  1.1047 -0.9235
 8570TIP3    H247126   2.436   2.246  16.324  0.0796  0.3924 -0.2414
 8571TIP3   OH247127   3.170   0.645   2.606  0.5413  0.3767  0.1934
 8571TIP3    H147128   3.264   0.631   2.615  0.9538  1.7346 -1.3322
 8571TIP3    H247129   3.134   0.631   2.693  1.6157 -3.5660  0.2090
 8572TIP3   OH247130   3.548   6.292   2.943 -0.2139 -0.0541 -0.0348
 8572TIP3    H147131   3.578   6.234   2.873  3.1963  1.1030  0.3317
 8572TIP3    H247132   3.478   6.344   2.902  1.0729 -0.0084 -2.3382
 8573TIP3   OH247133   0.069   0.693   3.233 -0.5102 -0.2155 -0.2499
 8573TIP3    H147134  -0.022   0.666   3.240  0.3108 -3.0212  1.0065
 8573TIP3    H247135   0.105   0.641   3.162  0.5830 -0.6913  0.6210
 8574TIP3   OH247136   0.279   1.823  13.590  0.4596 -0.1067 -0.7275
 8574TIP3    H147137   0.346   1.756  13.601  1.5153  1.1266  0.6965
 8574TIP3    H247138   0.201   1.774  13.563  1.2530 -1.8847  0.0336
 8575TIP3   OH247139   1.764   5.537  14.611 -0.3551 -0.5303  0.4168
 8575TIP3    H147140   1.724   5.591  14.543  0.1583 -1.2790 -0.5006
 8575TIP3    H247141   1.735   5.576  14.693 -1.2738  0.1783 -0.2321
 8576TIP3   OH247142   5.807   0.997  12.800 -0.4308  0.3341  0.0475
 8576TIP3    H147143   5.818   0.921  12.743 -1.1043  0.5246 -0.3491
 8576TIP3    H247144   5.765   0.963  12.879  0.8360  0.0067  0.5969
 8577TIP3   OH247145   4.295   2.291   6.516 -0.0197 -0.0239 -0.2076
 8577TIP3    H147146   4.241   2.340   6.579 -0.9786 -1.1381 -0.1320
 8577TIP3    H247147   4.316   2.355   6.448 -1.9541  0.3170 -0.5526
 8578TIP3   OH247148   3.878   1.720   5.172  0.0221 -0.2682 -0.6809
 8578TIP3    H147149   3.851   1.629   5.179 -0.6963 -0.0095  0.0238
 8578TIP3    H247150   3.855   1.759   5.256  1.5102  0.2675 -0.4919
 8579TIP3   OH247151   1.070   3.042  11.771  0.4793  0.0618 -0.6887
 8579TIP3    H147152   1.131   2.976  11.736 -0.7992 -1.5751  0.0005
 8579TIP3    H247153   1.126   3.106  11.814  1.7917 -0.7053 -1.2022
 8580TIP3   OH247154   1.475   0.405  14.548 -0.7669  0.7929 -0.6980
 8580TIP3    H147155   1.506   0.495  14.564  1.4273  0.0972 -0.6534
 8580TIP3    H247156   1.492   0.358  14.629 -1.1138  0.1382 -0.9946
 8581TIP3   OH247157   2.846   6.766   4.835  0.3146  0.5229 -0.1099
 8581TIP3    H147158   2.861   6.849   4.790  1.8183 -0.1563 -0.9477
 8581TIP3    H247159   2.805   6.790   4.917 -0.9564  1.9360 -1.1160
 8582TIP3   OH247160   3.129   1.565   0.751  0.4337 -0.0941 -0.2706
 8582TIP3    H147161   3.164   1.627   0.687  0.0197 -0.4325 -0.8335
 8582TIP3    H247162   3.191   1.493   0.751 -0.3959 -0.8649 -1.5393
 8583TIP3   OH247163   1.715   6.450  15.380 -0.2564 -0.5533 -0.5490
 8583TIP3    H147164   1.801   6.461  15.421  0.6333 -0.6423 -2.2992
 8583TIP3    H247165   1.730   6.470  15.287 -2.3951  0.6184 -0.7019
 8584TIP3   OH247166   3.973   1.123  16.377 -0.0872  0.2718 -1.0310
 8584TIP3    H147167   3.934   1.193  16.325  1.6459  1.5517 -0.6987
 8584TIP3    H247168   3.975   1.158  16.466  0.5938 -0.2920 -0.8191
 8585TIP3   OH247169   5.813   3.772  13.850 -0.1205  0.2351  0.0692
 8585TIP3    H147170   5.786   3.712  13.920  1.2602  0.5243  0.8818
 8585TIP3    H247171   5.863   3.716  13.790 -0.5969  0.1565 -0.2548
 8586TIP3   OH247172   4.533   1.369   4.372  0.9373  0.3935 -0.1609
 8586TIP3    H147173   4.453   1.382   4.424  0.4084 -0.8006 -0.6266
 8586TIP3    H247174   4.541   1.449   4.321  0.2755  0.7125  0.2181
 8587TIP3   OH247175   0.235   4.513  10.864  0.0387 -0.8283 -0.3181
 8587TIP3    H147176   0.215   4.450  10.933 -0.2310  0.3295  0.7093
 8587TIP3    H247177   0.258   4.460  10.788 -0.3080 -2.1470  0.4702
 8588TIP3   OH247178   4.525   4.219  16.084  0.3557  0.1395 -0.1802
 8588TIP3    H147179   4.524   4.314  16.069 -0.0352 -0.2405 -3.1730
 8588TIP3    H247180   4.614   4.193  16.060  0.1624 -0.3524 -0.3744
 8589TIP3   OH247181   0.823   4.064   1.584 -0.6815 -0.2784 -0.1812
 8589TIP3    H147182   0.830   3.970   1.564 -0.8153 -0.1339 -0.9272
 8589TIP3    H247183   0.745   4.070   1.639 -0.9529 -0.5466 -0.5294
 8590TIP3   OH247184   4.473   0.683  17.115  0.1168 -0.4121 -0.2139
 8590TIP3    H147185   4.432   0.629  17.183 -0.5511  3.0934  2.4766
 8590TIP3    H247186   4.560   0.704  17.151  0.2669  0.4694 -1.0479
 8591TIP3   OH247187   2.734   4.223  15.836 -0.4301 -0.0424  0.5669
 8591TIP3    H147188   2.781   4.140  15.842 -1.0241 -0.4245  0.1059
 8591TIP3    H247189   2.714   4.246  15.926  0.8561  0.2616  0.7901
 8592TIP3   OH247190   6.206   4.464  11.992  0.0509  0.2115  0.2763
 8592TIP3    H147191   6.277   4.528  11.991 -0.3464  0.6863  1.2366
 8592TIP3    H247192   6.216   4.415  11.910  1.1318  0.6479  0.1395
 8593TIP3   OH247193   1.351   2.609  15.954  0.0861 -0.0028 -0.3204
 8593TIP3    H147194   1.418   2.599  15.886  0.1744 -2.3425  0.0457
 8593TIP3    H247195   1.318   2.521  15.970 -0.5870  0.5836  2.0298
 8594TIP3   OH247196   5.558   6.055   4.767  0.2361 -0.0263  0.1779
 8594TIP3    H147197   5.483   6.004   4.798 -0.8300  1.3582 -0.0360
 8594TIP3    H247198   5.618   6.057   4.842  0.7888 -2.3715 -0.1057
 8595TIP3   OH247199   1.037   6.394   1.292 -0.0026 -0.5260  0.4090
 8595TIP3    H147200   1.021   6.462   1.357  0.9859  0.3136 -0.1923
 8595TIP3    H247201   1.133   6.392   1.281 -0.0728 -1.3986 -0.2220
 8596TIP3   OH247202   0.013   0.099   4.149  0.4140  0.0203  0.0995
 8596TIP3    H147203  -0.048   0.114   4.222  0.4663 -0.4527  0.2474
 8596TIP3    H247204   0.098   0.129   4.182  0.3110  0.4393 -0.0133
 8597TIP3   OH247205   1.223   6.100  11.431  0.1564  0.5360 -0.3915
 8597TIP3    H147206   1.152   6.039  11.408  2.3184 -1.4955 -2.1554
 8597TIP3    H247207   1.193   6.185  11.399 -0.8362 -0.5631 -2.5991
 8598TIP3   OH247208   3.561   0.106   2.102 -0.1504  0.2580 -0.0105
 8598TIP3    H147209   3.500   0.165   2.146 -0.5308 -0.2998  0.2318
 8598TIP3    H247210   3.581   0.039   2.168 -0.1837 -0.2058 -0.4626
 8599TIP3   OH247211   5.938   4.857   5.602  0.6094  0.3277 -0.0370
 8599TIP3    H147212   5.958   4.860   5.508 -0.4584  1.2954 -0.2508
 8599TIP3    H247213   5.971   4.771   5.630  0.0786 -0.4056 -1.4967
 8600TIP3   OH247214   5.856   3.364   4.860 -0.0624  0.8562 -0.4064
 8600TIP3    H147215   5.776   3.337   4.905  0.1469 -0.6023 -0.8414
 8600TIP3    H247216   5.919   3.380   4.930 -0.0207 -0.4656 -0.1090
 8601TIP3   OH247217   1.090   0.451   5.833 -0.1209  0.2271 -0.4713
 8601TIP3    H147218   1.126   0.456   5.921 -0.9548 -0.5681 -0.0702
 8601TIP3    H247219   1.132   0.374   5.794 -1.3465 -0.7087  0.0015
 8602TIP3   OH247220   1.349   2.398  13.241 -0.3201  0.1961  0.2126
 8602TIP3    H147221   1.344   2.486  13.279 -0.0051  0.6374 -0.7544
 8602TIP3    H247222   1.365   2.412  13.148 -1.0747 -0.8809 -0.1032
 8603TIP3   OH247223   6.760   6.631  15.093 -0.1444 -0.2938  0.4203
 8603TIP3    H147224   6.836   6.626  15.034 -0.9405 -0.7784 -0.6096
 8603TIP3    H247225   6.734   6.540  15.106 -0.3221 -0.1532  1.0865
 8604TIP3   OH247226   2.465   1.160   5.986  0.0730 -0.2545 -0.4989
 8604TIP3    H147227   2.404   1.163   6.060  0.5698  2.2873 -0.1302
 8604TIP3    H247228   2.414   1.119   5.916 -0.6007 -2.1944  1.0071
 8605TIP3   OH247229   5.752   4.722  15.256  0.6530 -0.0889 -0.8911
 8605TIP3    H147230   5.688   4.768  15.310  0.3372 -1.6105  0.0824
 8605TIP3    H247231   5.834   4.770  15.272  0.6701 -0.7454  1.3474
 8606TIP3   OH247232   6.093   2.394   1.585  0.0043  0.2312  0.3969
 8606TIP3    H147233   6.072   2.460   1.519  1.6557 -0.1904 -0.6205
 8606TIP3    H247234   6.188   2.399   1.595 -0.0626 -0.6253  1.7924
 8607TIP3   OH247235   1.032   4.707   4.039  0.7321  0.1444 -0.4284
 8607TIP3    H147236   1.123   4.688   4.062 -0.3983 -2.2364  2.8162
 8607TIP3    H247237   1.003   4.768   4.107 -0.1772  0.7721 -1.3476
 8608TIP3   OH247238   6.332   6.779   3.726  0.3769 -0.4025  0.2919
 8608TIP3    H147239   6.250   6.802   3.769  1.8497  2.5519  1.8310
 8608TIP3    H247240   6.382   6.860   3.724  1.9419 -1.1979 -3.8446
 8609TIP3   OH247241   0.477   2.625   3.575  0.8129 -0.0333  0.3900
 8609TIP3    H147242   0.493   2.618   3.481  1.0135 -1.3415  0.4977
 8609TIP3    H247243   0.563   2.638   3.614  0.5838  1.9957  0.3081
 8610TIP3   OH247244   6.134   6.371   1.331 -0.8770 -0.3660 -0.3745
 8610TIP3    H147245   6.061   6.341   1.385 -1.2888  0.0260 -0.7027
 8610TIP3    H247246   6.170   6.292   1.292 -1.3688 -0.5180 -0.5151
 8611TIP3   OH247247   3.107   0.189   4.118  0.0838 -0.7647  0.4996
 8611TIP3    H147248   3.123   0.261   4.179 -3.3752 -0.2075  0.9609
 8611TIP3    H247249   3.133   0.224   4.033 -0.6239  0.7401  0.8612
 8612TIP3   OH247250   0.354   0.761  15.364  0.8867  0.3628 -0.1997
 8612TIP3    H147251   0.381   0.770  15.456  1.3521  0.5807 -0.3516
 8612TIP3    H247252   0.401   0.832  15.319  2.4120 -1.0640 -0.9666
 8613TIP3   OH247253   4.017   4.318   5.562 -0.8209 -0.1826 -0.0310
 8613TIP3    H147254   3.981   4.279   5.642 -2.0191  1.6806  0.3870
 8613TIP3    H247255   4.112   4.315   5.575 -0.9852 -0.0982  1.3735
 8614TIP3   OH247256   1.448   4.439  14.093 -0.2136 -0.1042 -0.4701
 8614TIP3    H147257   1.494   4.377  14.150 -2.4096 -0.0635  1.5299
 8614TIP3    H247258   1.467   4.525  14.131 -0.4948  0.0627 -0.7068
 8615TIP3   OH247259   2.644   2.162  13.206 -0.0372  0.0570  0.0634
 8615TIP3    H147260   2.572   2.106  13.178 -0.6061  1.3559 -1.2114
 8615TIP3    H247261   2.707   2.102  13.245 -1.8765 -1.0975  1.4253
 8616TIP3   OH247262   2.520   0.354   0.518 -0.3339 -0.4433 -0.6448
 8616TIP3    H147263   2.530   0.284   0.583 -1.7303 -1.3129 -1.3357
 8616TIP3    H247264   2.434   0.391   0.535  0.5236  1.4027 -0.0564
 8617TIP3   OH247265   3.382   0.716  17.008 -0.2009 -0.1564  0.6918
 8617TIP3    H147266   3.362   0.623  16.995  2.3219 -1.0056  2.1379
 8617TIP3    H247267   3.424   0.743  16.927 -1.2464 -0.1430  0.1344
 8618TIP3   OH247268   6.529   3.981   5.056 -0.5724  0.0866 -0.3294
 8618TIP3    H147269   6.604   3.924   5.042  0.5257  0.1975  3.7198
 8618TIP3    H247270   6.458   3.922   5.081 -0.9629  0.2106 -1.0961
 8619TIP3   OH247271   1.219   4.161  14.307  0.0508 -0.4074  0.4242
 8619TIP3    H147272   1.226   4.256  14.303  0.7490 -0.2607  2.9035
 8619TIP3    H247273   1.297   4.134  14.356 -1.3014 -1.9791  1.8472
 8620TIP3   OH247274   0.320   5.350  16.281 -0.9287  0.0254 -0.0113
 8620TIP3    H147275   0.344   5.258  16.285  1.0053  0.5342  2.1657
 8620TIP3    H247276   0.272   5.359  16.199  1.1364 -2.3979 -1.6237
 8621TIP3   OH247277   4.323   6.217  15.625 -0.1055 -0.4294 -0.4089
 8621TIP3    H147278   4.333   6.287  15.560 -1.7300 -1.1034 -1.4507
 8621TIP3    H247279   4.369   6.143  15.586  3.6769  0.5234  1.7271
 8622TIP3   OH247280   0.887   0.111   5.548 -0.1598  1.0698 -0.5908
 8622TIP3    H147281   0.950   0.182   5.536  0.6967  0.8081  1.9223
 8622TIP3    H247282   0.935   0.044   5.597 -0.9264 -1.3296 -2.8408
 8623TIP3   OH247283   1.690   6.558   3.528 -0.6482 -0.5618 -0.4901
 8623TIP3    H147284   1.781   6.530   3.534 -0.2618  0.7284  0.0908
 8623TIP3    H247285   1.646   6.487   3.482  0.3024 -2.0098  0.7340
 8624TIP3   OH247286   3.248   2.192   2.979  0.3339  0.2784  0.5221
 8624TIP3    H147287   3.187   2.123   3.007 -0.0335 -0.6753 -2.2721
 8624TIP3    H247288   3.297   2.214   3.058 -1.1849 -1.4650  2.0669
 8625TIP3   OH247289   3.711   3.770   2.367 -0.3996  0.9049 -0.4413
 8625TIP3    H147290   3.779   3.726   2.315 -0.5162 -0.0499  0.1869
 8625TIP3    H247291   3.711   3.860   2.335  2.1229  1.3122  0.4673
 8626TIP3   OH247292   3.760   4.027  11.460 -0.4726 -0.3395 -0.1896
 8626TIP3    H147293   3.786   4.110  11.419 -2.1228 -0.3370 -1.3487
 8626TIP3    H247294   3.675   4.046  11.501  0.7621 -0.5578  2.7096
 8627TIP3   OH247295   2.544   5.390  16.312 -0.5419 -0.3761 -0.5828
 8627TIP3    H147296   2.584   5.477  16.303 -0.0411 -0.5265  0.1031
 8627TIP3    H247297   2.466   5.394  16.258  0.0855  0.1290 -1.4830
 8628TIP3   OH247298   0.856   6.444   0.192 -0.3511  0.1194  0.4914
 8628TIP3    H147299   0.914   6.385   0.239 -1.4568 -3.1155 -1.8571
 8628TIP3    H247300   0.913   6.492   0.133  0.3754  0.1231  1.1806
 8629TIP3   OH247301   3.975   2.930  11.414 -0.4326 -0.2492 -0.0724
 8629TIP3    H147302   4.054   2.979  11.389 -1.8398  1.5151 -1.2768
 8629TIP3    H247303   3.987   2.912  11.508  1.0307  0.6541 -0.0537
 8630TIP3   OH247304   0.245   5.109   0.511  0.0260  0.2451  0.4032
 8630TIP3    H147305   0.150   5.104   0.525 -0.2676  0.9894 -1.1422
 8630TIP3    H247306   0.254   5.129   0.418  1.7295 -0.3768  0.4116
 8631TIP3   OH247307   1.416   2.788  13.650 -0.0325  0.1346 -0.8493
 8631TIP3    H147308   1.508   2.765  13.639  0.1083  0.1687  0.1483
 8631TIP3    H247309   1.412   2.881  13.626  0.5553  0.6114  0.7403
 8632TIP3   OH247310   4.979   6.542   0.415  0.6656 -0.3991 -0.3205
 8632TIP3    H147311   4.998   6.450   0.430 -0.1274 -0.5606 -0.2741
 8632TIP3    H247312   4.884   6.549   0.423  0.8104  0.6279  0.7905
 8633TIP3   OH247313   2.858   0.456  13.511 -0.1557 -0.1423 -0.2457
 8633TIP3    H147314   2.929   0.453  13.575 -0.2010 -0.5020 -0.2075
 8633TIP3    H247315   2.882   0.390  13.446 -0.8951 -0.9041  0.2333
 8634TIP3   OH247316   0.647   6.174   4.444 -0.2905 -0.1681 -0.4750
 8634TIP3    H147317   0.625   6.118   4.370  1.9336 -1.3559 -0.3284
 8634TIP3    H247318   0.597   6.254   4.430  0.3150 -0.1918 -3.4641
 8635TIP3   OH247319   6.342   4.691  11.952  0.3102  0.2334 -0.0068
 8635TIP3    H147320   6.408   4.760  11.946 -0.0951  0.7094  0.8144
 8635TIP3    H247321   6.260   4.739  11.964 -0.4493 -0.2696 -2.6157
 8636TIP3   OH247322   3.727   3.318  15.438 -0.5961  0.5823  0.3050
 8636TIP3    H147323   3.747   3.225  15.431 -0.8843  0.5801 -0.6998
 8636TIP3    H247324   3.810   3.362  15.419 -0.4634  0.5314  0.7650
 8637TIP3   OH247325   3.047   4.468  13.204 -0.3495 -0.0023  0.0147
 8637TIP3    H147326   3.085   4.551  13.233 -0.8997  0.1897  0.2070
 8637TIP3    H247327   2.991   4.441  13.276  0.3852 -0.9208  0.2513
 8638TIP3   OH247328   0.234   4.342  12.366  0.5057  0.2162 -0.8378
 8638TIP3    H147329   0.284   4.366  12.288  0.2136 -1.0621 -1.4706
 8638TIP3    H247330   0.149   4.386  12.354  0.5101  0.1383 -1.1906
 8639TIP3   OH247331   6.704   3.693   2.542  0.1883  0.3481 -0.1347
 8639TIP3    H147332   6.665   3.619   2.494 -2.1548  1.2295  0.3177
 8639TIP3    H247333   6.736   3.654   2.623  0.3359 -0.4153 -0.5440
 8640TIP3   OH247334   2.348   3.365   4.618 -0.4342  0.0883 -0.2513
 8640TIP3    H147335   2.299   3.326   4.545 -0.2144  0.2003 -0.4575
 8640TIP3    H247336   2.307   3.328   4.696 -0.0524 -0.7754 -0.4450
 8641TIP3   OH247337   5.566   6.478  11.518  0.2625  0.4953  0.2951
 8641TIP3    H147338   5.525   6.535  11.454  1.8296  1.2234 -0.1274
 8641TIP3    H247339   5.623   6.420  11.466  1.2404  0.8198  0.9631
 8642TIP3   OH247340   2.815   1.308  11.984 -0.0137  0.5973  0.3827
 8642TIP3    H147341   2.841   1.396  11.958 -1.8279  1.8178  2.3577
 8642TIP3    H247342   2.742   1.286  11.926  1.9990 -0.7424 -1.7959
 8643TIP3   OH247343   1.606   3.511  11.092  0.2240 -0.3303  0.1997
 8643TIP3    H147344   1.687   3.542  11.131 -0.5027  2.2641 -0.1027
 8643TIP3    H247345   1.546   3.585  11.101 -1.4914 -1.4381 -1.3609
 8644TIP3   OH247346   3.441   5.609   2.902  0.4023  0.4804 -0.3791
 8644TIP3    H147347   3.396   5.612   2.986  0.6313  0.9360 -0.2739
 8644TIP3    H247348   3.527   5.573   2.922  0.2278 -0.0348 -0.5244
 8645TIP3   OH247349   6.536   6.553   1.834  0.0327 -0.1472  0.1626
 8645TIP3    H147350   6.442   6.536   1.836  0.1539 -1.0614 -1.0888
 8645TIP3    H247351   6.548   6.609   1.757  0.8043 -2.2190 -1.3084
 8646TIP3   OH247352   4.642   3.654   3.383 -0.4037 -0.4629 -0.1731
 8646TIP3    H147353   4.700   3.724   3.352  0.1903 -2.0268 -2.8615
 8646TIP3    H247354   4.701   3.580   3.397 -1.1418 -0.7199  1.8432
 8647TIP3   OH247355   5.062   3.428  17.029 -0.7140  0.3694  0.7610
 8647TIP3    H147356   5.064   3.348  16.976 -1.1095  0.3352  0.7926
 8647TIP3    H247357   4.999   3.409  17.098  0.8132 -0.0903  2.0761
 8648TIP3   OH247358   4.206   4.738   0.970  0.7487 -0.2592  0.4065
 8648TIP3    H147359   4.179   4.799   1.038  0.1334  0.8081 -0.7562
 8648TIP3    H247360   4.270   4.787   0.918  1.3589 -1.1209  0.3255
 8649TIP3   OH247361   0.475   4.808  16.521  0.1225  0.6009  0.1188
 8649TIP3    H147362   0.450   4.879  16.580  0.4141  0.8299 -0.0276
 8649TIP3    H247363   0.398   4.794  16.466 -0.3451  0.0174  0.9004
 8650TIP3   OH247364   1.823   1.525  14.136 -0.6860  0.7764  0.3729
 8650TIP3    H147365   1.739   1.542  14.179 -0.1863  0.4739  1.4947
 8650TIP3    H247366   1.818   1.432  14.111 -0.8229  0.8540  0.1013
 8651TIP3   OH247367   4.403   4.785   3.509 -0.6864 -0.9020  0.1820
 8651TIP3    H147368   4.417   4.712   3.569  0.0662 -0.1876  0.9020
 8651TIP3    H247369   4.491   4.818   3.490 -0.9752 -0.5337 -0.5912
 8652TIP3   OH247370   2.311   1.919   0.015  0.2771 -0.0812  0.0213
 8652TIP3    H147371   2.300   1.922  -0.080 -1.4403  2.5671  0.1896
 8652TIP3    H247372   2.392   1.870   0.028 -0.0772 -1.6255 -2.6983
 8653TIP3   OH247373   2.607   6.407   5.455  0.1134  0.3415  0.2607
 8653TIP3    H147374   2.644   6.323   5.428  1.3992  1.1241 -0.5849
 8653TIP3    H247375   2.538   6.385   5.516  0.7558 -1.3115  0.4448
 8654TIP3   OH247376   0.047   5.599   4.132 -0.6981  0.0329  0.1336
 8654TIP3    H147377   0.008   5.512   4.142 -0.5794 -0.1259 -0.6766
 8654TIP3    H247378   0.012   5.631   4.048  2.2325 -0.8651 -1.5925
 8655TIP3   OH247379   6.577   3.295  16.077  1.0178 -0.1200 -0.2970
 8655TIP3    H147380   6.632   3.364  16.041  1.7274  0.5605  1.9345
 8655TIP3    H247381   6.576   3.227  16.010  3.7273  0.3063 -0.8671
 8656TIP3   OH247382   5.947   1.116   3.230  0.1163 -0.0070  0.4241
 8656TIP3    H147383   5.876   1.179   3.238 -0.3664 -0.4223 -0.4856
 8656TIP3    H247384   6.011   1.158   3.173 -0.0528 -0.2095  0.0864
 8657TIP3   OH247385   0.123   2.310  15.390 -0.1178  0.0554 -0.3501
 8657TIP3    H147386   0.045   2.351  15.428 -1.4135 -1.9470 -0.7017
 8657TIP3    H247387   0.108   2.216  15.399  0.2286 -0.5381 -4.2697
 8658TIP3   OH247388   1.964   1.593   3.767 -0.8180  0.3653 -0.0031
 8658TIP3    H147389   1.989   1.577   3.858 -0.3135  1.0651 -0.0076
 8658TIP3    H247390   1.898   1.661   3.772 -1.2420 -0.0367 -0.1248
 8659TIP3   OH247391   4.484   2.687   0.929  0.6824 -0.1969 -0.2027
 8659TIP3    H147392   4.464   2.773   0.892 -0.6091 -1.0452 -1.5785
 8659TIP3    H247393   4.573   2.669   0.899  0.5589  0.2051 -0.8399
 8660TIP3   OH247394   6.781   2.379  16.935 -0.2904  0.6694  0.4028
 8660TIP3    H147395   6.810   2.469  16.926  1.1293  0.2109  0.0960
 8660TIP3    H247396   6.695   2.385  16.975  0.7082  2.0787  2.4935
 8661TIP3   OH247397   4.186   1.775   2.075  0.1073  0.1952  0.0039
 8661TIP3    H147398   4.102   1.787   2.120  0.0047 -0.4601 -0.0027
 8661TIP3    H247399   4.239   1.725   2.137  0.2117 -0.0977 -0.3192
 8662TIP3   OH247400   0.351   1.804  17.173  0.6620  0.0238 -0.1432
 8662TIP3    H147401   0.339   1.899  17.173  0.5839  0.1509 -3.6278
 8662TIP3    H247402   0.428   1.789  17.227 -0.3727  1.8233  1.9738
 8663TIP3   OH247403   4.850   0.795   0.358 -0.1794 -0.2619  0.4878
 8663TIP3    H147404   4.807   0.831   0.280  0.1931  0.9649  0.8275
 8663TIP3    H247405   4.938   0.831   0.355  0.2538 -1.2674  0.7982
 8664TIP3   OH247406   6.249   6.729   4.864 -0.4541  0.4637  0.2607
 8664TIP3    H147407   6.269   6.637   4.881 -0.3518  0.9339  3.3792
 8664TIP3    H247408   6.178   6.727   4.800  0.7447 -1.6637 -1.1398
 8665TIP3   OH247409   0.792   3.289  14.933 -0.1306  0.4957 -0.0818
 8665TIP3    H147410   0.812   3.255  15.020 -0.1504  0.9185  0.0903
 8665TIP3    H247411   0.807   3.215  14.874  1.5461  0.6683  0.0881
 8666TIP3   OH247412   0.256   3.758   5.267  0.4326  0.1291  0.6636
 8666TIP3    H147413   0.174   3.805   5.251  1.3074  1.0609 -1.3923
 8666TIP3    H247414   0.251   3.681   5.210  2.1236  1.6694 -1.7180
 8667TIP3   OH247415   6.081   3.094  16.178  0.1498 -0.3962  0.4290
 8667TIP3    H147416   6.024   3.142  16.237  0.1481  0.0265  0.0872
 8667TIP3    H247417   6.169   3.110  16.211  0.1466 -0.1878  0.3348
 8668TIP3   OH247418   0.834   3.512  12.430  0.5834 -0.2320  0.3171
 8668TIP3    H147419   0.876   3.470  12.355  0.6243 -3.0280  1.7790
 8668TIP3    H247420   0.905   3.559  12.475  1.0065 -0.4065 -0.1640
 8669TIP3   OH247421   3.749   6.159   0.071 -0.1299 -0.0844 -0.6013
 8669TIP3    H147422   3.767   6.250   0.048 -2.6207  1.1464  1.6078
 8669TIP3    H247423   3.687   6.129   0.004 -0.1021  0.2217 -0.7658
 8670TIP3   OH247424   0.976   0.557   3.481  0.6048 -0.3662  0.0911
 8670TIP3    H147425   1.021   0.495   3.424  0.5984 -0.1116 -0.1955
 8670TIP3    H247426   0.889   0.520   3.494 -0.2114  0.6782 -1.9455
 8671TIP3   OH247427   0.360   2.069   1.158  0.8235  1.3329  0.0158
 8671TIP3    H147428   0.386   2.161   1.154 -0.1910  1.6390  0.2900
 8671TIP3    H247429   0.265   2.070   1.150  0.6722  0.3982  1.3677
 8672TIP3   OH247430   1.952   0.323   0.595  0.2044 -0.7062 -0.4739
 8672TIP3    H147431   2.000   0.299   0.674 -0.1924 -0.6133 -0.2028
 8672TIP3    H247432   1.860   0.320   0.621  0.1172  0.9236 -0.4751
 8673TIP3   OH247433   5.960   4.748   5.942 -0.1667 -1.0251 -0.0070
 8673TIP3    H147434   6.009   4.668   5.960  2.2684  0.3248 -0.2259
 8673TIP3    H247435   5.943   4.746   5.848  2.0381 -0.2360 -0.4859
 8674TIP3   OH247436   2.536   1.788  11.185 -0.1192 -0.2475 -0.7001
 8674TIP3    H147437   2.469   1.728  11.152 -0.0472 -0.0045 -1.2922
 8674TIP3    H247438   2.535   1.775  11.280 -0.9549 -0.2951 -0.7100
 8675TIP3   OH247439   3.600   0.636  16.679  0.0957 -0.0189 -0.0088
 8675TIP3    H147440   3.688   0.670  16.690  0.9096 -2.0811  0.3391
 8675TIP3    H247441   3.589   0.572  16.750 -2.3446  1.3907  1.0105
 8676TIP3   OH247442   2.810   5.002  11.241 -0.1222  0.1668  0.4788
 8676TIP3    H147443   2.804   4.927  11.301 -1.3031 -0.7692 -0.7631
 8676TIP3    H247444   2.837   4.964  11.158 -0.3934  1.1766 -0.0801
 8677TIP3   OH247445   4.974   5.916   5.127  0.1638 -0.3885  0.0581
 8677TIP3    H147446   4.975   5.911   5.222  1.9971 -1.5877  0.0110
 8677TIP3    H247447   4.976   6.010   5.108  0.5514 -0.1533  1.2012
 8678TIP3   OH247448   6.767   3.172   2.104 -0.5987  0.7409 -0.3225
 8678TIP3    H147449   6.681   3.167   2.063 -0.8571  0.6259  0.2185
 8678TIP3    H247450   6.763   3.110   2.176 -0.3788  1.3883  0.2623
 8679TIP3   OH247451   0.461   2.194   4.994 -0.2075 -0.2897  0.1526
 8679TIP3    H147452   0.372   2.226   5.005 -0.4125 -1.1752  1.1777
 8679TIP3    H247453   0.495   2.243   4.919 -1.3602  0.4555  0.1011
 8680TIP3   OH247454   4.641   2.117  16.601  0.1433 -0.3213  0.5282
 8680TIP3    H147455   4.644   2.069  16.518  0.2631 -1.5298  1.2219
 8680TIP3    H247456   4.720   2.171  16.600 -1.0864  1.6159 -1.2556
 8681TIP3   OH247457   0.688   3.885  15.235  0.4808  0.5335 -0.5245
 8681TIP3    H147458   0.637   3.806  15.213  0.9489  0.0001  0.2736
 8681TIP3    H247459   0.676   3.896  15.329  1.5349  0.6147 -0.3892
 8682TIP3   OH247460   2.278   1.138   0.666  0.3858  0.2333  0.1497
 8682TIP3    H147461   2.187   1.159   0.644  0.6545  0.4923 -0.7314
 8682TIP3    H247462   2.326   1.150   0.584  1.0109 -1.1467  0.2852
 8683TIP3   OH247463   3.384   0.387   5.856 -0.0204  0.0818  0.0277
 8683TIP3    H147464   3.469   0.406   5.896 -0.7655  1.8501  0.8874
 8683TIP3    H247465   3.403   0.319   5.791  2.3862  1.6569 -1.0844
 8684TIP3   OH247466   1.315   0.999  15.440 -0.7541 -0.1090  0.1523
 8684TIP3    H147467   1.358   0.940  15.502  0.6413  0.6645 -0.0534
 8684TIP3    H247468   1.293   1.077  15.490  2.4551  1.5013 -0.7047
 8685TIP3   OH247469   2.205   3.570  14.338 -0.0247 -0.6544 -0.1167
 8685TIP3    H147470   2.136   3.504  14.342  1.3388 -2.0844  0.7276
 8685TIP3    H247471   2.230   3.584  14.429  1.9614 -1.4410 -0.5058
 8686TIP3   OH247472   3.334   2.910  17.130  0.2561 -0.1187  0.0963
 8686TIP3    H147473   3.290   2.836  17.089  0.5861  0.3456 -1.1477
 8686TIP3    H247474   3.345   2.884  17.221  3.2969 -3.0031 -0.9229
 8687TIP3   OH247475   0.060   5.039   0.955 -0.3461  0.2196 -0.5081
 8687TIP3    H147476   0.034   5.115   0.902  1.5662  1.8641  0.7685
 8687TIP3    H247477   0.025   5.059   1.042 -2.1058 -1.7075 -0.6882
 8688TIP3   OH247478   0.638   4.136   2.149 -0.3169  1.0142  0.1697
 8688TIP3    H147479   0.683   4.217   2.123 -2.3158  1.7635 -1.2686
 8688TIP3    H247480   0.545   4.159   2.146 -0.8652 -0.6733  2.2115
 8689TIP3   OH247481   4.506   5.649   3.675  0.0822 -0.2669  0.5434
 8689TIP3    H147482   4.597   5.645   3.645 -0.4187  0.6332 -1.2027
 8689TIP3    H247483   4.512   5.688   3.763  1.3824 -0.1676  0.4279
 8690TIP3   OH247484   6.264   6.182  16.440 -0.2731  0.0383  0.3648
 8690TIP3    H147485   6.216   6.100  16.429  1.4438 -0.9196 -0.3189
 8690TIP3    H247486   6.289   6.182  16.533  0.6074 -0.7310  0.1350
 8691TIP3   OH247487   5.041   2.631   1.009  0.1803 -0.0116  0.0570
 8691TIP3    H147488   4.954   2.594   1.009  0.9589 -1.9741 -0.8005
 8691TIP3    H247489   5.098   2.561   1.039  1.5367  1.0527  0.0987
 8692TIP3   OH247490   2.492   1.681  10.483  0.0254  0.0953 -0.5340
 8692TIP3    H147491   2.549   1.618  10.528 -0.1908  0.1426 -0.1898
 8692TIP3    H247492   2.529   1.766  10.504 -1.5897  0.3420  1.8470
 8693TIP3   OH247493   5.061   0.688  11.412  0.1246  0.1586 -0.3498
 8693TIP3    H147494   5.100   0.714  11.328  1.2194 -0.7697 -0.1536
 8693TIP3    H247495   5.088   0.756  11.473  1.4870 -0.4644 -0.2193
 8694TIP3   OH247496   5.311   3.265  14.182  0.7317 -0.0248 -0.1428
 8694TIP3    H147497   5.264   3.211  14.118 -2.7446  1.7879  0.6332
 8694TIP3    H247498   5.292   3.223  14.266  1.0403  0.3948  0.1362
 8695TIP3   OH247499   1.791   5.232  14.218  0.8616  0.3405 -0.5541
 8695TIP3    H147500   1.870   5.240  14.165 -0.5029  1.1202 -2.6384
 8695TIP3    H247501   1.742   5.160  14.177  0.1596  0.3428  0.2466
 8696TIP3   OH247502   4.637   3.588  13.069 -0.0155 -0.2305  0.4808
 8696TIP3    H147503   4.656   3.666  13.121  0.0335  0.5269 -0.6289
 8696TIP3    H247504   4.548   3.602  13.037 -0.2314 -0.9227  0.7643
 8697TIP3   OH247505   4.918   5.471   0.394 -0.0885  0.4132  0.4515
 8697TIP3    H147506   4.928   5.557   0.353  1.1403  0.0014 -0.1633
 8697TIP3    H247507   4.847   5.429   0.346 -0.2166  0.8174  0.2849
 8698TIP3   OH247508   3.227   0.245  14.664  0.1557  0.2798 -0.0736
 8698TIP3    H147509   3.261   0.284  14.745 -0.7180  0.6642  0.1207
 8698TIP3    H247510   3.295   0.184  14.637  0.0477 -0.5964  1.4824
 8699TIP3   OH247511   1.542   5.931   1.864  0.1234  0.3405  0.1558
 8699TIP3    H147512   1.544   6.016   1.820  0.7054  1.4369  2.1418
 8699TIP3    H247513   1.615   5.935   1.926 -0.7782 -0.9770  1.3734
 8700TIP3   OH247514   6.400   0.582   4.856  0.0335 -0.4430  0.1132
 8700TIP3    H147515   6.490   0.613   4.847  0.8845 -2.6146  0.3895
 8700TIP3    H247516   6.356   0.612   4.777  1.4131 -0.5735 -0.7412
 8701TIP3   OH247517   6.002   0.806   2.481  0.2209 -0.2753  0.0925
 8701TIP3    H147518   5.931   0.793   2.418 -1.2113  1.2976  1.2581
 8701TIP3    H247519   6.023   0.899   2.473  0.5920 -0.2403  1.3162
 8702TIP3   OH247520   5.120   4.659   2.446 -0.1365  0.1824 -0.0617
 8702TIP3    H147521   5.209   4.635   2.474 -0.2705 -0.1395  0.0924
 8702TIP3    H247522   5.083   4.577   2.412 -0.3337  0.3424 -0.2317
 8703TIP3   OH247523   0.215   0.133  11.637 -0.1176  0.3497  0.0298
 8703TIP3    H147524   0.152   0.096  11.698 -1.2384  1.7481 -0.2258
 8703TIP3    H247525   0.271   0.060  11.613 -1.8148 -1.0157  0.0533
 8704TIP3   OH247526   3.258   1.070   2.298 -0.6262 -0.0832  0.3914
 8704TIP3    H147527   3.333   1.097   2.246 -1.1244 -0.1742 -0.3797
 8704TIP3    H247528   3.185   1.064   2.236 -1.0544 -0.9511  0.9564
 8705TIP3   OH247529   5.293   0.078   1.673 -0.1476 -0.5371 -0.1699
 8705TIP3    H147530   5.381   0.094   1.638 -0.5244 -0.7155 -1.2521
 8705TIP3    H247531   5.296  -0.011   1.706 -0.0463 -0.7102 -0.6339
 8706TIP3   OH247532   5.966   2.032  11.873  0.3296  0.2019  0.1661
 8706TIP3    H147533   5.968   2.059  11.965  1.6143 -1.4541  0.6710
 8706TIP3    H247534   5.895   1.968  11.868  0.4608  0.0625  0.0788
 8707TIP3   OH247535   6.509   1.523  11.381  0.1615  0.4205  0.0365
 8707TIP3    H147536   6.475   1.441  11.416  1.4035  0.7454  2.1504
 8707TIP3    H247537   6.436   1.585  11.388 -0.7398 -0.4228 -1.4467
 8708TIP3   OH247538   1.205   4.743  14.953 -0.0627  0.0519  0.2062
 8708TIP3    H147539   1.197   4.836  14.933  1.5797 -0.0918 -1.3739
 8708TIP3    H247540   1.290   4.735  14.995  1.3069 -1.0766 -2.5272
 8709TIP3   OH247541   5.859   5.231   5.186 -0.4537  0.3228  0.3867
 8709TIP3    H147542   5.811   5.149   5.196 -2.5719  1.6495  2.1887
 8709TIP3    H247543   5.815   5.291   5.246  1.5075  2.5764 -0.2911
 8710TIP3   OH247544   2.474   3.049   0.170  0.3486  0.3991  0.2829
 8710TIP3    H147545   2.448   3.141   0.176  0.7696  0.5626 -0.2617
 8710TIP3    H247546   2.502   3.026   0.258 -1.0437  0.3892  0.7458
 8711TIP3   OH247547   2.189   2.127   6.748  0.1676 -0.0245  0.1708
 8711TIP3    H147548   2.095   2.116   6.733  0.0994  0.8941 -0.0986
 8711TIP3    H247549   2.229   2.063   6.689 -0.2731  0.0045 -0.1703
 8712TIP3   OH247550   5.659   1.809  16.647  0.2161 -0.2090 -0.3666
 8712TIP3    H147551   5.592   1.752  16.685 -1.5206  1.2881 -1.0066
 8712TIP3    H247552   5.721   1.824  16.718 -0.5596 -1.0140  0.5055
 8713TIP3   OH247553   2.128   2.100  13.845 -0.2807  0.4024 -0.9343
 8713TIP3    H147554   2.211   2.135  13.875  0.0398 -1.4246  0.5361
 8713TIP3    H247555   2.066   2.125  13.914 -0.2262 -1.0327 -0.3303
 8714TIP3   OH247556   4.502   1.149  15.709  0.9247  0.0575  0.2853
 8714TIP3    H147557   4.509   1.058  15.677 -0.4755  0.6104 -1.7935
 8714TIP3    H247558   4.434   1.146  15.776  0.7261 -0.3815  0.0660
 8715TIP3   OH247559   0.151   0.580   2.996  0.5285  0.0541 -1.0081
 8715TIP3    H147560   0.076   0.605   2.943  1.2446 -0.1653 -2.1627
 8715TIP3    H247561   0.205   0.526   2.938 -0.3039 -3.1648  0.9335
 8716TIP3   OH247562   5.806   0.815   1.036 -0.1337 -0.0637  0.0043
 8716TIP3    H147563   5.763   0.803   1.121 -1.7555  1.4528 -0.5336
 8716TIP3    H247564   5.785   0.736   0.987  1.6836 -1.4204  1.3047
 8717TIP3   OH247565   5.359   1.116  11.691 -0.3968 -0.0310  0.1279
 8717TIP3    H147566   5.346   1.040  11.748  1.9466 -1.2366 -0.8109
 8717TIP3    H247567   5.390   1.185  11.749  1.8135 -1.1973  0.4621
 8718TIP3   OH247568   3.710   1.468  14.327 -0.4796 -0.2581 -0.2660
 8718TIP3    H147569   3.685   1.383  14.290 -1.6395 -0.2053  0.3373
 8718TIP3    H247570   3.804   1.476  14.309 -0.5841 -1.1664 -1.3038
 8719TIP3   OH247571   2.619   0.050  13.216 -0.1453  0.5248 -0.0248
 8719TIP3    H147572   2.569   0.014  13.289 -1.0364  0.6195 -0.5710
 8719TIP3    H247573   2.552   0.086  13.157  0.4667 -0.6081 -1.4597
 8720TIP3   OH247574   0.617   6.222  15.511 -0.1296  0.2711 -0.0959
 8720TIP3    H147575   0.599   6.141  15.462  0.2142  1.3284 -2.0887
 8720TIP3    H247576   0.588   6.203  15.600  0.5530 -2.2835 -0.3221
 8721TIP3   OH247577   4.567   2.821  16.230 -0.2338 -0.0052 -0.1213
 8721TIP3    H147578   4.478   2.851  16.214 -0.0928  0.1101 -0.7045
 8721TIP3    H247579   4.556   2.733  16.265 -0.5642 -0.2072 -0.7136
 8722TIP3   OH247580   2.987   0.292   6.081  0.2100  0.7971  0.3960
 8722TIP3    H147581   2.897   0.319   6.097  0.9155  1.1222  4.8863
 8722TIP3    H247582   2.993   0.204   6.119  2.1528  1.4783  1.7972
 8723TIP3   OH247583   2.425   1.794  13.944 -0.0179 -0.0893  0.7111
 8723TIP3    H147584   2.475   1.864  13.904  0.2096  0.0174  1.1709
 8723TIP3    H247585   2.334   1.815  13.924 -0.0270  0.8451  1.6036
 8724TIP3   OH247586   3.126   5.404  13.616 -0.3197  0.1043 -0.3369
 8724TIP3    H147587   3.070   5.327  13.605  0.0973 -0.2450 -0.0704
 8724TIP3    H247588   3.161   5.421  13.528  1.2544 -1.3204 -0.0559
 8725TIP3   OH247589   1.745   2.998  15.375 -0.3076 -0.0778  0.6537
 8725TIP3    H147590   1.759   3.014  15.281 -3.0416  1.4138  0.3836
 8725TIP3    H247591   1.820   3.039  15.418 -0.4594  1.8235 -0.7781
 8726TIP3   OH247592   4.262   5.375  11.779 -0.2242  0.0040 -0.3939
 8726TIP3    H147593   4.288   5.300  11.832  2.8746  0.5855 -0.9090
 8726TIP3    H247594   4.209   5.338  11.708  0.7849 -1.6325 -0.3268
 8727TIP3   OH247595   3.156   2.057   4.521 -0.1386  0.1241 -0.0608
 8727TIP3    H147596   3.070   2.099   4.520 -0.0123  0.4982 -2.7350
 8727TIP3    H247597   3.218   2.129   4.529 -0.0212  0.1507 -1.0799
 8728TIP3   OH247598   6.078   1.467  15.943  0.2447 -0.5986  0.2909
 8728TIP3    H147599   6.127   1.447  15.862  0.3794 -1.0226  0.4747
 8728TIP3    H247600   6.076   1.384  15.990  0.7939 -0.1790  1.0633
 8729TIP3   OH247601   2.503   0.959   5.512 -1.2180 -0.3955  0.5235
 8729TIP3    H147602   2.481   1.040   5.560  2.3046  0.7397  0.4684
 8729TIP3    H247603   2.532   0.899   5.580 -1.9622 -0.9645  0.3525
 8730TIP3   OH247604   6.522   3.020   2.524 -0.2051  0.3176 -0.2053
 8730TIP3    H147605   6.517   2.933   2.486 -2.9872 -0.4761  1.6827
 8730TIP3    H247606   6.453   3.070   2.480  0.4037  1.1442 -0.2503
 8731TIP3   OH247607   4.392   3.886  15.337  0.5090 -0.3479  0.3193
 8731TIP3    H147608   4.370   3.899  15.430  0.7236 -1.1397  0.4871
 8731TIP3    H247609   4.469   3.830  15.339  1.3240  0.7206 -0.3183
 8732TIP3   OH247610   1.019   3.969  14.264 -0.4626 -0.0156  0.3438
 8732TIP3    H147611   1.091   4.028  14.289  0.5662 -0.0240 -2.2252
 8732TIP3    H247612   1.064   3.891  14.230 -1.6707 -0.2508 -0.7912
 8733TIP3   OH247613   0.600   5.665  16.459  0.4419  0.1531  0.0409
 8733TIP3    H147614   0.525   5.683  16.403 -0.8605  1.0574  1.9764
 8733TIP3    H247615   0.590   5.573  16.484  1.7592 -0.6687 -2.1333
 8734TIP3   OH247616   1.541   3.658   5.238  0.2026  0.7013  0.0795
 8734TIP3    H147617   1.471   3.695   5.292  0.0332  1.5252 -0.6909
 8734TIP3    H247618   1.598   3.613   5.301 -1.3047 -0.4975  0.6667
 8735TIP3   OH247619   2.534   2.721  11.826  0.0428  0.4271  0.3609
 8735TIP3    H147620   2.563   2.759  11.744 -0.2181 -0.2618 -0.0572
 8735TIP3    H247621   2.605   2.664  11.854 -0.5495 -0.6439 -0.2579
 8736TIP3   OH247622   0.027   6.610  16.712  0.1563  0.3727 -0.1720
 8736TIP3    H147623   0.002   6.653  16.631 -0.3429 -0.1932 -0.3243
 8736TIP3    H247624  -0.015   6.524  16.708  0.0855  0.3540  0.7052
 8737TIP3   OH247625   2.221   2.190   3.997  0.0045  0.2078  0.0535
 8737TIP3    H147626   2.202   2.214   4.087 -0.1522 -0.6565  0.2613
 8737TIP3    H247627   2.264   2.105   4.003 -0.4347 -0.0787 -0.7126
 8738TIP3   OH247628   5.412   4.266   5.111 -0.2477  0.8171  0.2069
 8738TIP3    H147629   5.482   4.273   5.175 -0.3593 -1.1030  0.5769
 8738TIP3    H247630   5.452   4.297   5.029  1.5442 -1.5214  0.0795
 8739TIP3   OH247631   1.640   5.361  16.669  0.3235  0.1501 -0.2088
 8739TIP3    H147632   1.600   5.324  16.747  1.6951 -0.0674  0.4080
 8739TIP3    H247633   1.665   5.286  16.616  2.6015  0.1333  0.7900
 8740TIP3   OH247634   0.548   0.253  14.717  0.3429  0.2547 -0.5234
 8740TIP3    H147635   0.570   0.262  14.624  1.0076 -0.1782 -0.4126
 8740TIP3    H247636   0.556   0.342  14.752  1.1287  0.2529 -0.6672
 8741TIP3   OH247637   6.387   5.294   4.712 -0.4788 -0.1200  0.2181
 8741TIP3    H147638   6.372   5.203   4.741  0.8275 -0.9077 -1.4033
 8741TIP3    H247639   6.479   5.310   4.733 -0.2773  0.2636 -0.8901
 8742TIP3   OH247640   5.908   0.756  14.081  0.1709  0.0814 -0.0997
 8742TIP3    H147641   5.927   0.793  13.995 -2.2614  1.4913 -0.1221
 8742TIP3    H247642   5.824   0.793  14.105  0.6960 -0.3916  2.8639
 8743TIP3   OH247643   3.671   1.575  12.136 -0.4745 -0.2943 -0.4187
 8743TIP3    H147644   3.589   1.552  12.180 -1.3655  1.7677 -0.8620
 8743TIP3    H247645   3.650   1.654  12.087  1.8542  0.4456 -0.3465
 8744TIP3   OH247646   1.373   3.012   5.192  0.2214 -0.3003 -0.2342
 8744TIP3    H147647   1.298   3.057   5.230  0.1782 -0.3393 -0.2741
 8744TIP3    H247648   1.393   2.942   5.254  1.0071  0.4778  0.4185
 8745TIP3   OH247649   3.959   5.053  10.767 -0.4115 -0.1591  0.5286
 8745TIP3    H147650   3.942   4.964  10.796 -0.8053 -0.1695  0.2769
 8745TIP3    H247651   3.993   5.045  10.678  0.8385 -0.1288  0.9942
 8746TIP3   OH247652   0.350   4.266  15.511 -0.2868  0.1881 -0.0351
 8746TIP3    H147653   0.309   4.320  15.579 -1.4873 -0.3864 -0.2912
 8746TIP3    H247654   0.333   4.176  15.537  0.5223 -0.0663 -0.3395
 8747TIP3   OH247655   3.569   3.032  16.896  0.2426 -0.1748  0.6025
 8747TIP3    H147656   3.510   3.077  16.835 -1.2214 -0.3374  1.8298
 8747TIP3    H247657   3.617   3.103  16.938  0.3310  0.0178  0.1872
 8748TIP3   OH247658   5.473   2.438  16.342 -0.0817  0.4893 -0.4028
 8748TIP3    H147659   5.394   2.440  16.288 -1.3514 -0.2195  1.3308
 8748TIP3    H247660   5.500   2.346  16.341 -2.5454 -0.4924  3.3257
 8749TIP3   OH247661   6.252   4.428  13.962 -0.0003  0.3112  0.2198
 8749TIP3    H147662   6.310   4.482  13.908 -1.5802  3.0691  1.0793
 8749TIP3    H247663   6.264   4.461  14.051 -1.8884  0.0668  0.5982
 8750TIP3   OH247664   3.179   3.657   5.400  0.1134 -0.0242 -0.6850
 8750TIP3    H147665   3.219   3.571   5.386  0.8351  0.1419  0.2487
 8750TIP3    H247666   3.195   3.705   5.319  1.5915 -0.0573 -0.4331
 8751TIP3   OH247667   5.809   0.017   1.658 -0.0983 -0.3201  0.2284
 8751TIP3    H147668   5.887   0.071   1.651  1.4859 -2.6003 -0.8635
 8751TIP3    H247669   5.841  -0.069   1.684 -2.5370 -0.7680  2.2619
 8752TIP3   OH247670   2.642   6.275  16.657  0.6109  0.2047 -0.2864
 8752TIP3    H147671   2.576   6.213  16.690  1.9056 -0.0189  2.1348
 8752TIP3    H247672   2.614   6.360  16.690  0.6124  0.3889 -0.7535
 8753TIP3   OH247673   5.610   3.366  13.679  0.7460 -0.2604 -0.0993
 8753TIP3    H147674   5.679   3.302  13.692  1.2619  0.5908  1.6481
 8753TIP3    H247675   5.655   3.450  13.676 -0.2066  0.3467  1.4080
 8754TIP3   OH247676   2.005   6.385   2.248 -0.1342 -0.2031 -0.2819
 8754TIP3    H147677   2.091   6.420   2.225 -0.3495  0.2135 -0.4603
 8754TIP3    H247678   2.021   6.331   2.325  0.3722 -0.5424 -0.6228
 8755TIP3   OH247679   1.894   4.979   4.939  0.5203 -0.4432 -0.9920
 8755TIP3    H147680   1.915   5.066   4.905  0.1848 -0.4872 -1.3116
 8755TIP3    H247681   1.897   4.922   4.862  0.7545 -0.7176 -0.7816
 8756TIP3   OH247682   0.611   3.927   0.309  0.1046 -0.0016  0.2669
 8756TIP3    H147683   0.524   3.894   0.289  0.3137 -0.6419  0.3999
 8756TIP3    H247684   0.605   3.957   0.399 -0.0915  0.3520  0.1384
 8757TIP3   OH247685   4.102   5.437   6.509 -0.1191  0.2846 -0.3296
 8757TIP3    H147686   4.026   5.441   6.567  0.5504  1.6228  0.4889
 8757TIP3    H247687   4.169   5.391   6.560  0.0963  0.4183 -0.4906
 8758TIP3   OH247688   1.160   1.265   5.203 -0.3766  0.2139  0.2561
 8758TIP3    H147689   1.161   1.260   5.108  0.9243 -0.1599  0.2638
 8758TIP3    H247690   1.086   1.322   5.224 -2.6633 -2.1460 -0.8266
 8759TIP3   OH247691   0.145   0.932   0.960  0.0430 -0.0461  0.6127
 8759TIP3    H147692   0.076   0.914   0.896 -0.8629 -0.4606  1.6507
 8759TIP3    H247693   0.221   0.956   0.908 -0.8990  0.4743 -0.5767
 8760TIP3   OH247694   3.581   1.217   4.513 -0.5185  0.2216 -0.2280
 8760TIP3    H147695   3.592   1.183   4.602 -3.0168 -1.3901 -0.4417
 8760TIP3    H247696   3.533   1.298   4.524  2.2640  1.9747  0.0267
 8761TIP3   OH247697   0.193   3.685  16.114  0.1610 -0.1713 -0.3530
 8761TIP3    H147698   0.222   3.594  16.107  1.9070  0.2937  0.3912
 8761TIP3    H247699   0.179   3.697  16.208  2.1795  0.9552 -0.1560
 8762TIP3   OH247700   3.294   1.226   1.717  0.2446  0.3176 -0.4284
 8762TIP3    H147701   3.366   1.184   1.762 -0.0777 -1.1038 -1.1798
 8762TIP3    H247702   3.312   1.320   1.724  1.1498  0.0631  1.0121
 8763TIP3   OH247703   6.027   6.442   0.475  0.1101 -0.1519 -0.5140
 8763TIP3    H147704   5.954   6.487   0.517 -0.3666 -0.1537 -1.3206
 8763TIP3    H247705   6.105   6.482   0.513 -0.3099  0.1072  0.0864
 8764TIP3   OH247706   5.585   2.905   6.538  0.3848 -0.1619 -0.0290
 8764TIP3    H147707   5.576   2.914   6.633 -1.0003 -1.1244 -0.0349
 8764TIP3    H247708   5.513   2.847   6.513  0.5052  0.3704 -1.7192
 8765TIP3   OH247709   0.395   0.839  13.085 -0.2774 -0.1591  0.1806
 8765TIP3    H147710   0.362   0.907  13.144 -1.6562  0.1815 -0.9195
 8765TIP3    H247711   0.464   0.882  13.034  1.6374 -0.7302  2.1453
 8766TIP3   OH247712   5.094   1.991   6.144  0.5688  0.0316  0.5112
 8766TIP3    H147713   5.146   2.019   6.220  2.1078 -0.3879 -0.3420
 8766TIP3    H247714   5.050   1.911   6.173 -1.2383  1.4372  1.8879
 8767TIP3   OH247715   6.753   4.976   5.217  0.5289 -0.0286 -0.3800
 8767TIP3    H147716   6.835   5.025   5.219  0.9980 -0.8215  0.5848
 8767TIP3    H247717   6.778   4.888   5.188 -0.1887  0.0675 -1.3462
 8768TIP3   OH247718   4.399   3.163  13.228 -0.2282  0.0309 -0.4800
 8768TIP3    H147719   4.475   3.200  13.182  1.3492 -0.7149  1.3615
 8768TIP3    H247720   4.422   3.071  13.241 -1.2028 -0.0728  0.6345
 8769TIP3   OH247721   5.762   3.382   3.415  0.5473  0.2205 -0.1791
 8769TIP3    H147722   5.770   3.302   3.468 -0.6054 -1.5325 -2.4670
 8769TIP3    H247723   5.668   3.400   3.412  0.7848  1.6814  0.2388
 8770TIP3   OH247724   5.391   5.774  14.331 -0.2162 -0.8622  0.6235
 8770TIP3    H147725   5.349   5.688  14.333  1.2196 -1.6157 -0.1928
 8770TIP3    H247726   5.391   5.799  14.239  4.2882 -2.6031 -0.0929
 8771TIP3   OH247727   1.823   0.509   3.013  0.1037 -0.3962  0.4429
 8771TIP3    H147728   1.853   0.508   3.104 -0.3952  0.8648  0.6413
 8771TIP3    H247729   1.735   0.544   3.017  1.0107  2.2769 -0.7542
 8772TIP3   OH247730   1.433   2.788   1.722  0.1654  0.1003 -0.2064
 8772TIP3    H147731   1.483   2.821   1.796 -1.6088 -0.1103  1.1392
 8772TIP3    H247732   1.341   2.802   1.746 -0.5073 -1.3347 -1.7114
 8773TIP3   OH247733   0.197   2.909  12.224 -0.3405 -0.2304  0.3456
 8773TIP3    H147734   0.209   2.979  12.287  0.8486 -0.2992  0.2191
 8773TIP3    H247735   0.102   2.903  12.212 -0.5965 -0.1559  2.0501
 8774TIP3   OH247736   6.327   3.613   3.239  0.0105 -0.3884 -0.3519
 8774TIP3    H147737   6.249   3.669   3.245 -0.7914 -1.5501  0.3059
 8774TIP3    H247738   6.353   3.597   3.330  2.2589  1.6002 -0.5370
 8775TIP3   OH247739   6.699   0.005   3.452 -0.6043  0.4514 -0.6511
 8775TIP3    H147740   6.770   0.011   3.516 -0.3006 -0.6004 -0.8633
 8775TIP3    H247741   6.686   0.094   3.422  0.3667  0.7185 -0.3192
 8776TIP3   OH247742   6.518   3.137  14.383  0.0006 -0.4451 -0.0853
 8776TIP3    H147743   6.586   3.123  14.316  1.1110 -0.6769  1.0520
 8776TIP3    H247744   6.540   3.076  14.453 -2.0709 -1.3599 -0.1515
 8777TIP3   OH247745   0.759   3.901  17.133 -0.3962 -0.4005 -0.1490
 8777TIP3    H147746   0.810   3.848  17.071 -1.8032 -0.7284 -1.0728
 8777TIP3    H247747   0.810   3.899  17.214  0.2012 -2.1567 -0.5209
 8778TIP3   OH247748   1.739   0.046  17.157 -0.3399 -0.6225  0.1753
 8778TIP3    H147749   1.752   0.026  17.250 -0.2150 -1.1253  0.0527
 8778TIP3    H247750   1.771   0.135  17.147 -1.3219 -0.1689  0.8320
 8779TIP3   OH247751   6.143   2.157   4.162 -0.4743  0.5838  0.0557
 8779TIP3    H147752   6.170   2.211   4.087  0.5303 -1.7145 -1.3634
 8779TIP3    H247753   6.072   2.206   4.203 -0.8946  2.0634 -2.2612
 8780TIP3   OH247754   2.107   3.859  15.266  0.1091 -0.9075 -0.2856
 8780TIP3    H147755   2.161   3.937  15.250  1.6900 -1.8962  0.0693
 8780TIP3    H247756   2.019   3.887  15.242  0.7959  0.6852 -1.1542
 8781TIP3   OH247757   0.772   5.761   1.632 -0.2509  0.2232  0.0874
 8781TIP3    H147758   0.801   5.847   1.600  0.2332 -0.2102 -0.6638
 8781TIP3    H247759   0.689   5.746   1.588 -0.3225  0.2922  0.1983
 8782TIP3   OH247760   1.260   2.214   0.998 -0.2076  0.1091  0.3484
 8782TIP3    H147761   1.342   2.172   1.026  0.5944  1.4222  0.0367
 8782TIP3    H247762   1.194   2.146   1.010  1.2016 -1.6552 -1.1813
 8783TIP3   OH247763   4.493   0.163  15.703 -0.1628 -0.1739 -0.1170
 8783TIP3    H147764   4.567   0.187  15.759  0.1946 -2.9947  0.7514
 8783TIP3    H247765   4.418   0.208  15.742  0.5229 -0.0097  1.0691
 8784TIP3   OH247766   0.886   3.330  15.551  0.1717  0.4325  0.9571
 8784TIP3    H147767   0.910   3.413  15.510  2.1125 -1.4505 -1.9885
 8784TIP3    H247768   0.915   3.339  15.642  1.9443  2.3249  0.2634
 8785TIP3   OH247769   4.772   5.632   3.602  0.7813 -0.0505  0.5062
 8785TIP3    H147770   4.836   5.649   3.671  0.6468  0.2187  0.5671
 8785TIP3    H247771   4.818   5.576   3.540  1.2375  0.5353  0.3070
 8786TIP3   OH247772   2.274   1.715   1.648 -0.3466 -0.1462  0.2070
 8786TIP3    H147773   2.330   1.665   1.708 -0.0311 -0.4402 -0.3188
 8786TIP3    H247774   2.205   1.750   1.703 -0.2937 -0.7598  0.6740
 8787TIP3   OH247775   2.985   1.365   1.481  0.5152  0.0708 -0.1629
 8787TIP3    H147776   2.904   1.369   1.532 -0.1508  2.0734 -1.2676
 8787TIP3    H247777   2.999   1.272   1.465 -0.0765 -0.5246  2.3077
 8788TIP3   OH247778   5.572   5.438  12.447 -0.4085  0.1286 -0.5955
 8788TIP3    H147779   5.653   5.419  12.399 -0.2933 -0.9852  0.0086
 8788TIP3    H247780   5.506   5.446  12.379 -0.6610 -3.4511 -0.9717
 8789TIP3   OH247781   2.851   0.144  14.872 -0.3211 -0.3881  0.2559
 8789TIP3    H147782   2.913   0.166  14.941 -0.2632  1.3464 -0.2955
 8789TIP3    H247783   2.905   0.120  14.797 -0.3814 -1.8916  0.6584
 8790TIP3   OH247784   4.276   6.602  13.501  0.0486 -0.1244 -0.4057
 8790TIP3    H147785   4.286   6.517  13.545 -1.2994  1.0373  2.4046
 8790TIP3    H247786   4.362   6.620  13.464  2.1217 -0.3205  3.7180
 8791TIP3   OH247787   2.634   6.328   4.956 -0.1174  0.2897  0.3528
 8791TIP3    H147788   2.598   6.296   5.039 -0.9875  0.3235 -0.0002
 8791TIP3    H247789   2.557   6.353   4.905  0.1847 -2.0420 -1.4200
 8792TIP3   OH247790   2.379   6.155  12.483  0.4376 -0.0101  0.0658
 8792TIP3    H147791   2.383   6.114  12.570 -2.8521 -0.9313 -0.0819
 8792TIP3    H247792   2.391   6.083  12.422 -2.0783 -0.2974 -0.1824
 8793TIP3   OH247793   4.168   5.374  13.480 -0.3037 -0.0305  0.5085
 8793TIP3    H147794   4.187   5.314  13.408 -0.9737  0.8661 -0.4533
 8793TIP3    H247795   4.099   5.330  13.531 -0.3251 -0.3657  0.1936
 8794TIP3   OH247796   1.853   5.757  15.786 -0.0976  0.1487 -0.4671
 8794TIP3    H147797   1.789   5.752  15.715  1.6149  0.0933 -2.0802
 8794TIP3    H247798   1.883   5.847  15.786  0.2551  0.0361 -0.1038
 8795TIP3   OH247799   3.640   6.433  11.921 -0.5710  0.1600  0.2532
 8795TIP3    H147800   3.671   6.501  11.980  0.7556  1.1569 -1.5202
 8795TIP3    H247801   3.671   6.351  11.960  0.1421  0.7783  1.0145
 8796TIP3   OH247802   1.009   0.584   1.060  0.0918 -0.2072 -0.3027
 8796TIP3    H147803   0.957   0.532   1.121  0.0305 -0.0783 -0.2439
 8796TIP3    H247804   1.020   0.528   0.983 -2.8925  0.8974 -1.6783
 8797TIP3   OH247805   4.134   1.366   2.145  0.3601 -0.7778  0.0734
 8797TIP3    H147806   4.170   1.369   2.234  1.1900 -1.8193 -0.1968
 8797TIP3    H247807   4.198   1.414   2.092 -0.4381  0.3567  0.1247
 8798TIP3   OH247808   3.004   5.460  14.048  0.6528  1.1413 -0.5160
 8798TIP3    H147809   2.919   5.459  14.003 -0.5265  0.3823  1.5945
 8798TIP3    H247810   3.065   5.420  13.985 -0.6726  1.1300 -1.8376
 8799TIP3   OH247811   3.924   6.599  15.260 -0.5580  0.0464  0.6280
 8799TIP3    H147812   3.937   6.619  15.353 -1.3588 -1.1928  1.0272
 8799TIP3    H247813   4.011   6.576  15.228 -0.6325 -1.7885  1.6605
 8800TIP3   OH247814   0.902   1.711  10.291 -0.1561  0.0158  0.6218
 8800TIP3    H147815   0.855   1.634  10.323 -0.3669  0.4339  1.3356
 8800TIP3    H247816   0.893   1.776  10.361  0.3258  0.5685  0.1828
 8801TIP3   OH247817   2.451   2.015   0.284  0.4331 -0.4630 -0.1073
 8801TIP3    H147818   2.379   1.992   0.226 -1.1907 -0.1324  1.6677
 8801TIP3    H247819   2.438   1.960   0.362 -0.7772  2.8119  2.2461
 8802TIP3   OH247820   0.133   0.380   1.233  0.4898 -0.2016 -0.3564
 8802TIP3    H147821   0.161   0.471   1.237 -0.6766  0.1525  3.7183
 8802TIP3    H247822   0.196   0.333   1.289 -1.2476 -1.0950  0.9516
 8803TIP3   OH247823   3.209   3.052   2.064 -0.0451 -0.5659 -0.1131
 8803TIP3    H147824   3.229   2.967   2.024  0.1529 -0.1776 -0.8613
 8803TIP3    H247825   3.218   3.036   2.158  0.2380 -1.3139 -0.2522
 8804TIP3   OH247826   0.968   2.916   5.068 -0.8494  0.1742  0.1437
 8804TIP3    H147827   0.975   2.821   5.074  0.5989  0.2552  0.0862
 8804TIP3    H247828   1.057   2.945   5.049 -0.9532  1.6673  1.7304
 8805TIP3   OH247829   0.535   4.691  12.526 -0.2255  0.2338  0.3309
 8805TIP3    H147830   0.478   4.718  12.598 -0.0266  0.5486  0.3748
 8805TIP3    H247831   0.604   4.640  12.568 -0.4701 -0.1419  0.2786
 8806TIP3   OH247832   4.857   6.264  14.597  0.3530  0.0770 -0.0980
 8806TIP3    H147833   4.913   6.333  14.633 -0.8775 -0.1465  2.4220
 8806TIP3    H247834   4.773   6.306  14.582  0.4156 -0.2115 -1.4054
 8807TIP3   OH247835   5.158   6.109  11.533  0.0866  0.1497  0.2723
 8807TIP3    H147836   5.228   6.063  11.487 -0.6783  0.3409 -1.1616
 8807TIP3    H247837   5.183   6.201  11.529 -0.0219  0.1748  0.1557
 8808TIP3   OH247838   1.786   1.621   2.877  0.1265 -0.3630 -0.0799
 8808TIP3    H147839   1.721   1.685   2.851  1.2056  0.5380 -0.6158
 8808TIP3    H247840   1.856   1.629   2.812  1.4047 -0.3364  1.2535
 8809TIP3   OH247841   5.052   4.088  14.258 -0.2461 -0.1983 -0.5315
 8809TIP3    H147842   4.965   4.116  14.229 -0.2596  0.0575 -0.2446
 8809TIP3    H247843   5.035   4.034  14.335 -0.1383  0.0055 -0.3651
 8810TIP3   OH247844   6.764   3.707  17.136  0.6664 -0.1136 -0.6418
 8810TIP3    H147845   6.704   3.780  17.120  1.8741  0.9813 -0.3592
 8810TIP3    H247846   6.843   3.730  17.088  0.4648 -2.1486 -2.0726
 8811TIP3   OH247847   0.928   6.557  17.012  0.5366 -0.2479  0.0813
 8811TIP3    H147848   1.014   6.585  16.980 -0.1486  0.4815 -1.1732
 8811TIP3    H247849   0.866   6.616  16.969 -0.6769 -1.4379  0.1456
 8812TIP3   OH247850   6.725   3.935   1.210 -0.0355 -0.4226  0.2264
 8812TIP3    H147851   6.698   3.998   1.276  1.9035 -0.4237  1.0758
 8812TIP3    H247852   6.644   3.890   1.185 -1.3480  1.8747  0.1019
 8813TIP3   OH247853   0.990   0.071   3.277 -0.5862 -0.0152  0.4354
 8813TIP3    H147854   0.940   0.016   3.338 -1.0054 -0.3446 -0.1929
 8813TIP3    H247855   0.936   0.149   3.266 -0.5172  0.0381  0.4742
 8814TIP3   OH247856   3.230   5.224  12.632 -0.4079 -0.2387 -0.2507
 8814TIP3    H147857   3.266   5.196  12.716 -0.4440  1.9518  0.5463
 8814TIP3    H247858   3.283   5.300  12.607 -1.4292  0.1344 -1.3951
 8815TIP3   OH247859   3.195   5.370  13.884  0.6595 -0.4235  0.1929
 8815TIP3    H147860   3.284   5.347  13.858  0.3999 -1.6089  0.3227
 8815TIP3    H247861   3.164   5.429  13.815  1.8942  0.8296  0.6783
 8816TIP3   OH247862   1.169   6.138   3.923 -0.6563 -0.2610  0.0795
 8816TIP3    H147863   1.186   6.065   3.863 -0.8235  0.0621 -0.3654
 8816TIP3    H247864   1.073   6.140   3.930 -0.5949 -1.1501  1.4197
 8817TIP3   OH247865   5.806   4.519   4.532 -0.0571  0.2655 -0.1213
 8817TIP3    H147866   5.715   4.523   4.504  0.0585 -0.8483 -0.7340
 8817TIP3    H247867   5.829   4.609   4.554 -1.1159  0.6555 -0.5778
 8818TIP3   OH247868   4.279   1.726  11.483  0.5239  0.4358 -0.3136
 8818TIP3    H147869   4.314   1.800  11.433  1.9679 -0.2592 -0.3715
 8818TIP3    H247870   4.229   1.675  11.419 -2.3168  2.4035  0.1415
 8819TIP3   OH247871   2.592   0.478  16.608 -0.0275  0.1603 -0.3263
 8819TIP3    H147872   2.622   0.505  16.694  2.1568 -0.5334 -0.8178
 8819TIP3    H247873   2.556   0.558  16.569 -1.6281  0.3405  1.4039
 8820TIP3   OH247874   6.251   2.806  14.625 -0.0863  0.2005  0.1281
 8820TIP3    H147875   6.279   2.715  14.633 -1.7955 -0.7581 -3.1446
 8820TIP3    H247876   6.217   2.829  14.712 -0.1793 -2.4516  0.8670
 8821TIP3   OH247877   0.752   2.226  15.200 -0.1399 -0.5241  0.0445
 8821TIP3    H147878   0.721   2.160  15.139  1.9969  0.0805 -1.8573
 8821TIP3    H247879   0.832   2.188  15.238 -1.6309 -1.0652  2.9134
 8822TIP3   OH247880   0.320   4.058   0.530  0.2367 -0.1597 -0.4604
 8822TIP3    H147881   0.340   4.149   0.554 -0.1239  0.0632 -0.9918
 8822TIP3    H247882   0.259   4.029   0.599  1.0147 -0.2880  0.1931
 8823TIP3   OH247883   2.888   0.329  12.430  0.2485 -0.5549 -0.0991
 8823TIP3    H147884   2.893   0.368  12.343  1.4919  0.0512  0.2151
 8823TIP3    H247885   2.797   0.302  12.439 -0.9370  2.9826 -0.0821
 8824TIP3   OH247886   4.846   4.858   4.350  0.7212 -0.0006  0.6431
 8824TIP3    H147887   4.902   4.893   4.420  1.4665  1.0818 -0.4560
 8824TIP3    H247888   4.904   4.851   4.274 -0.8003  2.1368 -0.8259
 8825TIP3   OH247889   0.320   1.079  11.855 -0.0851  0.3922 -0.0759
 8825TIP3    H147890   0.270   1.055  11.933 -1.3933  1.0228 -0.6804
 8825TIP3    H247891   0.328   0.997  11.805 -0.5972  0.2896 -0.0000
 8826TIP3   OH247892   0.887   6.449   4.459  0.5984  0.2594  0.2094
 8826TIP3    H147893   0.795   6.475   4.464  0.0301 -1.6703  0.7994
 8826TIP3    H247894   0.885   6.354   4.472  2.7170  0.2398  0.6307
 8827TIP3   OH247895   4.169   2.043  13.086  0.1115  0.1652 -0.4192
 8827TIP3    H147896   4.247   2.072  13.039 -0.2690  0.3278 -0.9530
 8827TIP3    H247897   4.096   2.064  13.028 -0.2372 -1.1204 -0.4677
 8828TIP3   OH247898   0.470   3.919   3.280  0.3979 -0.2234 -0.4913
 8828TIP3    H147899   0.465   4.003   3.233  0.8801 -0.2627 -0.6151
 8828TIP3    H247900   0.552   3.925   3.329  1.2852 -1.2832 -1.7711
 8829TIP3   OH247901   4.809   5.205   3.472 -0.1101 -0.2879  0.2913
 8829TIP3    H147902   4.854   5.129   3.509 -0.8209 -0.1943  1.4148
 8829TIP3    H247903   4.771   5.248   3.548 -1.4398  0.0591 -0.5492
 8830TIP3   OH247904   5.822   4.761   3.425 -0.2802  0.2767  0.1127
 8830TIP3    H147905   5.762   4.788   3.495 -0.7022  1.1361 -0.5630
 8830TIP3    H247906   5.844   4.843   3.380  1.0116 -0.0987  0.0376
 8831TIP3   OH247907   2.848   6.130   6.317 -0.0892 -0.2016  0.1848
 8831TIP3    H147908   2.923   6.184   6.342 -1.0879  0.8350  1.0259
 8831TIP3    H247909   2.887   6.054   6.273  1.5526 -0.3626  1.7890
 8832TIP3   OH247910   3.720   3.101  13.825 -0.8952 -0.0526  0.1266
 8832TIP3    H147911   3.720   3.192  13.795 -0.1737  0.2716  1.0436
 8832TIP3    H247912   3.634   3.089  13.866 -0.9898  0.2226  0.0114
 8833TIP3   OH247913   2.588   1.602  11.903 -0.2774  0.0294 -0.1843
 8833TIP3    H147914   2.605   1.664  11.974  0.1967  0.0491 -0.3104
 8833TIP3    H247915   2.675   1.575  11.874 -0.4552  0.4581 -1.1421
 8834TIP3   OH247916   2.422   4.502  16.580 -0.1347  0.0775  0.0998
 8834TIP3    H147917   2.431   4.560  16.655  0.7104  0.7455 -0.4931
 8834TIP3    H247918   2.333   4.515  16.549 -0.7051 -0.6804  1.3438
 8835TIP3   OH247919   3.980   6.622   0.320  0.2715  0.2314 -0.2468
 8835TIP3    H147920   3.950   6.698   0.369  2.7951  0.1072  1.6997
 8835TIP3    H247921   4.075   6.620   0.334  0.2848 -3.5193  0.2470
 8836TIP3   OH247922   6.443   2.431   0.700  0.1009 -0.2001 -0.2427
 8836TIP3    H147923   6.511   2.455   0.636  1.7996 -0.3397  1.4325
 8836TIP3    H247924   6.396   2.359   0.658  0.4040  0.4656 -1.8050
 8837TIP3   OH247925   0.575   1.679   1.228  0.5891 -0.2618  0.1860
 8837TIP3    H147926   0.542   1.630   1.153  0.7575  1.6132 -1.1588
 8837TIP3    H247927   0.629   1.615   1.275 -0.1790 -1.7030 -0.7986
 8838TIP3   OH247928   2.984   5.544   0.232  0.8194 -0.0576  0.2029
 8838TIP3    H147929   3.019   5.572   0.317 -0.3120  1.3182  0.2565
 8838TIP3    H247930   2.950   5.624   0.192 -2.2151 -1.2256  0.1541
 8839TIP3   OH247931   2.150   3.444  16.762 -0.4865 -0.6539 -0.0498
 8839TIP3    H147932   2.188   3.358  16.743  0.1498 -0.4685  0.3370
 8839TIP3    H247933   2.207   3.506  16.716 -0.3603 -0.3786  0.4614
 8840TIP3   OH247934   6.260   6.531  16.276  0.3024  0.2489  0.0958
 8840TIP3    H147935   6.308   6.530  16.359 -1.0747 -0.5093  0.9132
 8840TIP3    H247936   6.269   6.621  16.244  0.4497  0.6794  1.3204
 8841TIP3   OH247937   3.247   2.631  17.053 -0.3213  0.8624  0.2862
 8841TIP3    H147938   3.222   2.623  16.961 -1.9218  1.0358  0.6803
 8841TIP3    H247939   3.174   2.591  17.102  1.5931 -1.5232  1.4255
 8842TIP3   OH247940   2.688   0.420   1.943 -0.4417  0.2259 -0.1230
 8842TIP3    H147941   2.707   0.419   2.037 -2.8873  2.3138  0.5150
 8842TIP3    H247942   2.675   0.513   1.923 -2.1043 -0.3566 -2.0355
 8843TIP3   OH247943   6.263   2.112  16.054 -0.1010  0.2887  0.6072
 8843TIP3    H147944   6.299   2.030  16.089 -0.7228  0.3999  1.5601
 8843TIP3    H247945   6.336   2.173  16.056 -0.1331  0.3287  1.8812
 8844TIP3   OH247946   0.554   0.061   4.886 -0.0123  0.7438 -0.1501
 8844TIP3    H147947   0.609   0.118   4.939  0.9914 -0.7071  0.3933
 8844TIP3    H247948   0.530  -0.011   4.944  0.4033 -0.4268 -1.3841
 8845TIP3   OH247949   2.562   0.652   1.484  0.2562 -0.1460 -0.8989
 8845TIP3    H147950   2.481   0.704   1.488 -0.9141 -1.9441  0.7132
 8845TIP3    H247951   2.578   0.640   1.390  0.7305  3.1928 -1.3770
 8846TIP3   OH247952   5.904   3.511  16.096  0.3582 -0.3097  0.4067
 8846TIP3    H147953   5.853   3.549  16.024  0.8752 -0.2445  0.0750
 8846TIP3    H247954   5.924   3.422  16.067  1.7038  0.1408 -0.1196
 8847TIP3   OH247955   6.572   5.097  11.559 -0.4183 -0.0953  0.1998
 8847TIP3    H147956   6.564   5.003  11.576  0.9036 -0.1775  0.4326
 8847TIP3    H247957   6.593   5.102  11.465  0.4408 -0.0960  0.3845
 8848TIP3   OH247958   3.298   6.248  11.245  0.0519 -0.1936  0.0194
 8848TIP3    H147959   3.351   6.181  11.288 -0.0389  0.3395  0.9821
 8848TIP3    H247960   3.208   6.216  11.254  0.0464 -0.1599  0.0833
 8849TIP3   OH247961   1.889   1.148   3.030  0.8043  0.3203  0.8379
 8849TIP3    H147962   1.941   1.142   2.950 -1.3954 -0.8176 -0.6336
 8849TIP3    H247963   1.866   1.241   3.036  0.3509  0.3052 -0.3292
 8850TIP3   OH247964   4.625   5.843  11.407 -0.2285 -0.6049  0.1636
 8850TIP3    H147965   4.649   5.826  11.316 -0.0170 -1.3073  0.3442
 8850TIP3    H247966   4.529   5.839  11.408 -0.1982 -1.5495  0.1458
 8851TIP3   OH247967   5.058   1.472  14.532 -0.0420 -0.3718  0.1424
 8851TIP3    H147968   5.050   1.549  14.475  0.0092  0.3856  1.1390
 8851TIP3    H247969   4.977   1.473  14.584  0.6770 -0.0604  1.2767
 8852TIP3   OH247970   3.949   2.096   5.692  0.5724  0.3241 -0.2926
 8852TIP3    H147971   3.932   2.140   5.775  3.3136  0.5722  0.2373
 8852TIP3    H247972   3.926   2.004   5.708 -0.0230  0.5774  0.3492
 8853TIP3   OH247973   6.016   6.677   4.690 -0.4058 -0.4540  0.3868
 8853TIP3    H147974   6.016   6.588   4.655  3.0566 -0.9828  1.4226
 8853TIP3    H247975   5.985   6.732   4.618 -0.4557 -2.2563 -1.0062
 8854TIP3   OH247976   4.664   6.311   4.101  0.1680 -0.4470 -0.6199
 8854TIP3    H147977   4.620   6.227   4.109  0.6647 -0.6748 -0.1889
 8854TIP3    H247978   4.661   6.332   4.008  3.5859 -2.9124 -1.4846
 8855TIP3   OH247979   1.196   5.020  14.891  0.0515  0.0963 -0.7939
 8855TIP3    H147980   1.255   5.067  14.832 -1.0767  0.7254 -1.4652
 8855TIP3    H247981   1.109   5.034  14.854 -0.5813 -0.4075  0.4327
 8856TIP3   OH247982   1.022   2.462   0.470  0.0167 -0.3151 -0.0692
 8856TIP3    H147983   1.099   2.514   0.447 -0.3295  0.2722  0.0846
 8856TIP3    H247984   1.051   2.407   0.543 -0.0191  0.6960  0.7232
 8857TIP3   OH247985   2.548   2.064   5.129 -0.6263 -0.1318 -0.1066
 8857TIP3    H147986   2.545   2.008   5.052 -0.5658 -0.3966  0.0842
 8857TIP3    H247987   2.461   2.058   5.167 -0.8015  0.3744 -0.4205
 8858TIP3   OH247988   0.137   5.266   3.067 -0.4157  0.2157  0.1403
 8858TIP3    H147989   0.143   5.345   3.120  1.5618 -0.7195  1.4553
 8858TIP3    H247990   0.220   5.221   3.082 -1.8517 -2.6201  0.2788
 8859TIP3   OH247991   2.248   0.887  15.639 -0.0302 -0.6213  0.1878
 8859TIP3    H147992   2.228   0.883  15.733 -1.7984 -1.5460 -0.1877
 8859TIP3    H247993   2.257   0.795  15.613  0.7134 -0.3596 -0.5186
 8860TIP3   OH247994   4.371   4.055  16.440 -0.4542  0.3638  0.4404
 8860TIP3    H147995   4.398   4.147  16.430 -0.5080  0.2277 -1.2676
 8860TIP3    H247996   4.447   4.005  16.410 -0.2259 -0.1820  1.8739
 8861TIP3   OH247997   5.200   5.524  16.116 -0.1737 -0.1339  0.0219
 8861TIP3    H147998   5.145   5.561  16.046  0.1485 -0.6027 -0.4860
 8861TIP3    H247999   5.264   5.592  16.134 -2.0925  1.2818  2.0452
 8862TIP3   OH248000   6.284   1.972   3.627 -0.6383 -0.2436 -0.3731
 8862TIP3    H148001   6.320   1.968   3.538 -1.4618 -3.2854 -0.6659
 8862TIP3    H248002   6.223   2.046   3.624 -2.1664 -1.4719 -3.0026
 8863TIP3   OH248003   0.508   2.140   4.503 -0.9364  0.1438 -0.2406
 8863TIP3    H148004   0.564   2.097   4.568 -1.9968 -2.8319 -1.1315
 8863TIP3    H248005   0.549   2.121   4.419 -0.1339  3.0970 -0.6221
 8864TIP3   OH248006   2.383   4.348   2.766  0.3577 -0.4494  0.5936
 8864TIP3    H148007   2.402   4.302   2.848  1.7324  0.4563  0.8133
 8864TIP3    H248008   2.427   4.296   2.699 -0.4470 -0.9791  0.4629
 8865TIP3   OH248009   5.131   4.174  16.068 -0.1302  0.1710  0.2706
 8865TIP3    H148010   5.184   4.196  15.992  0.6460 -0.7560  0.5138
 8865TIP3    H248011   5.182   4.205  16.143 -0.3994  0.1660  0.4580
 8866TIP3   OH248012   2.689   2.268   3.941 -0.3939 -0.5945 -0.3238
 8866TIP3    H148013   2.712   2.332   3.874 -0.0090  0.4550  0.7707
 8866TIP3    H248014   2.773   2.233   3.971 -0.6053 -1.7620 -1.0214
 8867TIP3   OH248015   2.547   4.712  14.155  0.0449 -0.2632 -0.1547
 8867TIP3    H148016   2.545   4.802  14.187  0.7906 -0.1473 -0.4051
 8867TIP3    H248017   2.471   4.706  14.096 -0.2616  0.0662  0.2036
 8868TIP3   OH248018   1.274   6.422  13.982 -0.4038 -0.7719  0.1477
 8868TIP3    H148019   1.305   6.419  14.072 -0.4899  0.9806  0.2868
 8868TIP3    H248020   1.288   6.334  13.948  1.4167 -0.9653  1.2857
 8869TIP3   OH248021   3.205   1.756   1.830 -0.4646  0.5055 -0.5406
 8869TIP3    H148022   3.219   1.702   1.908 -0.7082  0.3122 -0.6311
 8869TIP3    H248023   3.155   1.701   1.771 -1.6646  1.1871 -0.2049
 8870TIP3   OH248024   2.940   1.177  16.710 -0.3111  0.4716 -0.2161
 8870TIP3    H148025   2.945   1.085  16.685  0.9288 -0.4651  2.9394
 8870TIP3    H248026   2.876   1.179  16.782  0.6740  1.7769  0.6831
 8871TIP3   OH248027   3.447   2.760   0.973  0.6344  0.1268  0.5316
 8871TIP3    H148028   3.480   2.850   0.976 -0.5582  0.5541  1.1454
 8871TIP3    H248029   3.527   2.706   0.968  1.3525  1.2470 -1.7568
 8872TIP3   OH248030   6.596   2.084   2.144 -1.0555 -0.6960 -1.0089
 8872TIP3    H148031   6.522   2.077   2.085 -0.9261  0.7658 -1.3986
 8872TIP3    H248032   6.627   2.174   2.132 -0.1543 -0.8141  0.2494
 8873TIP3   OH248033   0.696   2.900  15.901  0.1741 -0.3277  0.3467
 8873TIP3    H148034   0.644   2.827  15.936 -0.4120  0.5461  1.3818
 8873TIP3    H248035   0.662   2.913  15.813 -1.6674  0.4423  1.1113
 8874TIP3   OH248036   0.645   0.313   5.047  0.3615 -0.0939 -0.1132
 8874TIP3    H148037   0.557   0.333   5.016  0.4474 -0.8101 -0.8587
 8874TIP3    H248038   0.641   0.328   5.141 -1.1808 -2.2152  0.2237
 8875TIP3   OH248039   5.310   2.249   0.985  0.1162 -0.2623  0.2105
 8875TIP3    H148040   5.359   2.173   1.014  1.2776  0.4048  0.0274
 8875TIP3    H248041   5.292   2.232   0.892  2.3168  0.6564 -0.4341
 8876TIP3   OH248042   2.562   3.703  13.997 -0.4881 -0.2149 -0.6892
 8876TIP3    H148043   2.517   3.774  14.043 -1.0072 -0.3154 -1.0271
 8876TIP3    H248044   2.525   3.623  14.034 -1.3876 -0.3020 -1.6963
 8877TIP3   OH248045   4.588   4.396  14.018 -0.1063  0.1681  0.1368
 8877TIP3    H148046   4.682   4.388  14.029 -0.1852 -1.1691  0.0765
 8877TIP3    H248047   4.563   4.471  14.071  0.9968  0.5802  0.0892
 8878TIP3   OH248048   3.688   5.638   3.308  0.0229  0.1734  0.4864
 8878TIP3    H148049   3.706   5.576   3.237 -1.4878  2.7713 -2.3631
 8878TIP3    H248050   3.674   5.582   3.385  2.5717 -2.7614 -0.9411
 8879TIP3   OH248051   4.613   4.079  15.494  0.1467  0.2156  0.2759
 8879TIP3    H148052   4.626   4.000  15.547  2.1318  0.2848 -0.0056
 8879TIP3    H248053   4.701   4.101  15.464 -0.6198  1.5262 -1.1234
 8880TIP3   OH248054   6.038   6.207  15.552 -0.6556 -0.2136  0.1425
 8880TIP3    H148055   6.061   6.288  15.506  0.5792 -0.3240  0.5240
 8880TIP3    H248056   6.059   6.225  15.643 -1.5851 -0.5473  0.4332
 8881TIP3   OH248057   5.173   0.701  16.752 -0.0666  0.4047  0.4081
 8881TIP3    H148058   5.177   0.731  16.843 -0.5204  2.2274 -0.1412
 8881TIP3    H248059   5.080   0.690  16.734 -0.1532  2.3906 -0.5325
 8882TIP3   OH248060   6.706   6.285   5.230 -0.1193 -0.0325  0.1948
 8882TIP3    H148061   6.672   6.211   5.180 -0.7780  0.4869 -0.1462
 8882TIP3    H248062   6.635   6.309   5.290  0.9657 -1.1834  2.0215
 8883TIP3   OH248063   3.164   3.996  15.357 -0.5162  0.0984 -0.0078
 8883TIP3    H148064   3.071   4.012  15.343 -0.1342  1.4108 -1.1988
 8883TIP3    H248065   3.174   3.902  15.340 -1.7592 -0.2576  1.0434
 8884TIP3   OH248066   5.546   4.286   0.895 -0.0708 -0.1095  0.0825
 8884TIP3    H148067   5.513   4.354   0.954 -1.1641 -0.9217  0.4462
 8884TIP3    H248068   5.525   4.317   0.807 -0.7780 -0.0732  0.2574
 8885TIP3   OH248069   0.951   5.733   4.331 -0.2415 -0.0670 -0.2578
 8885TIP3    H148070   0.936   5.661   4.270  0.8016 -1.2640  0.8420
 8885TIP3    H248071   0.875   5.731   4.390 -0.1087 -0.3973 -0.1004
 8886TIP3   OH248072   4.696   5.048  16.274 -0.1306  0.1734  0.2896
 8886TIP3    H148073   4.782   5.038  16.314 -0.2463 -0.9900  0.2998
 8886TIP3    H248074   4.713   5.048  16.180  0.0223  1.6144  0.3036
 8887TIP3   OH248075   6.109   5.308  13.230 -0.0970  0.5316 -0.2549
 8887TIP3    H148076   6.079   5.219  13.212 -0.5378  0.6243  0.0091
 8887TIP3    H248077   6.034   5.363  13.209 -0.5109  0.6759  1.4429
 8888TIP3   OH248078   2.950   5.403   4.507  0.5997 -0.1315  0.3281
 8888TIP3    H148079   3.012   5.332   4.525 -2.0117 -2.3433  1.3808
 8888TIP3    H248080   2.873   5.381   4.560 -0.7094  3.0497 -0.0237
 8889TIP3   OH248081   6.072   0.738  15.332  0.1123 -0.1833  0.2750
 8889TIP3    H148082   6.140   0.680  15.366 -0.3918  0.1146  1.9182
 8889TIP3    H248083   6.000   0.680  15.307  0.6333 -0.4364 -0.6812
 8890TIP3   OH248084   5.401   4.532  15.239  0.2690  0.2232  0.0619
 8890TIP3    H148085   5.393   4.595  15.167  0.6277 -0.6130 -0.7278
 8890TIP3    H248086   5.495   4.511  15.242  0.0933 -0.5813  0.0523
 8891TIP3   OH248087   0.520   2.657   0.232 -0.8359  0.3131  0.4823
 8891TIP3    H148088   0.557   2.722   0.173  1.5688 -1.5231 -0.1751
 8891TIP3    H248089   0.428   2.681   0.240 -0.4185  2.7293 -1.1032
 8892TIP3   OH248090   3.419   3.535   1.640  0.0400 -0.3929  0.3424
 8892TIP3    H148091   3.487   3.495   1.585 -0.3256 -0.9988  0.3122
 8892TIP3    H248092   3.461   3.611   1.679  0.3712 -0.0521 -0.6327
 8893TIP3   OH248093   1.149   1.551  17.075 -0.2265 -0.4631 -0.3907
 8893TIP3    H148094   1.077   1.585  17.129 -0.1218 -2.5031  1.1732
 8893TIP3    H248095   1.131   1.584  16.987 -0.1767  3.3564  0.8836
 8894TIP3   OH248096   0.319   3.936   3.776 -0.0001  0.5175  0.1608
 8894TIP3    H148097   0.309   3.962   3.868 -0.6207 -0.6538  0.4460
 8894TIP3    H248098   0.314   4.018   3.727 -0.5748  1.0625  1.1082
 8895TIP3   OH248099   5.454   4.802  10.824  0.2866 -0.1887 -0.2475
 8895TIP3    H148100   5.547   4.782  10.834  0.0910 -2.3277 -1.8656
 8895TIP3    H248101   5.409   4.733  10.872 -0.5193  1.1519  1.0071
 8896TIP3   OH248102   6.779   2.238   5.476  0.0483  0.0031 -0.0903
 8896TIP3    H148103   6.786   2.328   5.509 -0.1159  0.5195 -1.4138
 8896TIP3    H248104   6.865   2.200   5.491  0.6169  0.8967 -0.9417
 8897TIP3   OH248105   5.317   6.478   4.737  0.7185 -0.3229 -0.0465
 8897TIP3    H148106   5.336   6.491   4.644 -0.5472  0.4063 -0.2369
 8897TIP3    H248107   5.334   6.385   4.753  1.6608 -0.2936 -0.8155
 8898TIP3   OH248108   6.056   2.461  15.558  0.3308 -0.0142 -0.4735
 8898TIP3    H148109   5.978   2.421  15.521  1.0066 -1.4596 -0.4073
 8898TIP3    H248110   6.029   2.550  15.582 -1.0134 -0.1704 -1.3254
 8899TIP3   OH248111   0.361   3.630  13.966 -0.2753  0.0612  0.4430
 8899TIP3    H148112   0.278   3.641  13.919 -0.6930  0.3923  1.2496
 8899TIP3    H248113   0.393   3.719  13.980 -0.5404  0.0066  1.4564
 8900TIP3   OH248114   2.908   3.250   2.431 -0.3141  0.2269 -0.4368
 8900TIP3    H148115   2.814   3.261   2.417 -0.2992 -0.0787 -0.7935
 8900TIP3    H248116   2.940   3.339   2.449 -0.4690  0.5307 -1.5887
 8901TIP3   OH248117   2.266   1.924   3.172 -0.1571 -0.2794 -0.0756
 8901TIP3    H148118   2.240   1.862   3.104 -0.1825  0.4144 -0.7039
 8901TIP3    H248119   2.212   2.001   3.156  1.5380  0.8162 -0.7639
 8902TIP3   OH248120   1.021   3.237  13.151 -0.0295  0.6370  0.4365
 8902TIP3    H148121   1.077   3.311  13.175  0.5642  0.2212  0.3507
 8902TIP3    H248122   0.968   3.221  13.230  1.1104  0.0047  1.0935
 8903TIP3   OH248123   6.730   0.294   1.033  0.5740 -0.5691 -0.1335
 8903TIP3    H148124   6.752   0.364   0.972 -1.0833  1.1182  1.0972
 8903TIP3    H248125   6.774   0.317   1.115  0.3770 -1.2038  0.1598
 8904TIP3   OH248126   5.808   5.629   2.879  0.1612  0.6539  0.3174
 8904TIP3    H148127   5.869   5.555   2.868  0.3005  0.6709  0.9621
 8904TIP3    H248128   5.721   5.589   2.875  0.2402  0.3833  1.1201
 8905TIP3   OH248129   3.791   2.823   5.885  0.9221  0.3915 -0.3878
 8905TIP3    H148130   3.852   2.895   5.897 -1.8501  2.5732  2.3995
 8905TIP3    H248131   3.745   2.816   5.969 -0.5548 -3.1355 -1.3020
 8906TIP3   OH248132   6.108   0.582  11.786 -0.8388  0.1888  0.0821
 8906TIP3    H148133   6.071   0.506  11.740 -1.3002 -0.7292  1.8841
 8906TIP3    H248134   6.195   0.593  11.747 -0.5252 -1.6279  0.1558
 8907TIP3   OH248135   2.358   2.454  13.070 -0.2574 -0.1537 -0.2366
 8907TIP3    H148136   2.449   2.464  13.095 -0.0463  0.4994 -1.2119
 8907TIP3    H248137   2.318   2.408  13.143  1.1020 -1.5144 -0.3102
 8908TIP3   OH248138   0.378   1.004  15.218  0.6704  0.0330  0.5884
 8908TIP3    H148139   0.319   1.045  15.281  2.0850  2.5300  0.4136
 8908TIP3    H248140   0.326   0.997  15.137 -0.4537 -1.1811  1.3626
 8909TIP3   OH248141   0.866   3.755  12.170 -0.2307  0.0490 -0.1159
 8909TIP3    H148142   0.802   3.802  12.117  0.0651 -0.0675 -0.5771
 8909TIP3    H248143   0.813   3.698  12.226 -0.5162 -0.4961 -0.9170
 8910TIP3   OH248144   5.628   4.309  12.419 -0.2767  0.6104  0.0376
 8910TIP3    H148145   5.698   4.247  12.440 -1.5179 -0.1999  2.1359
 8910TIP3    H248146   5.668   4.395  12.428  0.9247  0.1584 -0.7370
 8911TIP3   OH248147   2.720   0.598   3.344  0.1922 -0.1978 -0.1569
 8911TIP3    H148148   2.741   0.570   3.433 -0.7207  0.4251  0.2762
 8911TIP3    H248149   2.782   0.668   3.325 -0.6019  0.7549  0.6185
 8912TIP3   OH248150   5.436   1.663  12.803  0.3882 -0.0765 -0.2981
 8912TIP3    H148151   5.499   1.708  12.746  0.8215  0.4290  0.5618
 8912TIP3    H248152   5.435   1.573  12.771  2.9509 -0.5839  0.7660
 8913TIP3   OH248153   1.700   2.073  11.531  0.7657 -0.2722  0.1449
 8913TIP3    H148154   1.763   2.058  11.601 -1.1078  2.1667  2.5745
 8913TIP3    H248155   1.729   2.154  11.489  0.0621  0.0726  0.3089
 8914TIP3   OH248156   1.364   2.172   5.671 -0.2349  0.1446  0.0781
 8914TIP3    H148157   1.422   2.227   5.617 -0.8008  0.7798  0.1055
 8914TIP3    H248158   1.305   2.130   5.609 -0.9532  0.9550  0.1895
 8915TIP3   OH248159   4.746   2.209   1.326 -0.4916 -0.3761  0.6101
 8915TIP3    H148160   4.708   2.222   1.413 -1.0452 -0.8451  0.4453
 8915TIP3    H248161   4.769   2.116   1.324 -0.8350 -0.4526  0.1171
 8916TIP3   OH248162   4.170   4.736  15.501 -0.0978  0.5792  0.3162
 8916TIP3    H148163   4.075   4.726  15.495 -0.0131 -0.3259  0.2131
 8916TIP3    H248164   4.197   4.664  15.558  0.6229  0.2501 -0.4243
 8917TIP3   OH248165   6.571   2.227  16.453  0.1087 -0.1123 -0.3161
 8917TIP3    H148166   6.624   2.148  16.449  1.1970  0.5077  1.0793
 8917TIP3    H248167   6.571   2.251  16.545  0.3626  1.8651 -0.7860
 8918TIP3   OH248168   2.531   3.072  15.975  0.3370 -0.0322 -0.7341
 8918TIP3    H148169   2.501   3.079  15.884  0.8390 -0.4269 -0.9402
 8918TIP3    H248170   2.551   2.979  15.986 -1.7254 -0.3799  0.4441
 8919TIP3   OH248171   1.843   5.644   1.177  0.1816 -0.1292  0.3307
 8919TIP3    H148172   1.885   5.558   1.185  0.3853 -0.1323 -0.7255
 8919TIP3    H248173   1.916   5.706   1.180  0.1209 -0.0472  0.0617
 8920TIP3   OH248174   0.447   6.182  15.127  0.0857  0.2629  0.4400
 8920TIP3    H148175   0.358   6.213  15.146 -0.3146 -0.4674 -0.1965
 8920TIP3    H248176   0.497   6.262  15.112 -0.3524  0.7015  1.2707
 8921TIP3   OH248177   1.830   6.271  11.739 -0.3953 -0.3284 -0.1391
 8921TIP3    H148178   1.775   6.193  11.737 -2.8994  1.3307 -0.1459
 8921TIP3    H248179   1.769   6.344  11.753  1.9612  1.5116  1.5668
 8922TIP3   OH248180   4.506   2.405   4.140 -0.2031  0.3936 -0.2826
 8922TIP3    H148181   4.531   2.420   4.231 -0.0281  0.8911 -0.4131
 8922TIP3    H248182   4.429   2.349   4.146  1.3030 -1.7915  0.1248
 8923TIP3   OH248183   0.422   5.388  13.023 -0.2438  0.0961  0.0900
 8923TIP3    H148184   0.412   5.460  13.084  1.5112  0.6699 -0.2496
 8923TIP3    H248185   0.386   5.312  13.069  1.0402  0.5032  1.8645
 8924TIP3   OH248186   5.127   1.993   5.066 -0.4140  0.1969  0.1252
 8924TIP3    H148187   5.092   1.926   5.124  2.0864 -1.6861 -0.3569
 8924TIP3    H248188   5.062   2.003   4.997 -0.4501 -2.5735 -0.3513
 8925TIP3   OH248189   0.422   5.327   5.639 -0.0964  0.0858 -0.1019
 8925TIP3    H148190   0.400   5.278   5.560  1.6893 -0.0335 -0.5700
 8925TIP3    H248191   0.506   5.369   5.618  0.8506 -0.6523  2.0297
 8926TIP3   OH248192   2.207   6.045  16.733  0.0621 -0.0213  0.0572
 8926TIP3    H148193   2.218   5.976  16.667 -1.8397  0.6950 -1.0827
 8926TIP3    H248194   2.146   6.007  16.796  1.7945 -0.6661  1.4486
 8927TIP3   OH248195   6.498   2.409   4.007  0.4323 -0.3995 -0.1596
 8927TIP3    H148196   6.413   2.401   4.051 -0.4687 -1.7178 -1.9745
 8927TIP3    H248197   6.546   2.330   4.034  0.5791 -0.3051 -0.1446
 8928TIP3   OH248198   2.098   5.793   4.370  0.5193 -0.3927 -0.1446
 8928TIP3    H148199   2.031   5.827   4.430  0.6223  2.6107 -1.5373
 8928TIP3    H248200   2.174   5.778   4.425  0.1856  0.9580  0.7428
 8929TIP3   OH248201   5.055   5.201  14.652  0.2075 -0.1920  0.0526
 8929TIP3    H148202   5.018   5.274  14.602 -0.6993  0.5825  1.7563
 8929TIP3    H248203   5.112   5.243  14.717 -0.4964 -0.9490  1.2078
 8930TIP3   OH248204   3.783   4.969   6.485 -0.0123 -0.0670  0.4982
 8930TIP3    H148205   3.747   4.881   6.478 -0.0491 -0.1508  1.5434
 8930TIP3    H248206   3.874   4.959   6.457 -0.0980 -0.3802  0.3232
 8931TIP3   OH248207   5.379   2.257  14.450 -1.3836 -0.0763 -0.0812
 8931TIP3    H148208   5.339   2.244  14.536 -2.0641 -0.6440 -0.4669
 8931TIP3    H248209   5.324   2.205  14.390 -0.5427 -0.2192 -0.7538
 8932TIP3   OH248210   3.968   2.639   1.863 -0.3485 -0.5898  0.2883
 8932TIP3    H148211   4.039   2.702   1.848 -1.5145  0.7145  0.1002
 8932TIP3    H248212   4.008   2.554   1.845  1.7124 -0.0939  1.9906
 8933TIP3   OH248213   5.642   2.772  10.595  0.0136 -0.2144  0.0892
 8933TIP3    H148214   5.621   2.866  10.597 -1.4249 -0.5455  0.9579
 8933TIP3    H248215   5.722   2.768  10.542  0.5453  1.5834  0.6812
 8934TIP3   OH248216   3.577   1.214   4.253  0.7433 -0.5096  0.2994
 8934TIP3    H148217   3.579   1.210   4.348  0.1839 -0.6559  0.3090
 8934TIP3    H248218   3.512   1.148   4.228  1.2312 -0.8091 -0.2060
 8935TIP3   OH248219   0.600   3.334  14.062 -0.1160  0.6295 -0.0425
 8935TIP3    H148220   0.610   3.287  14.145 -1.1882 -0.2150 -0.3744
 8935TIP3    H248221   0.543   3.278  14.009  2.4412 -0.0695 -2.2937
 8936TIP3   OH248222   1.456   3.148  12.159 -0.3203  0.4746 -0.3761
 8936TIP3    H148223   1.469   3.109  12.245  0.6634  1.8581  0.1293
 8936TIP3    H248224   1.427   3.075  12.104 -1.7414 -0.2891  1.2794
 8937TIP3   OH248225   3.282   5.035  11.523 -0.2078  0.7670 -0.4939
 8937TIP3    H148226   3.366   5.075  11.501  1.6521 -0.8425  2.9413
 8937TIP3    H248227   3.289   4.944  11.493 -1.5201  1.0395 -1.7664
 8938TIP3   OH248228   2.355   1.480  15.914  0.4361  0.2517 -0.2909
 8938TIP3    H148229   2.332   1.508  16.003 -4.4812  1.1813 -1.5360
 8938TIP3    H248230   2.392   1.558  15.873 -1.4941  1.2558 -0.2260
 8939TIP3   OH248231   1.582   6.114   1.254 -0.6192  0.3274 -0.2721
 8939TIP3    H148232   1.640   6.191   1.254  0.7598 -0.6692 -0.5647
 8939TIP3    H248233   1.525   6.128   1.178  2.1756 -0.6937 -2.7760
 8940TIP3   OH248234   0.993   3.799   3.504  0.4063 -0.1216  0.1739
 8940TIP3    H148235   0.959   3.711   3.488  0.7559 -0.2583  0.1693
 8940TIP3    H248236   1.032   3.795   3.591 -1.3704  0.5887  1.0658
 8941TIP3   OH248237   5.708   2.873   1.094 -0.1332  0.2237 -0.6678
 8941TIP3    H148238   5.782   2.910   1.141  0.8394 -0.7773 -1.3609
 8941TIP3    H248239   5.740   2.789   1.061 -0.9412  0.6323 -2.6319
 8942TIP3   OH248240   0.565   3.375  17.188  0.0885  0.6837  0.0028
 8942TIP3    H148241   0.644   3.407  17.232  1.0720 -1.8946  0.2936
 8942TIP3    H248242   0.596   3.344  17.103 -1.2522  2.6787 -1.2794
 8943TIP3   OH248243   2.006   1.805  15.532 -0.7074  0.3279 -0.0024
 8943TIP3    H148244   2.099   1.824  15.546 -1.1394  2.5558  0.1906
 8943TIP3    H248245   2.006   1.732  15.471  1.1861  1.6770 -1.7587
 8944TIP3   OH248246   1.020   1.926   4.232 -0.0729 -0.1972  0.1955
 8944TIP3    H148247   1.040   1.923   4.325  0.0498  0.9216  0.2133
 8944TIP3    H248248   0.929   1.958   4.228  0.1615  0.4454 -0.0888
 8945TIP3   OH248249   6.013   2.979  14.335  0.3092  0.2636 -0.3889
 8945TIP3    H148250   6.107   2.990  14.325  0.1822  0.0011 -2.0119
 8945TIP3    H248251   6.005   2.898  14.386  0.9563 -0.0435 -0.7556
 8946TIP3   OH248252   5.293   0.203   2.862  0.0833 -0.2001 -0.1307
 8946TIP3    H148253   5.219   0.149   2.836  1.0700 -1.9455  0.4528
 8946TIP3    H248254   5.353   0.200   2.788  0.8980 -1.4027  0.5376
 8947TIP3   OH248255   1.167   1.825  15.815 -0.2421  0.4316  0.4474
 8947TIP3    H148256   1.094   1.868  15.771 -1.1014 -2.1693 -0.8288
 8947TIP3    H248257   1.220   1.787  15.745 -0.2578 -1.6688  1.4821
 8948TIP3   OH248258   2.737   5.021  12.269 -0.1814  0.1779  0.3168
 8948TIP3    H148259   2.786   5.020  12.187  1.0275 -0.2972  1.0135
 8948TIP3    H248260   2.787   5.079  12.326 -1.4776  1.1967  0.4605
 8949TIP3   OH248261   3.011   6.542  10.865  0.0414 -0.5531 -0.0854
 8949TIP3    H148262   2.979   6.487  10.793 -0.4178 -0.5227  0.0946
 8949TIP3    H248263   2.932   6.574  10.908  0.2934 -1.3825  1.0545
 8950TIP3   OH248264   3.970   1.817   0.415  0.4860 -0.3839 -0.0580
 8950TIP3    H148265   3.977   1.735   0.463  0.6927  0.1528  0.8615
 8950TIP3    H248266   4.058   1.854   0.418 -0.0382  0.8781  1.4316
 8951TIP3   OH248267   0.683   6.485  16.714  0.5747  0.2961 -0.0264
 8951TIP3    H148268   0.738   6.411  16.738  0.2969 -0.0791 -0.5366
 8951TIP3    H248269   0.643   6.513  16.796  0.8871  0.0520  0.2110
 8952TIP3   OH248270   2.189   6.311   3.895 -0.1527  0.9636 -0.4429
 8952TIP3    H148271   2.111   6.361   3.872  0.1424  1.3170 -0.6963
 8952TIP3    H248272   2.183   6.298   3.989 -2.5758 -2.5200 -0.9043
 8953TIP3   OH248273   1.942   2.430  10.915 -0.0019 -0.2939 -0.1107
 8953TIP3    H148274   2.006   2.496  10.942  0.7379 -1.1252  0.2334
 8953TIP3    H248275   1.857   2.473  10.924  0.3467  0.1037  1.6743
 8954TIP3   OH248276   6.253   2.764  16.345  0.1518  0.3212 -0.2221
 8954TIP3    H148277   6.249   2.676  16.383 -2.5048 -0.0705 -1.1860
 8954TIP3    H248278   6.194   2.760  16.270  0.6616  2.7081 -0.8325
 8955TIP3   OH248279   2.103   1.237   0.075 -0.5436  0.3576  0.2587
 8955TIP3    H148280   2.017   1.279   0.076 -0.8074 -0.1819  1.0625
 8955TIP3    H248281   2.131   1.238   0.166 -0.3270 -0.7546  0.2121
 8956TIP3   OH248282   2.046   5.205   0.332  0.2917  0.1578 -0.0362
 8956TIP3    H148283   2.076   5.291   0.302  0.5644  0.1775  0.2863
 8956TIP3    H248284   2.126   5.156   0.347  0.1256 -0.6055 -1.4915
 8957TIP3   OH248285   6.422   3.626   5.005  0.3293  0.3431 -0.5586
 8957TIP3    H148286   6.516   3.640   4.999  0.2173  1.5158  0.2404
 8957TIP3    H248287   6.384   3.713   5.002 -0.8289 -0.1718 -2.0966
 8958TIP3   OH248288   4.089   1.249   4.046  0.4261 -0.0956  0.0708
 8958TIP3    H148289   4.022   1.296   3.996  1.5995  0.7064 -0.7837
 8958TIP3    H248290   4.113   1.175   3.991 -1.3806 -1.7798  1.3895
 8959TIP3   OH248291   6.650   1.184   5.516  0.7011  0.3149 -0.4974
 8959TIP3    H148292   6.608   1.132   5.584  0.9366 -1.0829 -1.3779
 8959TIP3    H248293   6.578   1.217   5.462  0.6080 -0.2318 -0.7141
 8960TIP3   OH248294   5.271   1.194  16.063 -0.8348 -0.0048 -0.4669
 8960TIP3    H148295   5.204   1.126  16.067 -1.6445  0.8106  0.2777
 8960TIP3    H248296   5.227   1.269  16.023 -0.1157  0.2746 -0.7545
 8961TIP3   OH248297   1.054   3.992   0.179  0.1789 -0.1424  0.0987
 8961TIP3    H148298   1.031   4.009   0.270 -1.7909 -1.2667 -0.1477
 8961TIP3    H248299   0.995   4.048   0.128  0.2843 -0.5664 -0.5059
 8962TIP3   OH248300   2.388   1.986   4.535 -0.0801  0.5608 -0.2044
 8962TIP3    H148301   2.392   1.988   4.440  1.3604 -1.4726 -0.2476
 8962TIP3    H248302   2.477   1.962   4.562 -0.6994  0.1591  1.6065
 8963TIP3   OH248303   0.194   4.373   1.146 -0.2897 -0.0530 -0.0419
 8963TIP3    H148304   0.113   4.336   1.111 -0.1906 -1.5989  1.2689
 8963TIP3    H248305   0.170   4.407   1.232  0.6814 -1.6915  0.9229
 8964TIP3   OH248306   6.776   0.012   5.872  0.3159 -1.0579 -0.0678
 8964TIP3    H148307   6.822  -0.064   5.838 -0.5362 -2.2730  1.4043
 8964TIP3    H248308   6.808   0.022   5.961 -1.6313 -1.4359  0.7221
 8965TIP3   OH248309   5.745   0.994   3.954  0.5244 -0.2286  0.8018
 8965TIP3    H148310   5.752   1.009   4.049 -0.4428 -1.6055  1.1150
 8965TIP3    H248311   5.659   1.029   3.931  1.4532  1.7293  0.0506
 8966TIP3   OH248312   4.356   0.690  13.201  0.6366 -0.0608  0.4608
 8966TIP3    H148313   4.302   0.727  13.132  0.3742  0.2027  0.8045
 8966TIP3    H248314   4.379   0.603  13.170 -0.3346 -0.3358  0.5009
 8967TIP3   OH248315   2.565   5.021   0.457  0.4342  0.1258  0.3771
 8967TIP3    H148316   2.579   4.926   0.462 -1.9198 -0.2922 -0.1340
 8967TIP3    H248317   2.581   5.052   0.547 -0.6014 -1.0587  1.0069
 8968TIP3   OH248318   3.753   4.760   1.750  0.4124  0.4398  0.8312
 8968TIP3    H148319   3.847   4.765   1.768  0.2506 -0.8859  2.2860
 8968TIP3    H248320   3.719   4.701   1.817 -1.3651  0.3726 -0.0691
 8969TIP3   OH248321   1.451   0.236   2.391 -0.2476  0.4655 -0.5218
 8969TIP3    H148322   1.461   0.141   2.382  2.0880  0.5942 -0.0491
 8969TIP3    H248323   1.503   0.258   2.468  0.5288  2.2947 -1.5022
 8970TIP3   OH248324   2.550   1.688  14.436  0.2198 -0.4372  0.1565
 8970TIP3    H148325   2.463   1.658  14.464 -0.2359  0.3170 -0.4250
 8970TIP3    H248326   2.534   1.738  14.356  1.1733 -0.1607  0.1270
 8971TIP3   OH248327   5.698   5.458   0.427 -0.1046  0.0576 -0.1895
 8971TIP3    H148328   5.637   5.418   0.365 -0.3702 -0.5573  0.4522
 8971TIP3    H248329   5.668   5.548   0.435  1.2191  0.7929 -2.5624
 8972TIP3   OH248330   3.486   3.421  10.752 -0.1682  0.5817  0.3285
 8972TIP3    H148331   3.572   3.438  10.789 -0.2775  0.9617  0.4125
 8972TIP3    H248332   3.480   3.326  10.746 -0.5130  0.4618  2.1742
 8973TIP3   OH248333   5.139   1.185   5.896  0.1676  0.7347  0.9598
 8973TIP3    H148334   5.100   1.142   5.972  1.5845  0.7428  1.7223
 8973TIP3    H248335   5.225   1.214   5.926  0.9844  0.2905 -0.7870
 8974TIP3   OH248336   5.430   0.233  13.304  0.6882  0.1923 -0.0670
 8974TIP3    H148337   5.430   0.259  13.212  1.7025  0.7728  0.0783
 8974TIP3    H248338   5.481   0.301  13.348  2.8118 -1.5970  0.4492
 8975TIP3   OH248339   0.194   6.065  12.789  0.1269 -0.0692 -0.0386
 8975TIP3    H148340   0.287   6.039  12.788  0.1218 -0.1757  0.9474
 8975TIP3    H248341   0.185   6.116  12.870 -0.4260  0.8929 -0.7022
 8976TIP3   OH248342   0.496   0.508   0.869 -0.2852 -0.3722  0.2373
 8976TIP3    H148343   0.431   0.544   0.809  0.3822 -1.4711 -1.1931
 8976TIP3    H248344   0.447   0.445   0.922 -0.4638 -0.9718 -0.6245
 8977TIP3   OH248345   0.264   4.966  14.721 -0.4237  0.2916  0.2028
 8977TIP3    H148346   0.226   4.934  14.803 -1.0799  1.6397  0.4544
 8977TIP3    H248347   0.350   5.002  14.747  0.7803 -2.0844 -0.2456
 8978TIP3   OH248348   3.651   5.984  16.063 -0.1303 -0.4532 -0.2354
 8978TIP3    H148349   3.602   5.919  16.013 -1.3011 -1.3168  1.8759
 8978TIP3    H248350   3.739   5.948  16.069 -0.3743 -1.0987 -0.3872
 8979TIP3   OH248351   3.846   4.274  11.394 -0.2847 -0.1227 -0.5040
 8979TIP3    H148352   3.753   4.299  11.395 -0.0898  0.7325 -1.4045
 8979TIP3    H248353   3.891   4.351  11.358  0.4722 -1.3978 -2.4712
 8980TIP3   OH248354   4.009   5.366  15.207  0.2035 -0.0445 -0.5990
 8980TIP3    H148355   4.012   5.398  15.298 -1.2813 -1.4492  0.0022
 8980TIP3    H248356   4.015   5.445  15.154 -0.4997  0.9772  0.7603
 8981TIP3   OH248357   3.050   2.802  12.966 -0.3652 -0.4374  0.0824
 8981TIP3    H148358   2.982   2.820  13.031 -0.7077 -0.5236 -0.2479
 8981TIP3    H248359   3.080   2.889  12.940 -2.5374 -0.2160 -2.0507
 8982TIP3   OH248360   2.603   4.660  12.137 -0.6864  0.2138 -0.5761
 8982TIP3    H148361   2.691   4.668  12.099 -0.0526  1.1993  1.0243
 8982TIP3    H248362   2.572   4.750  12.145 -1.7070 -0.1054 -0.7610
 8983TIP3   OH248363   6.513   3.661  15.334 -1.0705  0.3577 -0.2819
 8983TIP3    H148364   6.508   3.688  15.426 -1.9855 -0.5719 -0.0382
 8983TIP3    H248365   6.528   3.742  15.286  4.6422  0.4455  0.9917
 8984TIP3   OH248366   2.513   4.967  13.263  0.1508  0.0837  0.5561
 8984TIP3    H148367   2.560   4.969  13.180  1.0948 -1.5613  1.0078
 8984TIP3    H248368   2.444   4.901  13.250 -0.3916  0.6125  0.7301
 8985TIP3   OH248369   1.961   6.302  16.331 -0.2287  0.1651  0.1074
 8985TIP3    H148370   1.970   6.210  16.305  1.5621  0.0510  0.9374
 8985TIP3    H248371   2.037   6.345  16.292 -0.1595  0.9558  1.0684
 8986TIP3   OH248372   6.752   5.591   6.798  0.0051 -0.7304 -0.7664
 8986TIP3    H148373   6.798   5.537   6.862  0.1134  0.8235  0.5172
 8986TIP3    H248374   6.669   5.613   6.840 -0.7920 -1.3017 -1.9842
 8987TIP3   OH248375   3.856   0.271  16.486 -0.0278  0.1409  0.4255
 8987TIP3    H148376   3.776   0.287  16.537 -1.1819 -2.4710 -0.3747
 8987TIP3    H248377   3.925   0.265  16.552 -1.0871 -0.7818  1.5151
 8988TIP3   OH248378   6.137   6.199   0.717 -0.0564  0.2517  0.1461
 8988TIP3    H148379   6.180   6.282   0.698  0.5100 -0.4834 -2.1806
 8988TIP3    H248380   6.202   6.133   0.694 -0.2949 -0.8725  2.4747
 8989TIP3   OH248381   3.203   1.763  16.196  0.5845  0.2899  0.0109
 8989TIP3    H148382   3.173   1.798  16.280  0.8735  0.9105 -0.1361
 8989TIP3    H248383   3.298   1.774  16.198  0.7240 -0.8531  0.1130
 8990TIP3   OH248384   3.789   5.435  13.885 -0.0752  0.1892 -0.2024
 8990TIP3    H148385   3.836   5.458  13.965 -2.2853 -2.2845  2.0406
 8990TIP3    H248386   3.743   5.515  13.859 -1.4352  0.4793  2.6935
 8991TIP3   OH248387   5.520   1.460   0.340 -0.3408 -0.1271 -0.7764
 8991TIP3    H148388   5.559   1.526   0.397 -2.4896  1.3960 -0.9593
 8991TIP3    H248389   5.580   1.453   0.266  0.2591  1.1409 -0.4342
 8992TIP3   OH248390   2.695   6.274  16.324  0.2446 -0.0324 -0.3010
 8992TIP3    H148391   2.692   6.208  16.394 -0.3946 -1.5244 -1.6748
 8992TIP3    H248392   2.753   6.237  16.258  1.6006  1.7841 -0.2115
 8993TIP3   OH248393   2.830   5.107   1.735 -0.2247  0.4249 -0.0567
 8993TIP3    H148394   2.768   5.089   1.806  1.1296  1.9989  1.6215
 8993TIP3    H248395   2.868   5.021   1.714  0.3863  0.0982  2.1602
 8994TIP3   OH248396   2.290   4.243   6.604 -0.4006  0.2224  0.0934
 8994TIP3    H148397   2.214   4.205   6.650  0.1890 -0.4900  0.5052
 8994TIP3    H248398   2.324   4.170   6.552 -0.6190  0.8278 -0.9096
 8995TIP3   OH248399   5.037   2.799   0.550 -0.5707 -0.4989 -0.0919
 8995TIP3    H148400   5.104   2.731   0.561  0.1231 -0.5599 -3.6055
 8995TIP3    H248401   4.955   2.756   0.572  0.2200 -1.3001  1.4385
 8996TIP3   OH248402   0.675   1.379  15.160  0.1667 -0.1301  0.3206
 8996TIP3    H148403   0.726   1.439  15.107 -2.2789 -0.2934 -2.4709
 8996TIP3    H248404   0.739   1.321  15.200  2.2127  0.1840 -2.2784
 8997TIP3   OH248405   3.597   5.069  15.942 -0.3439  0.1656  0.1107
 8997TIP3    H148406   3.692   5.071  15.936 -0.3075 -1.5231 -0.3538
 8997TIP3    H248407   3.566   5.082  15.853 -0.6546  2.7060  0.5173
 8998TIP3   OH248408   3.355   5.527  13.713  0.0069  0.6969  0.4435
 8998TIP3    H148409   3.419   5.459  13.734  0.3667  0.4397 -1.3606
 8998TIP3    H248410   3.279   5.480  13.681  0.6493  1.0965 -1.8799
 8999TIP3   OH248411   3.912   6.656   0.929 -0.0833  0.3715 -0.3920
 8999TIP3    H148412   3.826   6.639   0.891 -0.8365  0.4796  1.1580
 8999TIP3    H248413   3.948   6.569   0.947  0.9428  0.2747 -2.6628
 9000TIP3   OH248414   2.519   4.732   6.220  0.2445 -0.4256 -0.4216
 9000TIP3    H148415   2.446   4.703   6.166  0.7497 -0.3405 -1.1798
 9000TIP3    H248416   2.480   4.789   6.286 -0.6823 -2.3228  0.7337
 9001TIP3   OH248417   4.493   2.139  12.597 -0.5129  0.2890 -0.0069
 9001TIP3    H148418   4.445   2.222  12.594  1.8016  1.7256 -0.1794
 9001TIP3    H248419   4.553   2.149  12.671 -0.5043 -1.4393  0.2413
 9002TIP3   OH248420   5.750   2.674  15.374 -0.1581  0.1134  0.4167
 9002TIP3    H148421   5.803   2.737  15.326  0.6489 -1.4455 -0.8345
 9002TIP3    H248422   5.696   2.632  15.307 -1.5746  0.3076  1.3973
 9003TIP3   OH248423   5.771   2.100  13.850  0.2217 -0.3095  0.3164
 9003TIP3    H148424   5.805   2.012  13.832 -1.8939 -0.8707 -1.5888
 9003TIP3    H248425   5.781   2.112  13.944  1.4142 -2.2195  0.4724
 9004TIP3   OH248426   1.990   5.025  15.614 -0.1952  0.2786 -0.5119
 9004TIP3    H148427   2.060   5.001  15.554 -0.7925  0.5870 -1.3449
 9004TIP3    H248428   1.985   4.951  15.675  0.5880  0.0816 -0.6717
 9005TIP3   OH248429   6.270   5.227  16.995  0.5224 -0.2357  0.7624
 9005TIP3    H148430   6.327   5.191  16.926 -1.0844  1.4215 -1.5760
 9005TIP3    H248431   6.304   5.315  17.010 -0.4969  0.2141  0.4507
 9006TIP3   OH248432   5.811   5.142  15.910 -0.6068 -0.2354 -0.2492
 9006TIP3    H148433   5.903   5.115  15.913 -0.9029 -1.4559 -1.2686
 9006TIP3    H248434   5.789   5.138  15.817 -1.2152  1.7932 -0.2312
 9007TIP3   OH248435   5.174   0.207  12.325  0.0120  0.2430  0.0358
 9007TIP3    H148436   5.118   0.134  12.300  0.2024 -0.0638  0.4880
 9007TIP3    H248437   5.239   0.214  12.254  1.6238 -1.7348  1.2016
 9008TIP3   OH248438   1.408   5.568  13.096  0.7581  0.2158  0.2292
 9008TIP3    H148439   1.353   5.553  13.020  1.3658 -1.9611  0.1403
 9008TIP3    H248440   1.394   5.491  13.152  1.2910  1.1484  1.7186
 9009TIP3   OH248441   1.296   4.255   5.315 -0.0249 -0.4068  0.0014
 9009TIP3    H148442   1.273   4.329   5.259 -0.3090 -1.8423 -1.8516
 9009TIP3    H248443   1.225   4.252   5.380 -2.3747 -1.5405 -2.4413
 9010TIP3   OH248444   2.067   4.242   2.639  0.4801 -0.1820 -0.5788
 9010TIP3    H148445   2.087   4.305   2.570  1.0878 -1.3840 -1.5430
 9010TIP3    H248446   1.973   4.228   2.631  0.0015  1.8366  0.7728
 9011TIP3   OH248447   5.645   4.680   6.370  0.0297  0.1655  0.4161
 9011TIP3    H148448   5.622   4.706   6.281 -1.0235 -3.3618 -0.4735
 9011TIP3    H248449   5.578   4.720   6.425 -0.0373  1.3527 -0.4886
 9012TIP3   OH248450   1.220   5.370   1.427  0.2514  0.5668 -0.7352
 9012TIP3    H148451   1.138   5.417   1.413 -0.5599  0.1345  2.0032
 9012TIP3    H248452   1.197   5.277   1.416  0.5133  0.4740 -0.5087
 9013TIP3   OH248453   2.410   5.359   2.861 -0.1577 -0.1383  0.1797
 9013TIP3    H148454   2.402   5.329   2.952 -0.6223 -0.0351  0.1787
 9013TIP3    H248455   2.412   5.279   2.809  2.9402 -0.3287  0.4437
 9014TIP3   OH248456   0.004   0.204  16.413 -0.1131 -0.4987 -0.3014
 9014TIP3    H148457  -0.016   0.293  16.385 -1.6097 -0.9250 -0.6505
 9014TIP3    H248458   0.100   0.199  16.410 -0.0745  0.4900 -2.1797
 9015TIP3   OH248459   6.669   1.499   5.069 -0.6448 -0.1829 -0.0293
 9015TIP3    H148460   6.608   1.430   5.045 -1.3730  0.1355  0.8467
 9015TIP3    H248461   6.674   1.555   4.992 -2.0712  0.2128  0.1442
 9016TIP3   OH248462   1.415   0.778   3.729 -0.2506  0.1821  0.4803
 9016TIP3    H148463   1.460   0.746   3.807  0.5626 -1.3734 -0.5674
 9016TIP3    H248464   1.485   0.809   3.672 -0.7610  0.5162  0.0235
 9017TIP3   OH248465   6.190   6.534  11.445  0.1214 -0.1560  0.8445
 9017TIP3    H148466   6.138   6.465  11.487 -0.2728 -0.5579 -0.2630
 9017TIP3    H248467   6.217   6.496  11.361  1.3207  0.4390  0.9392
 9018TIP3   OH248468   3.281   0.394   0.845  0.1001  0.0345  0.1085
 9018TIP3    H148469   3.375   0.387   0.832  0.0867 -0.0979  0.0827
 9018TIP3    H248470   3.246   0.415   0.759 -0.1927 -2.7704 -0.5518
 9019TIP3   OH248471   0.211   5.184  12.516 -0.4796 -0.4164  0.2854
 9019TIP3    H148472   0.153   5.108  12.517 -0.7754 -0.1882  0.7616
 9019TIP3    H248473   0.184   5.236  12.592 -0.7463  0.5036 -0.4143
 9020TIP3   OH248474   4.856   4.297   1.486  0.2150  0.0988  0.2842
 9020TIP3    H148475   4.811   4.296   1.402  0.3552  1.6978  0.1718
 9020TIP3    H248476   4.846   4.207   1.519 -4.2547  0.5666  0.8899
 9021TIP3   OH248477   3.884   5.393  13.020  0.0847  0.2665 -0.6374
 9021TIP3    H148478   3.883   5.307  12.977  1.2703  0.6581 -1.4879
 9021TIP3    H248479   3.814   5.442  12.976 -1.9861 -0.8430  1.2022
 9022TIP3   OH248480   2.937   2.900   5.422 -0.1298 -0.2357  0.1488
 9022TIP3    H148481   3.008   2.918   5.361 -1.3547  1.4767 -0.8658
 9022TIP3    H248482   2.980   2.859   5.498  2.0138  1.2086 -0.2042
 9023TIP3   OH248483   2.356   1.380  13.306 -0.0201 -0.1108 -0.2686
 9023TIP3    H148484   2.300   1.389  13.383  0.6671 -0.1709  0.2548
 9023TIP3    H248485   2.442   1.411  13.336  0.7073 -1.7991 -0.4561
 9024TIP3   OH248486   1.926   2.074   1.028  0.0513  0.5600  0.3895
 9024TIP3    H148487   2.006   2.068   1.079  1.6741  2.4407 -1.7198
 9024TIP3    H248488   1.942   2.020   0.950 -1.5670 -0.6460  0.8374
 9025TIP3   OH248489   1.989   4.477  12.432 -0.0359  0.2343  1.1101
 9025TIP3    H148490   1.966   4.417  12.503  1.8069 -1.4699  0.3652
 9025TIP3    H248491   2.037   4.548  12.474 -1.6488  0.8959  1.9158
 9026TIP3   OH248492   1.092   4.061  13.634  0.4923  1.2605 -1.0367
 9026TIP3    H148493   1.074   4.038  13.726  0.9429  0.0825 -1.2228
 9026TIP3    H248494   1.095   4.157  13.633 -0.6002  1.3247 -0.0327
 9027TIP3   OH248495   5.945   6.160  12.541  0.4216 -0.6181 -0.7956
 9027TIP3    H148496   5.914   6.226  12.603  1.5701  0.5493 -1.3947
 9027TIP3    H248497   5.897   6.178  12.461 -0.0233 -1.1994 -0.6641
 9028TIP3   OH248498   2.861   3.354  15.885 -0.3342 -0.6187  0.2716
 9028TIP3    H148499   2.847   3.267  15.848 -1.6130 -0.2958 -0.0753
 9028TIP3    H248500   2.788   3.406  15.851 -0.4132  0.2144  1.6449
 9029TIP3   OH248501   5.189   4.740  14.012  0.0161 -0.4538 -0.2006
 9029TIP3    H148502   5.164   4.768  13.924 -2.5859 -1.3546  0.1765
 9029TIP3    H248503   5.134   4.792  14.070 -0.5231 -2.0200  0.7421
 9030TIP3   OH248504   1.595   0.685  13.968 -0.9044 -0.1749  0.2800
 9030TIP3    H148505   1.640   0.682  14.053  2.0036 -0.9543 -1.1782
 9030TIP3    H248506   1.561   0.596  13.956  0.3524 -0.6186 -0.1594
 9031TIP3   OH248507   4.894   4.148  12.320 -0.3693  0.2250  0.0558
 9031TIP3    H148508   4.889   4.178  12.410 -0.0416 -1.5361  0.7001
 9031TIP3    H248509   4.808   4.167  12.283 -1.0316 -0.4346  1.2207
 9032TIP3   OH248510   3.679   5.774  12.155  0.4556 -0.3387 -0.5152
 9032TIP3    H148511   3.620   5.775  12.231  3.0273  0.1831  1.5924
 9032TIP3    H248512   3.704   5.682  12.145  0.7285 -0.2938 -0.2357
 9033TIP3   OH248513   2.047   4.603   0.480  0.1772 -0.0857 -0.4425
 9033TIP3    H148514   1.998   4.609   0.562  0.4874 -1.5362 -0.1222
 9033TIP3    H248515   1.984   4.631   0.413 -0.4414  0.0157  0.1656
 9034TIP3   OH248516   2.059   2.739  12.022 -0.2178 -0.0024  0.3774
 9034TIP3    H148517   2.072   2.816  11.967 -0.9110 -1.9383 -2.7851
 9034TIP3    H248518   1.969   2.747  12.053 -0.9407 -0.3354 -1.4847
 9035TIP3   OH248519   2.435   3.062  16.922  0.1914 -0.2083 -0.4063
 9035TIP3    H148520   2.496   2.989  16.935  2.1014  1.6984  2.4767
 9035TIP3    H248521   2.401   3.081  17.010 -1.5233  1.3403 -1.3347
 9036TIP3   OH248522   4.077   2.262  16.623  1.1037 -0.1658 -0.4130
 9036TIP3    H148523   4.047   2.171  16.628 -0.4486  0.2668 -1.3198
 9036TIP3    H248524   4.096   2.277  16.530 -1.0046  1.1127 -0.6915
 9037TIP3   OH248525   3.731   1.481   4.823 -0.4650  0.1006 -0.2587
 9037TIP3    H148526   3.794   1.409   4.836 -0.0070  0.2537 -1.5450
 9037TIP3    H248527   3.646   1.439   4.832 -0.2391 -0.0179  2.0635
 9038TIP3   OH248528   1.059   4.709  14.418 -0.0846  0.4128 -0.3290
 9038TIP3    H148529   1.088   4.621  14.394 -0.0245  0.3924 -0.1821
 9038TIP3    H248530   1.048   4.705  14.513  0.9348  0.8539 -0.1732
 9039TIP3   OH248531   2.543   4.747   3.260 -0.1500  0.0904 -0.7639
 9039TIP3    H148532   2.596   4.691   3.317  0.2860 -0.4236 -1.6512
 9039TIP3    H248533   2.597   4.825   3.247  1.3340 -1.1998 -3.1908
 9040TIP3   OH248534   0.319   6.511  15.116 -0.1018 -0.1775 -0.3577
 9040TIP3    H148535   0.293   6.437  15.170  0.2839 -1.8156 -2.3050
 9040TIP3    H248536   0.386   6.557  15.167 -2.6527  0.8578  2.3144
 9041TIP3   OH248537   6.487   1.467  15.396 -0.3363 -0.4312 -0.1618
 9041TIP3    H148538   6.581   1.477  15.408 -0.5307  0.3110  0.9127
 9041TIP3    H248539   6.478   1.389  15.342  0.9110 -0.1918 -0.7554
 9042TIP3   OH248540   2.036   5.235   6.286 -1.0263 -0.3951 -0.1285
 9042TIP3    H148541   2.062   5.177   6.215 -1.4804 -0.2190 -0.4431
 9042TIP3    H248542   2.007   5.315   6.243 -0.2543  0.1291  0.3129
 9043TIP3   OH248543   4.397   6.618   5.447  0.0269  0.2694 -0.1675
 9043TIP3    H148544   4.416   6.572   5.365  1.3728  1.6137 -0.6437
 9043TIP3    H248545   4.459   6.690   5.449 -0.0305  0.3177  2.0114
 9044TIP3   OH248546   4.630   5.023   6.721  0.8007  0.1159 -0.0898
 9044TIP3    H148547   4.564   5.051   6.785  1.8802 -0.7305  1.4684
 9044TIP3    H248548   4.707   5.003   6.774  1.9070 -0.1483 -1.7344
 9045TIP3   OH248549   2.553   6.417  10.976 -0.2336 -0.0445  0.2404
 9045TIP3    H148550   2.464   6.382  10.981 -0.2628 -0.0222 -0.1072
 9045TIP3    H248551   2.585   6.387  10.891  0.6185 -1.3043  0.9744
 9046TIP3   OH248552   2.573   3.433  14.379 -0.3379 -0.3239  0.0011
 9046TIP3    H148553   2.583   3.477  14.463 -1.2782  0.6958 -0.3989
 9046TIP3    H248554   2.657   3.388  14.366  0.5664  1.1241  0.5637
 9047TIP3   OH248555   1.967   6.054   1.891 -1.0978  0.1541  0.0858
 9047TIP3    H148556   1.936   6.098   1.970 -1.6447  1.8511 -1.0254
 9047TIP3    H248557   2.028   6.116   1.851  1.0503 -1.6426  0.3323
 9048TIP3   OH248558   1.793   3.698   5.126  0.2071  0.1226  0.0549
 9048TIP3    H148559   1.703   3.673   5.148 -0.0903  1.3985  0.3973
 9048TIP3    H248560   1.846   3.660   5.196 -0.2322  0.5042  0.6036
 9049TIP3   OH248561   2.345   4.873  15.157  0.6148  0.2551  0.0320
 9049TIP3    H148562   2.348   4.927  15.078  2.3883  0.0065 -0.0979
 9049TIP3    H248563   2.252   4.857  15.171  0.2913 -1.0938 -2.9750
 9050TIP3   OH248564   2.258   0.552   3.396  0.0635  0.2168 -0.6275
 9050TIP3    H148565   2.229   0.639   3.424  0.6514  0.0170  0.6736
 9050TIP3    H248566   2.324   0.569   3.329 -0.8303  0.7247 -1.4166
 9051TIP3   OH248567   5.590   4.070   3.849 -0.1412 -0.0313 -0.4657
 9051TIP3    H148568   5.670   4.122   3.839  0.3862 -0.6473  0.4239
 9051TIP3    H248569   5.602   4.023   3.931 -2.7513  2.1665  1.3712
 9052TIP3   OH248570   2.384   1.079  12.610 -0.5860  0.0820  0.3615
 9052TIP3    H148571   2.463   1.134  12.609 -0.4823 -0.0535  1.0101
 9052TIP3    H248572   2.373   1.053  12.518  1.0197 -1.1389  0.4496
 9053TIP3   OH248573   4.605   1.864  16.236 -0.4709 -0.3182 -0.0475
 9053TIP3    H148574   4.640   1.879  16.148 -0.8883 -1.8597 -0.5129
 9053TIP3    H248575   4.511   1.851  16.221 -0.3040 -2.3753  0.3449
 9054TIP3   OH248576   6.707   6.740   4.899  0.1058 -0.6158 -0.0550
 9054TIP3    H148577   6.689   6.646   4.899 -2.7072 -0.1882  0.3068
 9054TIP3    H248578   6.741   6.759   4.986 -1.4030 -1.0201  0.6522
 9055TIP3   OH248579   6.748   1.416  15.352  0.0816 -0.4770 -0.0208
 9055TIP3    H148580   6.713   1.380  15.271 -1.0874  0.0064  0.2482
 9055TIP3    H248581   6.814   1.353  15.380  0.3276 -0.7713 -1.2084
 9056TIP3   OH248582   5.903   1.243   1.253  0.2767 -0.1555 -0.1014
 9056TIP3    H148583   5.959   1.165   1.256  1.3890  0.6427  1.1844
 9056TIP3    H248584   5.957   1.308   1.208 -0.0087  0.3294  0.2546
 9057TIP3   OH248585   4.706   1.993  11.231 -1.2739 -0.7123 -0.0090
 9057TIP3    H148586   4.684   2.025  11.318 -1.9270  2.7126 -1.2448
 9057TIP3    H248587   4.651   2.046  11.172  0.8012 -1.2000 -2.5790
 9058TIP3   OH248588   3.641   0.048   1.061 -0.9356 -0.0183  0.1292
 9058TIP3    H148589   3.549   0.048   1.084 -1.2503 -0.9074 -1.0065
 9058TIP3    H248590   3.662  -0.044   1.045  0.8371 -0.2193  2.8614
 9059TIP3   OH248591   3.455   2.430   2.939  0.1029 -0.6318 -0.1105
 9059TIP3    H148592   3.399   2.491   2.988  1.0098 -1.7863  2.5796
 9059TIP3    H248593   3.421   2.343   2.962  1.6314 -1.2753 -0.1791
 9060TIP3   OH248594   6.216   3.978  11.311 -0.2005 -0.2698  0.2738
 9060TIP3    H148595   6.161   4.057  11.314  0.6895  0.3738  0.2341
 9060TIP3    H248596   6.174   3.922  11.247  0.1941  1.0001 -1.1578
 9061TIP3   OH248597   3.250   1.240   4.506 -0.8176  0.2066  0.4052
 9061TIP3    H148598   3.160   1.238   4.539 -0.7074 -0.0289  0.6949
 9061TIP3    H248599   3.298   1.294   4.569  0.2072 -3.1526  2.7577
 9062TIP3   OH248600   0.477   4.343   6.046 -0.4114  0.0470 -0.3571
 9062TIP3    H148601   0.453   4.361   5.955 -0.6066 -3.1257 -1.0753
 9062TIP3    H248602   0.393   4.327   6.090 -0.2758  0.9467  0.2534
 9063TIP3   OH248603   5.988   4.626  15.432  0.1900  1.1091 -0.1190
 9063TIP3    H148604   5.968   4.717  15.453  2.2161  2.0657 -1.9265
 9063TIP3    H248605   5.997   4.625  15.336  2.6695 -0.4063  0.0469
 9064TIP3   OH248606   3.005   2.573   1.808  0.1399 -0.7322 -0.4513
 9064TIP3    H148607   2.910   2.559   1.806 -0.1952 -0.7608  4.5093
 9064TIP3    H248608   3.014   2.668   1.817  0.5275 -0.8117  0.0042
 9065TIP3   OH248609   2.400   4.158  14.464  0.3049  0.2190  0.3197
 9065TIP3    H148610   2.406   4.254  14.461 -1.8641  0.3936 -0.1842
 9065TIP3    H248611   2.437   4.129  14.381  1.3269  0.5803  0.6346
 9066TIP3   OH248612   2.708   1.015   3.841 -0.1615  0.3596 -0.4878
 9066TIP3    H148613   2.631   1.070   3.857 -0.7125 -0.3219 -0.7644
 9066TIP3    H248614   2.684   0.930   3.877 -0.2068 -0.3423 -2.0951
 9067TIP3   OH248615   2.597   1.738   2.842 -0.2098  0.0826 -0.0118
 9067TIP3    H148616   2.621   1.649   2.868  1.1267  0.4456  0.0536
 9067TIP3    H248617   2.620   1.743   2.749  1.0756  0.7749  0.3141
 9068TIP3   OH248618   2.465   2.759  16.690 -0.2990  0.3165  0.3025
 9068TIP3    H148619   2.390   2.809  16.723 -1.4689 -1.9887  1.3822
 9068TIP3    H248620   2.467   2.776  16.596 -1.6891  1.0361  0.3883
 9069TIP3   OH248621   6.230   5.744  13.876 -0.6590 -0.0789  0.3170
 9069TIP3    H148622   6.184   5.675  13.925 -0.3794 -1.0624 -0.7598
 9069TIP3    H248623   6.165   5.813  13.865 -1.7628 -1.2345 -0.7351
 9070TIP3   OH248624   4.507   4.917  14.149 -0.5026  0.3093 -0.1934
 9070TIP3    H148625   4.467   4.885  14.068  1.2133 -0.2069 -0.8875
 9070TIP3    H248626   4.464   5.000  14.166 -0.2584  0.9035 -2.1791
 9071TIP3   OH248627   0.828   0.811   6.533  0.2538  0.0108 -0.3210
 9071TIP3    H148628   0.741   0.803   6.572  0.2834 -0.8039 -0.4076
 9071TIP3    H248629   0.825   0.894   6.484 -0.5248 -0.0953 -0.4614
 9072TIP3   OH248630   0.557   5.815   3.411 -0.2540 -0.3081  0.1909
 9072TIP3    H148631   0.563   5.909   3.397  1.7118 -0.4162  0.0775
 9072TIP3    H248632   0.525   5.780   3.327 -0.8423  0.2148  0.1879
 9073TIP3   OH248633   1.619   6.145   1.679 -0.0056  1.0525 -0.1018
 9073TIP3    H148634   1.647   6.220   1.732  0.1554  0.5143  0.5961
 9073TIP3    H248635   1.684   6.139   1.609  1.3123  0.2010  1.1406
 9074TIP3   OH248636   0.156   1.423  11.558  0.0988 -0.6119  0.6231
 9074TIP3    H148637   0.151   1.449  11.650 -0.0797  0.0733  0.4217
 9074TIP3    H248638   0.152   1.505  11.509  0.3519 -0.9602  0.0060
 9075TIP3   OH248639   1.532   0.583   5.284  0.3202 -0.5144 -0.0713
 9075TIP3    H148640   1.498   0.580   5.194  1.3312 -0.6445 -0.4629
 9075TIP3    H248641   1.455   0.605   5.338 -0.2824 -0.3471 -0.9699
 9076TIP3   OH248642   1.431   6.392   6.445 -0.0003 -0.2284 -0.0563
 9076TIP3    H148643   1.372   6.318   6.457 -1.0705 -0.0540 -3.3270
 9076TIP3    H248644   1.518   6.357   6.462 -0.5993 -1.9278 -0.3472
 9077TIP3   OH248645   0.708   2.412   5.843  0.0750  0.4915  0.0630
 9077TIP3    H148646   0.749   2.416   5.929 -0.6759 -0.1343  0.4628
 9077TIP3    H248647   0.669   2.325   5.838  0.7381  0.2350 -1.2220
 9078TIP3   OH248648   5.352   6.633   2.888 -0.2481 -0.5731 -0.1263
 9078TIP3    H148649   5.362   6.699   2.958  0.6468 -0.0976 -0.6804
 9078TIP3    H248650   5.262   6.602   2.897 -0.9011  1.1739 -0.2322
 9079TIP3   OH248651   0.313   2.559   5.120 -0.5204 -0.1802  0.0095
 9079TIP3    H148652   0.365   2.559   5.201 -1.2758 -1.2106  0.5191
 9079TIP3    H248653   0.362   2.502   5.060 -0.9069 -0.9445  0.4027
 9080TIP3   OH248654   5.623   3.643   2.765 -0.2964 -0.8061  0.2666
 9080TIP3    H148655   5.546   3.591   2.788 -0.9342 -0.4645 -0.9715
 9080TIP3    H248656   5.619   3.650   2.670  1.1407 -0.5664  0.2099
 9081TIP3   OH248657   0.740   3.429   1.649 -0.4553  0.0421 -0.1429
 9081TIP3    H148658   0.775   3.497   1.707 -0.0221  0.2655 -0.6552
 9081TIP3    H248659   0.754   3.464   1.561  0.4699 -1.0489 -0.4396
 9082TIP3   OH248660   0.267   2.782  11.642 -0.1556 -1.0107 -0.0108
 9082TIP3    H148661   0.231   2.781  11.731 -0.1170  1.0010  0.0798
 9082TIP3    H248662   0.294   2.692  11.625 -1.0228 -1.6151  1.6584
 9083TIP3   OH248663   0.275   1.583   1.260 -0.7537 -0.4462  0.2744
 9083TIP3    H148664   0.323   1.615   1.183 -1.7403  1.5841  0.4257
 9083TIP3    H248665   0.326   1.616   1.334  0.7664 -3.2495  0.6262
 9084TIP3   OH248666   3.360   4.893  16.421  0.1794  0.2957  0.3002
 9084TIP3    H148667   3.437   4.879  16.365 -0.1283  0.0462 -0.0713
 9084TIP3    H248668   3.288   4.904  16.359 -0.6366 -2.4864  0.5961
 9085TIP3   OH248669   3.532   0.772  10.853 -0.2559  0.0362 -0.3052
 9085TIP3    H148670   3.517   0.829  10.778 -0.0045 -0.3714 -0.6725
 9085TIP3    H248671   3.627   0.764  10.859 -0.2924 -0.7834 -0.6096
 9086TIP3   OH248672   1.946   4.742  17.237  0.8549  0.4065  0.2307
 9086TIP3    H148673   1.982   4.789  17.162 -0.1485  0.4314 -0.2551
 9086TIP3    H248674   1.892   4.673  17.199 -0.4038  0.9785  0.8895
 9087TIP3   OH248675   6.266   5.829   3.046  0.3745  0.9423  0.5190
 9087TIP3    H148676   6.284   5.776   3.123  0.6408 -0.6251 -0.5675
 9087TIP3    H248677   6.176   5.808   3.023  0.9967 -0.4213 -0.8882
 9088TIP3   OH248678   2.411   5.945  15.599 -0.2414 -0.1506 -0.0275
 9088TIP3    H148679   2.362   5.968  15.677 -0.9371 -2.6832  0.3665
 9088TIP3    H248680   2.354   5.970  15.526 -0.9422 -0.5820  0.3683
 9089TIP3   OH248681   4.972   1.481  15.955 -0.0638  0.0928 -0.3629
 9089TIP3    H148682   4.893   1.517  15.913  0.1826  0.8624 -0.1871
 9089TIP3    H248683   4.969   1.515  16.044  0.6130  0.3596 -0.4393
 9090TIP3   OH248684   5.751   4.865   0.587  0.9604 -0.0326 -0.0399
 9090TIP3    H148685   5.704   4.823   0.514  0.4905  2.0139 -1.0030
 9090TIP3    H248686   5.692   4.856   0.661  0.7892 -0.8930 -0.2735
 9091TIP3   OH248687   5.104   2.978  13.231  0.0960 -0.0343 -0.4779
 9091TIP3    H148688   5.180   2.926  13.201  0.7476  0.9073 -0.4921
 9091TIP3    H248689   5.093   2.952  13.322 -0.1419 -0.8436 -0.7227
 9092TIP3   OH248690   5.973   1.380  15.205 -0.2790 -0.0289  0.2631
 9092TIP3    H148691   6.009   1.350  15.289  0.8056  0.0544 -0.1510
 9092TIP3    H248692   5.975   1.476  15.212 -0.5915 -0.0272  0.3104
 9093TIP3   OH248693   6.243   5.003  12.264 -0.6216 -0.5532 -0.0226
 9093TIP3    H148694   6.236   5.061  12.188  0.6690  2.2246  1.8194
 9093TIP3    H248695   6.225   4.916  12.229  0.2068  0.5326 -3.5751
 9094TIP3   OH248696   0.777   1.924  12.374 -0.0816  0.6523  0.7321
 9094TIP3    H148697   0.827   1.879  12.442  2.0205  2.4203  0.4521
 9094TIP3    H248698   0.801   1.880  12.293  0.1605  0.7889  0.7293
 9095TIP3   OH248699   0.952   4.262  14.250  0.0281  0.0076 -0.1780
 9095TIP3    H148700   1.008   4.190  14.277 -0.0901  0.1721  0.5256
 9095TIP3    H248701   0.874   4.219  14.213  0.1251 -0.2224 -0.1166
 9096TIP3   OH248702   0.654   5.740   1.125  0.4920 -0.1102 -0.0868
 9096TIP3    H148703   0.660   5.739   1.030 -2.3918  1.6925 -0.4009
 9096TIP3    H248704   0.600   5.665   1.148  1.5757 -0.8232  0.2240
 9097TIP3   OH248705   6.436   0.094  14.677  0.2493  0.1056  0.3667
 9097TIP3    H148706   6.530   0.080  14.662 -0.0153 -0.7960 -0.5256
 9097TIP3    H248707   6.424   0.188  14.661  0.6287 -0.1576 -1.7483
 9098TIP3   OH248708   0.977   6.085  16.936 -0.4142 -0.7627 -0.0741
 9098TIP3    H148709   0.892   6.041  16.950 -0.5099 -0.7687 -0.6726
 9098TIP3    H248710   1.014   6.092  17.024 -0.6262 -1.5973  0.0968
 9099TIP3   OH248711   2.462   4.059   5.729 -0.6309  0.2108 -0.3453
 9099TIP3    H148712   2.487   3.978   5.685  0.5809 -1.6598  3.3182
 9099TIP3    H248713   2.535   4.119   5.714 -0.1603 -0.4421 -0.6787
 9100TIP3   OH248714   6.080   2.285  16.362 -0.1436  0.2490  0.3720
 9100TIP3    H148715   6.172   2.258  16.355 -0.1118  0.2507  0.7602
 9100TIP3    H248716   6.049   2.287  16.272  0.8276  2.3185  0.0297
 9101TIP3   OH248717   2.564   3.935  15.303 -0.0334  0.4118 -0.1099
 9101TIP3    H148718   2.574   3.952  15.397 -0.7037  2.9319 -0.4315
 9101TIP3    H248719   2.601   4.013  15.261 -0.7767 -0.1650 -1.9071
 9102TIP3   OH248720   0.402   0.719   5.629 -0.1457  0.0753  0.3740
 9102TIP3    H148721   0.309   0.720   5.604  0.4667  0.1131 -2.2248
 9102TIP3    H248722   0.429   0.628   5.616  0.2397  0.1109  0.8998
 9103TIP3   OH248723   0.075   6.297   1.586 -0.3093  0.0818  0.6356
 9103TIP3    H148724   0.039   6.382   1.562  1.3695  0.4275 -0.8649
 9103TIP3    H248725   0.011   6.233   1.552 -1.5634  0.7088  1.7502
 9104TIP3   OH248726   5.267   5.588  11.425  0.0095 -0.0672 -0.6338
 9104TIP3    H148727   5.253   5.511  11.370 -1.2520  0.8485 -1.6483
 9104TIP3    H248728   5.292   5.657  11.364 -1.9057  1.1032 -0.1964
 9105TIP3   OH248729   2.918   3.957  14.125  0.0611 -0.5411  0.5772
 9105TIP3    H148730   2.868   3.926  14.049 -1.2978 -4.5417  2.7652
 9105TIP3    H248731   2.852   3.990  14.185  0.3825 -2.1949  1.9342
 9106TIP3   OH248732   1.198   3.220   5.810 -0.1520 -0.4969 -0.0319
 9106TIP3    H148733   1.229   3.181   5.892  0.9705  0.9506  0.2733
 9106TIP3    H248734   1.111   3.182   5.797 -0.8572  0.0881  2.4596
 9107TIP3   OH248735   3.083   0.561  15.252  0.2613 -0.1201  0.1749
 9107TIP3    H148736   3.154   0.623  15.267  0.2576 -0.2785  0.8774
 9107TIP3    H248737   3.117   0.477  15.281  0.2467 -0.4486 -0.7301
 9108TIP3   OH248738   3.642   2.285  15.946 -0.0062  0.1117  0.0580
 9108TIP3    H148739   3.608   2.262  15.859 -1.1588 -1.7893  0.9580
 9108TIP3    H248740   3.579   2.347  15.981  1.0099  1.7102 -0.8173
 9109TIP3   OH248741   4.070   6.775  12.509 -0.1084  0.6543  0.4541
 9109TIP3    H148742   4.152   6.752  12.465 -1.2628  0.4882 -1.7312
 9109TIP3    H248743   4.011   6.702  12.490 -1.3088  1.5970  0.4451
 9110TIP3   OH248744   0.768   0.929  15.768  0.1263 -0.4958 -0.3062
 9110TIP3    H148745   0.777   0.866  15.696 -0.2114 -1.6221  0.6014
 9110TIP3    H248746   0.834   0.902  15.832  0.5290  0.5901 -0.2467
 9111TIP3   OH248747   1.016   4.606   0.772 -0.2461  0.1409  0.5015
 9111TIP3    H148748   1.085   4.544   0.750  0.4399  0.5669  1.3783
 9111TIP3    H248749   1.056   4.692   0.762 -0.9909  0.4317 -0.0679
 9112TIP3   OH248750   4.460   4.838   5.240 -0.3330  0.1740 -0.1362
 9112TIP3    H148751   4.376   4.854   5.197  0.1587 -0.0468 -1.1970
 9112TIP3    H248752   4.490   4.924   5.267 -2.2567  0.0601  2.9785
 9113TIP3   OH248753   5.118   0.274  17.226  0.4573  0.1531  0.3778
 9113TIP3    H148754   5.129   0.320  17.142 -0.3327  0.0480  0.2032
 9113TIP3    H248755   5.182   0.203  17.223 -1.2088 -1.3886 -1.2466
 9114TIP3   OH248756   4.579   0.588  15.079 -0.7344  0.1467  0.1194
 9114TIP3    H148757   4.634   0.650  15.127 -1.7864  0.8655  0.4339
 9114TIP3    H248758   4.491   0.623  15.087 -1.0834 -0.2723 -1.4702
 9115TIP3   OH248759   3.370   1.601   3.189 -1.0881 -0.0099 -0.2871
 9115TIP3    H148760   3.365   1.536   3.119 -1.8455 -2.6966  2.0857
 9115TIP3    H248761   3.453   1.647   3.174  0.8339 -3.3319 -0.6652
 9116TIP3   OH248762   5.253   4.730   5.652 -0.1318 -0.0339  0.0374
 9116TIP3    H148763   5.238   4.770   5.738  0.6294 -0.3170  0.3076
 9116TIP3    H248764   5.197   4.652   5.653  0.4465 -0.4560  0.5893
 9117TIP3   OH248765   6.519   6.035  14.249 -0.8488 -0.3275  0.5021
 9117TIP3    H148766   6.549   6.019  14.160  0.0726 -0.6898  0.8647
 9117TIP3    H248767   6.449   6.100  14.240 -2.7419 -2.4133 -0.7619
 9118TIP3   OH248768   4.875   5.809   5.731  0.0880  0.1142  0.6159
 9118TIP3    H148769   4.818   5.732   5.718 -1.1026  0.6509  2.2717
 9118TIP3    H248770   4.960   5.772   5.754 -0.3492 -0.7293  0.9437
 9119TIP3   OH248771   3.610   3.225   3.484  0.3288 -0.5767 -0.1810
 9119TIP3    H148772   3.648   3.280   3.416 -2.1257 -1.5428 -2.5368
 9119TIP3    H248773   3.617   3.136   3.450  1.5680 -1.4897  2.2022
 9120TIP3   OH248774   3.169   5.730   4.025 -0.2009 -0.7160  0.5117
 9120TIP3    H148775   3.129   5.661   4.078 -2.1737  0.8783  1.1947
 9120TIP3    H248776   3.123   5.810   4.051  2.9777  1.1682  0.8296
 9121TIP3   OH248777   4.848   1.468   3.676 -0.0378 -0.2639 -0.4066
 9121TIP3    H148778   4.800   1.551   3.673  2.4278  1.2411 -1.4916
 9121TIP3    H248779   4.877   1.453   3.586  1.8893 -0.7946  0.2392
 9122TIP3   OH248780   0.057   6.021   2.728  0.2319 -0.1608 -0.5534
 9122TIP3    H148781  -0.022   6.043   2.777  0.1407  0.2331 -0.8730
 9122TIP3    H248782   0.126   6.074   2.767 -0.3181  2.1233 -2.4517
 9123TIP3   OH248783   2.700   1.287  16.120 -0.7098  0.4478  0.3430
 9123TIP3    H148784   2.714   1.212  16.063 -0.7167  1.9844 -1.7681
 9123TIP3    H248785   2.606   1.303  16.116 -0.6471  0.8462  0.4544
 9124TIP3   OH248786   2.960   0.865   4.152 -0.0524 -0.0858 -0.1193
 9124TIP3    H148787   2.961   0.796   4.086 -0.6089 -0.9821  0.7886
 9124TIP3    H248788   3.010   0.937   4.112 -0.6197 -0.4947 -1.6144
 9125TIP3   OH248789   1.116   5.499  13.076 -0.2527 -0.5240 -0.4948
 9125TIP3    H148790   1.069   5.582  13.087  2.6026  1.2216 -0.3796
 9125TIP3    H248791   1.121   5.487  12.981 -0.4153 -0.4141 -0.5182
 9126TIP3   OH248792   2.587   4.697  14.472 -0.6510 -0.2441  0.4499
 9126TIP3    H148793   2.570   4.660  14.386 -0.0027 -0.2176  0.3043
 9126TIP3    H248794   2.609   4.622  14.527 -0.9429 -0.2484  0.5612
 9127TIP3   OH248795   0.459   0.508  13.416 -0.1236 -0.1384  0.4779
 9127TIP3    H148796   0.447   0.516  13.322  0.1378 -0.3241  0.4265
 9127TIP3    H248797   0.455   0.598  13.449  1.0814  0.0739  0.1223
 9128TIP3   OH248798   5.175   2.398   6.027  0.2189 -0.2513 -0.0424
 9128TIP3    H148799   5.236   2.404   6.101  0.4986 -1.9075 -0.1026
 9128TIP3    H248800   5.206   2.322   5.977  1.6678  2.2470 -3.3714
 9129TIP3   OH248801   0.877   1.771  14.111  0.2325 -0.0089  0.6282
 9129TIP3    H148802   0.901   1.804  14.025 -2.4345 -0.8456 -0.5288
 9129TIP3    H248803   0.901   1.679  14.110 -1.8022 -0.5926 -0.1554
 9130TIP3   OH248804   5.495   2.972   2.693  0.7879  0.0279 -0.3033
 9130TIP3    H148805   5.412   2.924   2.702  1.5764 -1.2030  1.0579
 9130TIP3    H248806   5.513   2.973   2.599 -0.6317  0.0972 -0.5959
 9131TIP3   OH248807   6.337   3.514  10.705 -0.0675 -0.0431  0.4502
 9131TIP3    H148808   6.391   3.591  10.685  1.0666 -1.6373 -3.8507
 9131TIP3    H248809   6.397   3.454  10.750  1.0509 -0.6738 -1.7279
 9132TIP3   OH248810   2.731   5.441   5.245  0.1837  0.5286  0.2025
 9132TIP3    H148811   2.812   5.478   5.279  0.3871  1.5167 -1.2555
 9132TIP3    H248812   2.664   5.472   5.306  0.9416 -0.8345  1.7867
 9133TIP3   OH248813   4.194   0.294  15.504  0.2255  0.2843 -0.2064
 9133TIP3    H148814   4.277   0.342  15.498 -0.1927  1.0432 -0.0452
 9133TIP3    H248815   4.128   0.357  15.476 -0.9067  1.4107  4.2289
 9134TIP3   OH248816   5.468   2.444   1.297 -0.3910 -0.2197 -0.0497
 9134TIP3    H148817   5.557   2.447   1.332 -0.7759 -0.3976  0.9752
 9134TIP3    H248818   5.473   2.381   1.224  0.5683  0.6573 -0.7726
 9135TIP3   OH248819   4.394   2.186   2.285  0.2552 -0.2177  0.0778
 9135TIP3    H148820   4.417   2.121   2.352  0.4260 -0.9547 -0.6768
 9135TIP3    H248821   4.388   2.269   2.332  1.4917 -0.5337  0.8156
 9136TIP3   OH248822   4.574   1.811   5.940  0.3079  0.2961  0.7387
 9136TIP3    H148823   4.508   1.877   5.920  1.7772  1.9044  0.9408
 9136TIP3    H248824   4.658   1.856   5.928  1.4323 -1.9592 -0.6072
 9137TIP3   OH248825   2.293   4.469   6.456 -0.8464 -0.1252 -0.3033
 9137TIP3    H148826   2.295   4.384   6.500 -0.2469  0.6591  1.2456
 9137TIP3    H248827   2.366   4.465   6.394  0.6383  0.0296  1.3504
 9138TIP3   OH248828   0.009   0.112   0.377 -0.0142  0.5375  0.2023
 9138TIP3    H148829  -0.011   0.028   0.335  1.5888 -0.2142  0.8409
 9138TIP3    H248830   0.015   0.174   0.305  0.5376 -0.2759 -0.4802
 9139TIP3   OH248831   0.686   5.246   3.710  0.0977 -0.3426 -0.0311
 9139TIP3    H148832   0.612   5.186   3.698  0.8085 -1.4317  0.7542
 9139TIP3    H248833   0.648   5.333   3.712 -1.8690 -0.9863  4.8060
 9140TIP3   OH248834   5.164   1.659   2.070 -0.4421  0.2032 -0.1020
 9140TIP3    H148835   5.120   1.592   2.018  4.0634 -2.4281 -1.0800
 9140TIP3    H248836   5.166   1.736   2.013 -0.2693 -0.8968 -1.6356
 9141TIP3   OH248837   1.997   4.540  15.209 -0.1720 -0.1519  0.6906
 9141TIP3    H148838   2.039   4.474  15.264  0.0291 -0.7900 -0.1951
 9141TIP3    H248839   2.056   4.551  15.135 -0.7973  0.1225  0.2208
 9142TIP3   OH248840   3.508   2.856  15.601 -0.1679 -0.4113  0.2120
 9142TIP3    H148841   3.436   2.854  15.538 -0.2134 -0.5398  0.2697
 9142TIP3    H248842   3.577   2.803  15.560  0.7070  1.4361 -0.8409
 9143TIP3   OH248843   6.572   4.415  14.096 -0.2463  0.6330 -0.1701
 9143TIP3    H148844   6.485   4.453  14.111 -0.3979  1.2035 -2.1727
 9143TIP3    H248845   6.581   4.414  14.001  0.8299 -2.0223 -0.1180
 9144TIP3   OH248846   6.644   2.390  11.951 -0.4417 -0.2875  0.1102
 9144TIP3    H148847   6.631   2.459  11.886 -0.4263  0.3576  0.7713
 9144TIP3    H248848   6.739   2.385  11.962 -0.4828  0.4720  0.9631
 9145TIP3   OH248849   2.263   2.186   5.475 -0.1020 -0.2952  0.2681
 9145TIP3    H148850   2.329   2.192   5.545 -0.0095 -1.1433  0.2630
 9145TIP3    H248851   2.211   2.109   5.498  0.0856 -0.7340 -0.7213
 9146TIP3   OH248852   6.400   5.241   1.629  0.1389  0.0137 -0.0895
 9146TIP3    H148853   6.451   5.316   1.658  0.9200  0.1919 -1.7884
 9146TIP3    H248854   6.446   5.165   1.664 -0.2064  0.2687  0.9658
 9147TIP3   OH248855   0.017   1.368   0.106  0.0619 -0.3279 -0.2105
 9147TIP3    H148856   0.082   1.368   0.035 -1.5316 -2.5669 -1.8360
 9147TIP3    H248857  -0.003   1.460   0.120  0.5731  0.2391 -2.6091
 9148TIP3   OH248858   0.365   0.973   1.606 -0.2348  0.1142  0.3789
 9148TIP3    H148859   0.440   0.946   1.553  0.2973 -0.1608  1.2500
 9148TIP3    H248860   0.299   0.998   1.542  0.3110 -0.4196 -0.4221
 9149TIP3   OH248861   6.471   4.621   0.763  0.0469  0.7653 -0.2945
 9149TIP3    H148862   6.554   4.635   0.809 -0.0851  0.5074  0.0286
 9149TIP3    H248863   6.405   4.624   0.832 -0.1520  0.3471 -0.4684
 9150TIP3   OH248864   5.904   1.759   1.593  0.0273 -0.2933 -0.6091
 9150TIP3    H148865   5.901   1.764   1.497 -0.5461  0.5462 -0.5623
 9150TIP3    H248866   5.827   1.707   1.616 -0.4655  0.4321 -0.5670
 9151TIP3   OH248867   5.280   3.075  13.717 -0.3175 -0.8684  0.3074
 9151TIP3    H148868   5.331   3.046  13.642  0.4209  1.3069 -0.1113
 9151TIP3    H248869   5.192   3.092  13.682 -0.4465 -1.5024  0.3192
 9152TIP3   OH248870   5.216   6.304  15.477  0.2677  0.2536  0.4184
 9152TIP3    H148871   5.265   6.369  15.527 -0.8743  1.1474  0.4099
 9152TIP3    H248872   5.211   6.341  15.389  1.5939 -0.9508 -0.2112
 9153TIP3   OH248873   0.273   1.682   0.621 -0.0665 -0.4534 -0.0979
 9153TIP3    H148874   0.251   1.714   0.533 -0.8476 -0.6838  0.0017
 9153TIP3    H248875   0.303   1.760   0.668 -1.1534  0.0008 -0.1070
 9154TIP3   OH248876   5.296   5.266  14.814 -0.0200 -0.0338  0.3760
 9154TIP3    H148877   5.388   5.291  14.808 -0.0123 -0.2262 -0.2836
 9154TIP3    H248878   5.297   5.182  14.860 -0.0080  0.8445  2.0953
 9155TIP3   OH248879   3.432   2.479  13.758 -0.4751 -0.0429 -0.0986
 9155TIP3    H148880   3.452   2.487  13.851  2.0791 -0.8076 -0.5110
 9155TIP3    H248881   3.445   2.567  13.723  0.3074 -0.1238 -0.0203
 9156TIP3   OH248882   6.696   5.083  15.075  0.2822 -0.0189 -0.1389
 9156TIP3    H148883   6.679   5.131  14.994 -0.9045 -1.4897 -0.8212
 9156TIP3    H248884   6.730   4.998  15.046 -1.6356 -1.1712  0.7595
 9157TIP3   OH248885   1.297   3.771  16.340  0.1369 -0.2757  0.3652
 9157TIP3    H148886   1.298   3.816  16.256  1.2397  1.4390  1.2422
 9157TIP3    H248887   1.209   3.733  16.345 -0.1425  0.0588 -1.2898
 9158TIP3   OH248888   1.471   0.743  11.183 -0.4055  0.5000  0.3024
 9158TIP3    H148889   1.424   0.781  11.109 -0.3209 -0.8190 -0.4492
 9158TIP3    H248890   1.406   0.692  11.231 -0.0391 -0.2658  0.0008
 9159TIP3   OH248891   6.120   5.817  16.614  0.0202  0.4608 -0.3374
 9159TIP3    H148892   6.069   5.770  16.679  1.1034  1.3457  1.2040
 9159TIP3    H248893   6.109   5.765  16.534 -1.6297 -0.4564  0.4217
 9160TIP3   OH248894   5.727   0.096   1.933  0.2282 -0.3938 -0.5422
 9160TIP3    H148895   5.643   0.074   1.894 -0.2094  0.6662 -0.2219
 9160TIP3    H248896   5.788   0.094   1.859 -0.6007  1.6452 -1.3359
 9161TIP3   OH248897   5.976   0.541   1.936 -0.0745 -0.2927  0.1204
 9161TIP3    H148898   6.045   0.475   1.939  1.0916  0.9421  1.2888
 9161TIP3    H248899   5.930   0.532   2.020  0.5197  0.8076  0.5791
 9162TIP3   OH248900   1.252   5.849  11.781  0.3043  0.4849 -0.3287
 9162TIP3    H148901   1.306   5.925  11.756  0.7533 -0.1074 -1.2168
 9162TIP3    H248902   1.167   5.887  11.803  1.1398  1.4710  1.3788
 9163TIP3   OH248903   2.878   4.635   3.663 -0.0120 -0.0375 -0.2181
 9163TIP3    H148904   2.923   4.560   3.625 -1.1849 -1.1397  0.4625
 9163TIP3    H248905   2.795   4.640   3.615 -1.0052 -0.7348  1.3054
 9164TIP3   OH248906   2.771   6.672   2.931  0.3746  0.6405 -0.0336
 9164TIP3    H148907   2.728   6.598   2.975  0.5474  0.5401 -0.0336
 9164TIP3    H248908   2.730   6.749   2.970 -0.4650  0.5375 -0.6940
 9165TIP3   OH248909   2.733   3.059   5.311  0.0741 -0.1813 -0.0813
 9165TIP3    H148910   2.811   3.025   5.356 -1.1643 -0.3263  2.0653
 9165TIP3    H248911   2.683   2.981   5.288  0.4209 -0.0768 -1.2508
 9166TIP3   OH248912   3.094   3.851   2.839 -0.1630  0.2944  0.2652
 9166TIP3    H148913   3.032   3.892   2.780 -0.1192 -0.2107 -0.1388
 9166TIP3    H248914   3.045   3.780   2.881 -0.2133  0.6931  0.8885
 9167TIP3   OH248915   3.783   3.704   5.770  0.0522  0.3974  0.4091
 9167TIP3    H148916   3.762   3.633   5.831 -2.3281  0.9546  0.3445
 9167TIP3    H248917   3.738   3.679   5.689  0.1564  1.4098  0.0226
 9168TIP3   OH248918   1.685   6.431   2.995 -0.1244  0.1783 -0.3585
 9168TIP3    H148919   1.659   6.426   2.903 -0.0427  2.2921 -0.5522
 9168TIP3    H248920   1.693   6.525   3.013  2.4232 -0.2009  1.0912
 9169TIP3   OH248921   6.690   1.130   4.049  0.3514  1.0537 -0.3351
 9169TIP3    H148922   6.695   1.078   3.969  1.8840  1.6438 -0.6617
 9169TIP3    H248923   6.779   1.162   4.063 -0.1368  1.9793  0.9362
 9170TIP3   OH248924   2.911   6.752  12.565  0.3856 -0.0328  0.2287
 9170TIP3    H148925   2.965   6.831  12.572  0.6930 -0.3701  2.4337
 9170TIP3    H248926   2.840   6.777  12.506  1.3261  1.3566 -0.3934
 9171TIP3   OH248927   5.784   6.741   0.312 -0.1516  0.5160  0.4096
 9171TIP3    H148928   5.708   6.731   0.255  0.4657 -0.7456 -0.2437
 9171TIP3    H248929   5.854   6.695   0.266  1.3692  2.7336  0.3341
 9172TIP3   OH248930   0.326   0.786   3.313  0.1501  0.6225  0.7402
 9172TIP3    H148931   0.248   0.737   3.285  0.9809 -1.1369  1.3836
 9172TIP3    H248932   0.300   0.878   3.305 -1.3926  0.1188 -0.7426
 9173TIP3   OH248933   0.589   2.186   5.750 -0.1296  0.8420  0.0231
 9173TIP3    H148934   0.511   2.138   5.722  0.9319  0.4246 -2.5664
 9173TIP3    H248935   0.635   2.125   5.808 -0.1591 -0.2346 -1.0362
 9174TIP3   OH248936   2.116   2.702  16.316  0.3761 -0.3120  0.2413
 9174TIP3    H148937   2.059   2.775  16.339  0.4297  0.2153 -1.1713
 9174TIP3    H248938   2.152   2.672  16.399  0.7638  1.6178  0.8181
 9175TIP3   OH248939   4.590   5.825  16.127  0.0608 -0.4472 -0.0651
 9175TIP3    H148940   4.592   5.831  16.031 -0.7244  0.1594 -0.0492
 9175TIP3    H248941   4.580   5.915  16.156  0.5047 -0.6096  0.6022
 9176TIP3   OH248942   6.766   3.884  14.642 -0.2687 -0.4095 -0.2028
 9176TIP3    H148943   6.673   3.891  14.664  0.1779  1.4133  1.4438
 9176TIP3    H248944   6.770   3.902  14.548 -1.4976  0.3572 -0.1306
 9177TIP3   OH248945   0.838   4.030   2.592  0.1402 -0.6818 -0.1469
 9177TIP3    H148946   0.755   3.999   2.629  0.3530 -1.7404 -0.5082
 9177TIP3    H248947   0.835   4.001   2.501  0.5131  0.0956 -0.4163
 9178TIP3   OH248948   0.615   0.218  11.392 -0.2762 -0.2726 -0.1847
 9178TIP3    H148949   0.685   0.268  11.349  0.7322 -0.2192  1.4526
 9178TIP3    H248950   0.616   0.248  11.483 -3.2683  0.6236 -0.3308
 9179TIP3   OH248951   3.442   2.542   1.821  0.1166 -0.5256 -0.4171
 9179TIP3    H148952   3.523   2.543   1.769  0.1347 -0.8065 -0.3955
 9179TIP3    H248953   3.471   2.556   1.911 -0.0091  1.0975 -0.5940
 9180TIP3   OH248954   1.623   1.625  12.807  0.2158 -0.4161 -0.5571
 9180TIP3    H148955   1.681   1.550  12.808  1.1900  0.3032 -1.1642
 9180TIP3    H248956   1.536   1.588  12.791  0.7285 -1.3804 -1.2029
 9181TIP3   OH248957   5.778   1.383  11.068  0.4035 -0.1319 -0.7794
 9181TIP3    H148958   5.736   1.366  10.984 -0.1405  1.5450 -0.8828
 9181TIP3    H248959   5.783   1.478  11.074 -2.8821  0.0940  2.6245
 9182TIP3   OH248960   3.024   1.664  15.774  0.5687  0.3010 -0.6610
 9182TIP3    H148961   3.011   1.756  15.754 -1.8034  0.2682  0.4655
 9182TIP3    H248962   3.016   1.620  15.689 -2.5737  0.7977 -0.7445
 9183TIP3   OH248963   3.312   0.458  14.840  0.5755  0.1010  0.6340
 9183TIP3    H148964   3.227   0.502  14.845  0.2466 -0.6035  1.5968
 9183TIP3    H248965   3.373   0.527  14.815 -0.0226  0.9984  1.5407
 9184TIP3   OH248966   0.345   4.975   4.649  0.2188  0.3040  0.5772
 9184TIP3    H148967   0.396   5.054   4.668  0.8147 -0.3432  1.8184
 9184TIP3    H248968   0.411   4.908   4.629 -0.2609  0.0279 -0.1174
 9185TIP3   OH248969   0.671   0.818  16.710  0.0393  0.4128  0.2059
 9185TIP3    H148970   0.687   0.871  16.788  1.2242 -2.1377  1.8515
 9185TIP3    H248971   0.589   0.772  16.730 -0.9973  1.5685 -1.2077
 9186TIP3   OH248972   0.452   2.658   2.279 -0.2264  0.2252 -0.2675
 9186TIP3    H148973   0.522   2.724   2.284  0.8975 -0.7921 -1.5631
 9186TIP3    H248974   0.376   2.700   2.319  0.4222  2.3308 -1.1032
 9187TIP3   OH248975   4.439   5.070   0.365 -0.5852 -0.0998  0.1475
 9187TIP3    H148976   4.534   5.072   0.377 -0.4402  1.3355 -1.0089
 9187TIP3    H248977   4.424   5.121   0.286 -2.3600 -0.0150  0.5060
 9188TIP3   OH248978   0.407   2.816   5.017  0.2582  0.1430  0.8235
 9188TIP3    H148979   0.492   2.820   5.060  1.0761 -0.3604 -0.7025
 9188TIP3    H248980   0.361   2.744   5.061  0.7316  0.1978  1.4207
 9189TIP3   OH248981   6.281   3.248  15.439  0.1829  0.1532  0.4093
 9189TIP3    H148982   6.334   3.201  15.374 -0.7228 -0.5955  0.1912
 9189TIP3    H248983   6.343   3.271  15.509  0.7628 -0.8152  0.2262
 9190TIP3   OH248984   5.535   3.899  12.993  0.8235 -0.5901  0.2901
 9190TIP3    H148985   5.537   3.831  12.926  1.6156 -0.7749  0.4980
 9190TIP3    H248986   5.610   3.881  13.049  0.3603 -0.2438  1.0408
 9191TIP3   OH248987   1.650   4.930  14.755 -0.2049  0.5072 -0.0515
 9191TIP3    H148988   1.559   4.940  14.727  0.0168 -2.4716 -2.2638
 9191TIP3    H248989   1.657   4.838  14.781  1.3932  1.4800  3.6088
 9192TIP3   OH248990   1.563   6.031   6.053  0.2839  0.0347 -0.7686
 9192TIP3    H148991   1.528   5.962   6.109  1.8487 -0.6027 -0.5172
 9192TIP3    H248992   1.595   6.097   6.114 -0.5209  0.6419 -0.9939
 9193TIP3   OH248993   3.134   3.712  14.743  0.0614  0.4648  0.4240
 9193TIP3    H148994   3.141   3.650  14.670 -1.1184 -1.3292  1.7504
 9193TIP3    H248995   3.215   3.699  14.793  0.8210  1.6182 -0.4560
 9194TIP3   OH248996   1.965   0.402  13.818  0.5967  0.5490 -0.2254
 9194TIP3    H148997   1.994   0.465  13.884  1.1527  0.3775 -0.2962
 9194TIP3    H248998   2.038   0.397  13.756 -0.2397  1.3204 -1.3092
 9195TIP3   OH248999   0.267   1.242  14.248  0.2414 -0.4734 -0.1156
 9195TIP3    H149000   0.257   1.187  14.326  1.3670  0.4106  0.7008
 9195TIP3    H249001   0.206   1.206  14.184  0.1044 -1.9199  0.7974
 9196TIP3   OH249002   3.868   1.881   4.492  0.2218 -0.2446  0.6225
 9196TIP3    H149003   3.817   1.901   4.414  1.1191 -0.4987 -0.0499
 9196TIP3    H249004   3.850   1.954   4.552  1.0244  0.9921 -0.5867
 9197TIP3   OH249005   0.628   6.535  14.670  0.3467  0.5165  0.1396
 9197TIP3    H149006   0.588   6.459  14.627 -1.1445  1.0893  0.4645
 9197TIP3    H249007   0.628   6.603  14.603  1.1099  0.4399  0.0446
 9198TIP3   OH249008   5.430   6.710  12.290  0.5529  0.2525 -0.1993
 9198TIP3    H149009   5.430   6.660  12.209 -1.4829  0.4639 -0.3765
 9198TIP3    H249010   5.455   6.799  12.264 -0.8669  0.5099 -0.7553
 9199TIP3   OH249011   6.700   3.129   3.371 -0.4139 -0.2530 -0.4043
 9199TIP3    H149012   6.752   3.056   3.336 -0.8589 -0.7700  0.0018
 9199TIP3    H249013   6.712   3.199   3.307  1.3542 -0.1132  0.0162
 9200TIP3   OH249014   1.980   6.550  14.061 -0.3421  0.3376 -0.0143
 9200TIP3    H149015   2.060   6.540  14.010  0.2667  0.1066  0.9547
 9200TIP3    H249016   1.965   6.644  14.064  0.7516  0.5051  1.0442
 9201TIP3   OH249017   4.127   6.048  12.531  0.1714 -0.7901  0.8824
 9201TIP3    H149018   4.088   6.051  12.618  1.0337  0.9403  1.2536
 9201TIP3    H249019   4.083   6.118  12.482  1.6257  0.1553  0.8394
 9202TIP3   OH249020   5.846   4.332   4.830 -0.3447  0.1306  0.3251
 9202TIP3    H149021   5.814   4.393   4.763  1.2308  0.8851  0.2224
 9202TIP3    H249022   5.869   4.253   4.781 -1.2220 -0.1274  0.2977
 9203TIP3   OH249023   0.103   4.348   4.933 -0.0520  0.2366  0.1076
 9203TIP3    H149024   0.118   4.432   4.975 -0.0708  0.7985 -0.9682
 9203TIP3    H249025   0.041   4.367   4.863 -0.1280 -0.6946 -0.0962
 9204TIP3   OH249026   3.944   4.279   6.048 -0.2022  0.0490 -0.0932
 9204TIP3    H149027   3.956   4.372   6.032 -0.2733  0.3152  1.2701
 9204TIP3    H249028   3.954   4.269   6.143  1.2391 -1.5379 -0.3534
 9205TIP3   OH249029   1.719   3.701  10.693 -0.2743 -0.3470  0.1953
 9205TIP3    H149030   1.785   3.758  10.652 -2.0175  0.6242 -1.4004
 9205TIP3    H249031   1.731   3.617  10.650 -0.4462 -0.0139 -0.5181
 9206TIP3   OH249032   6.701   4.012   3.223 -0.1211  0.4413 -0.4518
 9206TIP3    H149033   6.727   3.921   3.211 -0.6226  0.3074 -0.5709
 9206TIP3    H249034   6.777   4.063   3.195 -0.3775  0.0884 -1.8792
 9207TIP3   OH249035   0.436   2.413  13.692  0.2094  0.0044 -0.4858
 9207TIP3    H149036   0.364   2.408  13.755  1.6572 -0.8102  1.1694
 9207TIP3    H249037   0.455   2.321  13.671 -0.8658  0.2502 -2.9399
 9208TIP3   OH249038   0.324   3.251  17.141 -0.4680  0.1560 -0.3765
 9208TIP3    H149039   0.388   3.321  17.130 -0.3169 -0.3265 -3.1209
 9208TIP3    H249040   0.247   3.295  17.179  0.1635  1.4775 -0.5826
 9209TIP3   OH249041   3.321   5.954   0.394  0.1209  0.9288 -0.2985
 9209TIP3    H149042   3.233   5.973   0.425  0.0868  0.6160 -0.1963
 9209TIP3    H249043   3.359   6.039   0.373  0.8791  1.4041  2.5645
 9210TIP3   OH249044   1.090   1.872  12.851 -0.2053  0.3162  0.1793
 9210TIP3    H149045   1.147   1.841  12.922  2.7639  2.7422 -0.8900
 9210TIP3    H249046   1.114   1.818  12.776 -1.7443 -0.7925  0.4554
 9211TIP3   OH249047   4.780   2.771   1.918 -0.2719 -0.0810  0.5439
 9211TIP3    H149048   4.784   2.850   1.972 -0.0440 -1.1011  2.0997
 9211TIP3    H249049   4.793   2.699   1.980  0.1724 -1.3202 -0.9129
 9212TIP3   OH249050   4.083   3.722  13.243  0.2657 -0.0217  0.3679
 9212TIP3    H149051   4.059   3.775  13.319  0.6344 -1.0236  1.2186
 9212TIP3    H249052   4.114   3.639  13.281  0.5674 -0.5008 -0.8758
 9213TIP3   OH249053   4.891   5.871  14.900  0.0299  0.4142  0.6575
 9213TIP3    H149054   4.796   5.881  14.899 -0.0274  0.2181 -1.5839
 9213TIP3    H249055   4.924   5.956  14.871  0.4656  0.0930  0.1977
 9214TIP3   OH249056   3.368   1.231   1.133  0.5730  0.1255  0.2474
 9214TIP3    H149057   3.332   1.212   1.220  1.0586 -2.0848  0.0296
 9214TIP3    H249058   3.328   1.314   1.108 -2.0776 -0.7530  1.2587
 9215TIP3   OH249059   1.537   0.585   1.442  0.4314  0.2123  0.2703
 9215TIP3    H149060   1.530   0.600   1.347  2.6790  1.7811  0.2614
 9215TIP3    H249061   1.449   0.597   1.475 -0.9455 -2.7101 -1.8520
 9216TIP3   OH249062   0.231   1.913   5.154 -0.3721 -0.2856  0.0605
 9216TIP3    H149063   0.269   1.928   5.241  0.4342 -0.9877 -0.1573
 9216TIP3    H249064   0.182   1.993   5.135  1.5074  0.9479  0.1109
 9217TIP3   OH249065   0.826   4.941   2.239 -0.3204 -0.2907  0.4510
 9217TIP3    H149066   0.806   5.010   2.303 -1.2291  0.3464 -0.5015
 9217TIP3    H249067   0.897   4.978   2.186 -0.4831 -0.2848  0.2394
 9218TIP3   OH249068   1.699   2.891  11.403 -0.4821 -0.4322  0.0245
 9218TIP3    H149069   1.632   2.927  11.461  0.8985 -2.7745  3.3407
 9218TIP3    H249070   1.665   2.806  11.377  0.0905 -0.5200 -0.4573
 9219TIP3   OH249071   4.557   4.488  16.560  0.8187 -0.1834  0.0357
 9219TIP3    H149072   4.611   4.419  16.598 -1.2236 -1.2600  1.2203
 9219TIP3    H249073   4.527   4.452  16.476  0.4893 -0.3844  0.2346
 9220TIP3   OH249074   2.619   0.245   5.580  0.1517  0.5532 -0.5937
 9220TIP3    H149075   2.653   0.225   5.667 -0.4127 -0.6199 -0.6173
 9220TIP3    H249076   2.580   0.332   5.588 -1.2617 -0.1647  0.7440
 9221TIP3   OH249077   5.870   3.185   4.554 -0.1090  0.0789 -0.5163
 9221TIP3    H149078   5.889   3.268   4.511  1.2721  0.8349  1.4112
 9221TIP3    H249079   5.840   3.209   4.642  2.0476 -1.4165  0.7437
 9222TIP3   OH249080   4.028   2.622   1.437  0.3281 -0.6488  0.5361
 9222TIP3    H149081   4.076   2.692   1.481  2.6591 -0.0644 -2.5851
 9222TIP3    H249082   4.044   2.544   1.491  1.7288  0.2819  1.5320
 9223TIP3   OH249083   3.392   3.644   3.523  0.5489 -0.2883 -0.2163
 9223TIP3    H149084   3.376   3.551   3.540 -0.1570  0.0968  1.3916
 9223TIP3    H249085   3.457   3.669   3.588 -0.4952  0.7207  0.4618
 9224TIP3   OH249086   3.077   6.291  11.624 -0.2161 -0.5744 -0.3607
 9224TIP3    H149087   3.148   6.270  11.563  0.7560  3.4438 -0.8588
 9224TIP3    H249088   3.120   6.304  11.708 -0.4019  1.2111 -0.5135
 9225TIP3   OH249089   6.498   0.052  12.069 -0.1154 -0.4180  0.2374
 9225TIP3    H149090   6.502   0.077  12.162  0.5385 -0.6681  0.2791
 9225TIP3    H249091   6.434   0.112  12.032 -0.3644 -0.2941  0.8454
 9226TIP3   OH249092   4.809   5.715  17.134  0.3513 -0.0541  0.1899
 9226TIP3    H149093   4.865   5.778  17.087  0.1695  0.5885  0.8047
 9226TIP3    H249094   4.728   5.764  17.151  0.0524 -0.5929  0.3160
 9227TIP3   OH249095   5.657   0.533   5.728  0.2241 -0.0294  0.0212
 9227TIP3    H149096   5.705   0.584   5.663 -0.0360  1.2391  0.7822
 9227TIP3    H249097   5.666   0.584   5.809  2.1421 -2.4563  1.4912
 9228TIP3   OH249098   1.106   0.651  16.517 -0.4139  0.0473 -0.5987
 9228TIP3    H149099   1.165   0.586  16.479 -0.4068 -0.0616 -0.4035
 9228TIP3    H249100   1.146   0.672  16.602 -2.4112 -2.6232  1.2056
 9229TIP3   OH249101   6.099   1.970   6.038  0.8800  0.1662  0.0927
 9229TIP3    H149102   6.172   1.910   6.028 -0.8830 -2.0731 -0.3112
 9229TIP3    H249103   6.071   1.958   6.129  0.1394 -0.1156 -0.1637
 9230TIP3   OH249104   1.442   4.893  15.357  0.1238  0.0093  0.0452
 9230TIP3    H149105   1.378   4.918  15.424 -0.7611  0.5119 -0.9594
 9230TIP3    H249106   1.516   4.860  15.407 -1.0209 -0.8686  1.2486
 9231TIP3   OH249107   6.217   1.864   2.507 -0.0658 -0.8315 -0.6665
 9231TIP3    H149108   6.153   1.925   2.545  0.6880 -0.9945  0.9112
 9231TIP3    H249109   6.234   1.900   2.420  1.4273  2.1159  0.6908
 9232TIP3   OH249110   1.929   0.014   3.632  0.8613  0.1097  0.4431
 9232TIP3    H149111   2.009   0.000   3.683 -0.3432 -1.1311  2.1166
 9232TIP3    H249112   1.919  -0.067   3.581  0.5966  0.1983  0.3512
 9233TIP3   OH249113   3.247   2.802   3.249 -0.4771 -0.0387  0.1044
 9233TIP3    H149114   3.296   2.883   3.237 -1.8634  0.6762 -1.1170
 9233TIP3    H249115   3.155   2.829   3.244 -0.9876 -1.5117  0.9744
 9234TIP3   OH249116   1.336   6.156  11.685 -0.2173  0.5238 -0.0834
 9234TIP3    H149117   1.347   6.250  11.670 -0.2110  0.6134  0.4444
 9234TIP3    H249118   1.298   6.123  11.604  0.0008  0.9405 -0.3614
 9235TIP3   OH249119   1.773   2.607  12.729 -0.5750  0.0890 -0.6802
 9235TIP3    H149120   1.716   2.672  12.770  0.3856  0.1216  0.6587
 9235TIP3    H249121   1.743   2.523  12.764 -1.2435 -0.1462 -1.7393
 9236TIP3   OH249122   1.922   4.494  14.286  0.9775  0.8686 -0.3563
 9236TIP3    H149123   1.935   4.407  14.248  0.6907  0.6100  0.1237
 9236TIP3    H249124   1.887   4.477  14.374  0.7212  1.4702 -0.3332
 9237TIP3   OH249125   5.901   3.421   5.570 -0.4473 -0.5002 -0.3292
 9237TIP3    H149126   5.995   3.426   5.549 -0.3431  0.8217  0.3836
 9237TIP3    H249127   5.888   3.331   5.598  0.4122 -0.9592 -1.3291
 9238TIP3   OH249128   4.284   5.297   5.036 -0.6041 -0.6334 -0.3173
 9238TIP3    H149129   4.344   5.362   5.000 -0.0253 -1.7436 -1.4232
 9238TIP3    H249130   4.320   5.212   5.008 -2.2997 -1.3630 -0.4177
 9239TIP3   OH249131   4.303   5.948  13.860  0.5458  0.0874  0.1129
 9239TIP3    H149132   4.319   5.892  13.784  1.8166 -0.5798  0.8462
 9239TIP3    H249133   4.390   5.970  13.892  0.0314  0.5153  1.2780
 9240TIP3   OH249134   3.897   4.476  10.533  0.6612 -0.1206 -0.4961
 9240TIP3    H149135   3.863   4.401  10.485  1.5413 -0.2241 -0.9746
 9240TIP3    H249136   3.942   4.437  10.608  0.9082 -0.0587 -0.6118
 9241TIP3   OH249137   4.346   1.003  16.846 -0.0429 -0.5331  0.3506
 9241TIP3    H149138   4.345   1.097  16.865  0.5423 -0.3034 -0.6880
 9241TIP3    H249139   4.288   0.993  16.770 -0.0481 -1.0110  0.4095
 9242TIP3   OH249140   4.213   6.515  12.051  0.2672  0.2313 -0.2883
 9242TIP3    H149141   4.204   6.421  12.066  0.9956  0.0490 -0.9431
 9242TIP3    H249142   4.289   6.540  12.104 -0.4372  0.6356  0.5725
 9243TIP3   OH249143   4.529   2.944  15.769  1.1185 -0.6992 -0.0736
 9243TIP3    H149144   4.602   2.976  15.716  1.2930  0.5163  0.8502
 9243TIP3    H249145   4.570   2.890  15.837  1.1915  0.0243  0.4758
 9244TIP3   OH249146   5.503   3.792  15.410 -0.3849  0.3355  0.3480
 9244TIP3    H149147   5.491   3.703  15.376 -0.5832  0.1009  1.0058
 9244TIP3    H249148   5.507   3.780  15.505 -1.4618  1.1363  0.5138
 9245TIP3   OH249149   4.016   6.566  15.945  0.1232  0.5137  0.2554
 9245TIP3    H149150   3.941   6.617  15.914  0.2649  1.1815  0.9802
 9245TIP3    H249151   4.092   6.612  15.910  0.3193  1.6321  1.9999
 9246TIP3   OH249152   4.106   4.939  12.764 -0.2363 -0.0223 -0.1142
 9246TIP3    H149153   4.039   4.983  12.712 -0.2915 -1.1821 -1.0723
 9246TIP3    H249154   4.147   4.878  12.703  1.6191  0.5624  0.4847
 9247TIP3   OH249155   4.856   4.448  14.036  0.1072  0.3614 -0.5987
 9247TIP3    H149156   4.861   4.510  14.108 -0.9058  2.3167 -2.0939
 9247TIP3    H249157   4.944   4.447  13.998  0.7391 -0.9516  0.8041
 9248TIP3   OH249158   3.428   3.307  13.700 -0.2856  0.4576  0.5338
 9248TIP3    H149159   3.363   3.238  13.712 -1.0528  1.1239  0.3361
 9248TIP3    H249160   3.383   3.387  13.728  0.5350  0.8992  0.6200
 9249TIP3   OH249161   4.544   1.781   1.639 -0.1507 -0.5744  0.2900
 9249TIP3    H149162   4.570   1.706   1.691  0.0609 -0.4500  0.3650
 9249TIP3    H249163   4.593   1.855   1.676  0.7550 -0.6527 -0.6822
 9250TIP3   OH249164   2.646   3.667   2.998  0.1361 -0.6960  0.1826
 9250TIP3    H149165   2.603   3.680   2.913 -0.7544 -1.5435  0.4822
 9250TIP3    H249166   2.613   3.737   3.053 -0.2359 -0.8719  0.1820
 9251TIP3   OH249167   5.370   2.003  15.117  0.4662  0.1743  0.2341
 9251TIP3    H149168   5.344   1.995  15.209 -0.9667 -0.4298 -0.1889
 9251TIP3    H249169   5.415   1.921  15.098  1.4376  0.6208  0.5945
 9252TIP3   OH249170   3.929   4.555  15.239 -0.0860 -0.6245  0.2914
 9252TIP3    H149171   3.932   4.509  15.156  2.0270  0.2562 -0.1939
 9252TIP3    H249172   3.962   4.492  15.303  0.0399 -0.7171  0.1350
 9253TIP3   OH249173   1.195   5.529   2.191  0.3250  0.2195 -0.1830
 9253TIP3    H149174   1.172   5.511   2.282  2.0068  0.0098  0.2242
 9253TIP3    H249175   1.232   5.447   2.159  3.4109  1.3659  0.1671
 9254TIP3   OH249176   3.987   1.075   2.844  0.6212  0.4359 -0.1725
 9254TIP3    H149177   3.994   1.040   2.933 -2.3180 -0.9260 -0.3687
 9254TIP3    H249178   3.976   1.169   2.857  2.1639  0.5278  0.7461
 9255TIP3   OH249179   2.418   3.008  11.744 -0.3339 -0.3758  0.1662
 9255TIP3    H149180   2.465   3.084  11.712 -0.6881 -1.0891 -2.2175
 9255TIP3    H249181   2.444   2.937  11.686 -1.2573 -1.7210  1.3144
 9256TIP3   OH249182   2.603   1.709   1.857 -0.1086 -0.0836  0.1862
 9256TIP3    H149183   2.596   1.626   1.810  1.4287 -0.4063  0.4612
 9256TIP3    H249184   2.615   1.775   1.788 -1.4021 -0.0429 -0.0362
 9257TIP3   OH249185   4.901   4.591  11.409 -0.0894 -0.1526  0.1759
 9257TIP3    H149186   4.819   4.638  11.424 -0.5675 -0.0043 -2.5192
 9257TIP3    H249187   4.961   4.625  11.476 -1.5399  1.4223  0.7349
 9258TIP3   OH249188   1.023   0.730  12.771  0.3656  0.1348  0.2932
 9258TIP3    H149189   1.075   0.718  12.851  0.6032  0.9039  0.2642
 9258TIP3    H249190   1.086   0.765  12.707  0.1520 -0.3852 -0.1984
 9259TIP3   OH249191   0.576   2.203  12.118 -0.5767  0.9269  0.0299
 9259TIP3    H149192   0.575   2.175  12.209  0.1644 -0.1727 -0.2780
 9259TIP3    H249193   0.589   2.297  12.122 -0.1294  0.8320  1.0567
 9260TIP3   OH249194   4.632   5.002  15.717  0.3009 -0.2452  0.7061
 9260TIP3    H149195   4.695   5.074  15.727 -1.0702  0.8893  1.6174
 9260TIP3    H249196   4.626   4.988  15.622 -0.0856  1.5037  0.4393
 9261TIP3   OH249197   5.755   1.426  14.160  0.1233  0.2029 -0.8246
 9261TIP3    H149198   5.760   1.389  14.072  0.8862 -2.9597  0.3790
 9261TIP3    H249199   5.679   1.384  14.199  1.1512 -0.3050  0.7221
 9262TIP3   OH249200   1.886   5.775   4.751  0.4551 -0.2276  0.5464
 9262TIP3    H149201   1.817   5.785   4.686  1.9199 -2.0150 -1.4503
 9262TIP3    H249202   1.952   5.840   4.726  0.1405  0.5033  1.5630
 9263TIP3   OH249203   0.485   5.000   2.420 -0.4240  0.1061 -0.1264
 9263TIP3    H149204   0.565   4.961   2.458  1.2925  3.2636 -0.1703
 9263TIP3    H249205   0.513   5.032   2.334 -2.4516 -0.8216 -1.1991
 9264TIP3   OH249206   3.414   6.409   4.754 -0.1912  0.3415 -0.0426
 9264TIP3    H149207   3.321   6.387   4.760  0.2769 -1.5936  0.6402
 9264TIP3    H249208   3.455   6.330   4.720  1.2086  1.2237 -0.4822
 9265TIP3   OH249209   4.955   6.440   3.992 -0.0527 -0.1809 -0.4011
 9265TIP3    H149210   4.890   6.496   4.035  0.6396  0.8785 -0.7003
 9265TIP3    H249211   4.920   6.427   3.904 -1.0906 -1.7156  0.2011
 9266TIP3   OH249212   2.896   5.617  14.544  0.1740  0.0612  0.2017
 9266TIP3    H149213   2.846   5.537  14.528  1.2586 -0.5167 -0.4346
 9266TIP3    H249214   2.986   5.587  14.557  0.4924  1.1317  0.5926
 9267TIP3   OH249215   0.203   0.450  15.595  0.1872 -0.0531  0.0961
 9267TIP3    H149216   0.208   0.455  15.500  0.5343 -0.3537  0.0974
 9267TIP3    H249217   0.122   0.402  15.612 -0.3685  0.8139 -0.0200
 9268TIP3   OH249218   5.396   3.140   0.268  0.0924 -0.3348 -0.2197
 9268TIP3    H149219   5.360   3.219   0.310 -0.1789 -0.8750  0.5897
 9268TIP3    H249220   5.340   3.069   0.299 -0.1597 -0.7555 -1.5635
 9269TIP3   OH249221   1.726   5.398  15.501 -0.3515 -0.8874 -0.1621
 9269TIP3    H149222   1.703   5.349  15.580 -0.0631 -2.8808 -1.2453
 9269TIP3    H249223   1.806   5.356  15.470  1.3326  1.8459  0.1130
 9270TIP3   OH249224   5.744   5.275  13.130 -0.5466  0.1213  0.1099
 9270TIP3    H149225   5.698   5.224  13.064 -1.7754 -0.0280  1.0538
 9270TIP3    H249226   5.701   5.361  13.128  1.1124  0.9968 -1.0520
 9271TIP3   OH249227   1.306   5.128   4.777 -0.0233 -0.7251  0.4842
 9271TIP3    H149228   1.345   5.041   4.770 -0.0390 -0.6892 -0.0989
 9271TIP3    H249229   1.278   5.149   4.688  0.6262  0.1745  0.4758
 9272TIP3   OH249230   4.934   4.042  12.664  0.2202  0.5470  0.5222
 9272TIP3    H149231   5.002   4.006  12.607  0.2144  0.4042  0.6062
 9272TIP3    H249232   4.931   4.135  12.641 -0.7762  0.2382 -0.7497
 9273TIP3   OH249233   4.302   3.161  10.779 -0.1958 -0.1216  0.0970
 9273TIP3    H149234   4.255   3.136  10.699 -2.7168 -0.2926  1.5319
 9273TIP3    H249235   4.254   3.236  10.813  0.8658 -0.0074  1.4308
 9274TIP3   OH249236   2.759   1.900  12.693 -0.2056  0.0446  0.3078
 9274TIP3    H149237   2.727   1.812  12.672 -1.7109  0.8980 -1.2557
 9274TIP3    H249238   2.684   1.943  12.734 -0.5002  1.4817 -1.6201
 9275TIP3   OH249239   6.776   4.740  16.108 -0.1529  0.2314  0.8052
 9275TIP3    H149240   6.785   4.676  16.179  0.3597 -0.1549  0.4024
 9275TIP3    H249241   6.863   4.780  16.100  1.3382 -3.0361 -2.6703
 9276TIP3   OH249242   5.887   6.772   3.066 -0.4061  0.5136 -0.4564
 9276TIP3    H149243   5.917   6.781   3.156  1.2272 -1.8503 -0.6845
 9276TIP3    H249244   5.796   6.743   3.074 -0.2474  0.2469  0.4240
 9277TIP3   OH249245   5.064   6.482   2.249 -0.2621  0.0129 -0.2890
 9277TIP3    H149246   5.127   6.438   2.307 -0.2247  1.3334  0.7036
 9277TIP3    H249247   5.082   6.445   2.163  1.2145 -0.3616  0.1459
 9278TIP3   OH249248   5.688   6.164   5.658  0.4593  0.0208  0.6579
 9278TIP3    H149249   5.683   6.221   5.735 -0.4115 -0.1110  0.7113
 9278TIP3    H249250   5.626   6.203   5.596  1.7812  0.6315 -0.3328
 9279TIP3   OH249251   4.372   1.979   5.873  0.3197 -0.3241 -0.4177
 9279TIP3    H149252   4.337   2.024   5.795 -0.9049 -0.9219 -0.2271
 9279TIP3    H249253   4.298   1.930   5.908  1.4021 -1.7920 -0.1025
 9280TIP3   OH249254   0.445   1.331   5.159 -0.5916  0.2346  0.1026
 9280TIP3    H149255   0.392   1.395   5.113  0.4010 -0.0562 -1.5449
 9280TIP3    H249256   0.415   1.246   5.126  0.8558  0.0681 -0.8725
 9281TIP3   OH249257   5.986   4.821   1.738 -0.4806  0.0095 -0.1325
 9281TIP3    H149258   5.896   4.789   1.733 -0.3118 -0.5327  0.2652
 9281TIP3    H249259   5.993   4.885   1.667 -0.7659 -0.9696 -1.0572
 9282TIP3   OH249260   5.990   3.595   4.078  0.2674 -0.0934 -0.5718
 9282TIP3    H149261   5.953   3.546   4.005  1.7851 -1.4358 -0.4968
 9282TIP3    H249262   6.001   3.530   4.148  1.0700  0.6256  0.0063
 9283TIP3   OH249263   4.222   0.389  11.243  0.3375 -0.2199 -0.3920
 9283TIP3    H149264   4.192   0.323  11.180  0.0046  0.7233 -1.2466
 9283TIP3    H249265   4.316   0.398  11.225  0.2763 -0.0720 -0.6354
 9284TIP3   OH249266   0.653   5.533   6.421 -0.0041 -0.0473  1.0374
 9284TIP3    H149267   0.562   5.506   6.415  0.2447 -1.1972  1.9430
 9284TIP3    H249268   0.650   5.624   6.449 -0.8746  0.6569 -1.1778
 9285TIP3   OH249269   2.840   6.243   0.648 -0.0107 -0.1773  0.3157
 9285TIP3    H149270   2.745   6.240   0.640 -0.0836  1.7243 -0.1338
 9285TIP3    H249271   2.861   6.180   0.717 -1.4603 -1.4723 -0.3776
 9286TIP3   OH249272   0.704   1.269   3.845  0.2711  0.5338  0.2622
 9286TIP3    H149273   0.748   1.345   3.808 -1.1242  1.6303  0.7327
 9286TIP3    H249274   0.773   1.219   3.888  1.1595  1.7702  0.3222
 9287TIP3   OH249275   2.222   2.910   5.940 -0.1282 -0.2273 -0.5234
 9287TIP3    H149276   2.287   2.939   6.005  0.3568 -0.8723 -0.7092
 9287TIP3    H249277   2.142   2.898   5.990  0.3921 -1.2996  0.0834
 9288TIP3   OH249278   3.560   0.805   3.811  0.2839 -0.1229  0.0154
 9288TIP3    H149279   3.563   0.785   3.718  0.2185  1.1826 -0.2918
 9288TIP3    H249280   3.625   0.747   3.850  0.2203 -0.7727 -0.8216
 9289TIP3   OH249281   5.413   5.002   5.929  0.5497  0.1346 -0.2514
 9289TIP3    H149282   5.408   5.021   6.022  0.7513 -0.0415 -0.2053
 9289TIP3    H249283   5.506   4.990   5.911  0.5936  0.9835 -0.6368
 9290TIP3   OH249284   2.955   1.647  16.052  0.3144 -0.0183  0.1051
 9290TIP3    H149285   3.004   1.635  15.971  0.3004 -1.8184  0.3241
 9290TIP3    H249286   3.022   1.654  16.120  0.3007 -1.1404  0.2436
 9291TIP3   OH249287   0.739   0.012  13.369 -0.0571 -0.3184  0.5983
 9291TIP3    H149288   0.797  -0.039  13.424 -1.2559 -1.6105  0.7283
 9291TIP3    H249289   0.748  -0.025  13.282  0.3976  0.4453  0.3131
 9292TIP3   OH249290   5.053   5.404  15.406 -0.3570  0.0046  0.1299
 9292TIP3    H149291   4.972   5.427  15.450  0.0548  2.8292 -0.3762
 9292TIP3    H249292   5.031   5.406  15.313  0.4486  1.8794 -0.0693
 9293TIP3   OH249293   2.589   5.743  15.518 -0.1347  0.0579 -0.0038
 9293TIP3    H149294   2.538   5.820  15.543  0.4686  0.0230  1.3931
 9293TIP3    H249295   2.626   5.766  15.433 -0.0154  1.2920  0.3621
 9294TIP3   OH249296   2.581   0.811   4.853 -0.3238  0.4555  0.3311
 9294TIP3    H149297   2.619   0.850   4.775  1.5800 -0.7721  0.5975
 9294TIP3    H249298   2.604   0.871   4.924 -0.3804  0.5875  0.2379
 9295TIP3   OH249299   5.462   0.433   2.297 -0.1768 -0.0589  0.9959
 9295TIP3    H149300   5.523   0.365   2.325 -0.0250  1.0064  3.5883
 9295TIP3    H249301   5.516   0.494   2.247  0.0388 -0.9731  0.0780
 9296TIP3   OH249302   4.674   3.057  11.438  0.1160 -0.3607 -0.3027
 9296TIP3    H149303   4.592   3.106  11.435  0.9226  1.2161  1.3885
 9296TIP3    H249304   4.732   3.103  11.377  0.3375 -0.1984  0.0188
 9297TIP3   OH249305   5.636   0.050  13.417 -0.0515  0.0906 -0.0397
 9297TIP3    H149306   5.568   0.110  13.386  1.4269  1.1184 -1.4085
 9297TIP3    H249307   5.671   0.091  13.496 -0.3456  0.0328  0.1253
 9298TIP3   OH249308   3.641   0.631   0.213 -0.1084 -0.5202 -0.9527
 9298TIP3    H149309   3.686   0.699   0.263 -0.3925 -0.9832 -0.0377
 9298TIP3    H249310   3.709   0.567   0.193 -0.3317 -1.2548  0.4906
 9299TIP3   OH249311   3.391   5.830  12.305 -0.4608 -0.0968 -0.8786
 9299TIP3    H149312   3.354   5.777  12.234 -2.1176  0.6512 -0.6012
 9299TIP3    H249313   3.350   5.916  12.295 -0.6859  0.0415  0.9662
 9300TIP3   OH249314   3.179   1.127  13.784  0.4749 -0.5893 -0.5052
 9300TIP3    H149315   3.109   1.183  13.818  0.7935  0.3315 -1.3213
 9300TIP3    H249316   3.165   1.126  13.689  0.8799 -1.3433 -0.5624
 9301TIP3   OH249317   6.565   4.501  14.616 -0.1715 -0.1678  0.1390
 9301TIP3    H149318   6.529   4.589  14.624  0.9032  0.3659 -0.5216
 9301TIP3    H249319   6.490   4.445  14.598 -0.6298  1.0584 -2.2902
 9302TIP3   OH249320   4.508   4.507  13.332 -0.7095 -0.4978  0.0521
 9302TIP3    H149321   4.504   4.453  13.252  1.3451 -0.3611 -0.2136
 9302TIP3    H249322   4.566   4.458  13.390 -3.1746 -1.2460  2.0648
 9303TIP3   OH249323   5.672   4.561  14.861  0.1672 -0.6798  0.7584
 9303TIP3    H149324   5.693   4.470  14.839 -0.6009 -0.6088 -0.3642
 9303TIP3    H249325   5.754   4.598  14.894  2.5437  0.0977 -4.9526
 9304TIP3   OH249326   3.414   0.687   2.254  0.4385 -0.2028  0.2886
 9304TIP3    H149327   3.442   0.614   2.309 -1.9159 -1.6752 -0.3060
 9304TIP3    H249328   3.413   0.762   2.313 -0.2114 -1.3326  1.8012
 9305TIP3   OH249329   4.184   2.260  10.451 -0.2355  0.3866 -0.0409
 9305TIP3    H149330   4.091   2.277  10.466 -0.3461 -1.3607  1.6293
 9305TIP3    H249331   4.229   2.328  10.500 -0.6190  0.8445 -0.3131
 9306TIP3   OH249332   5.979   1.604  14.585 -0.4846 -0.1230  0.2692
 9306TIP3    H149333   6.046   1.588  14.519 -0.3864  0.7532  0.1376
 9306TIP3    H249334   5.897   1.609  14.536 -0.3682  0.8819  0.1413
 9307TIP3   OH249335   1.958   5.453   4.065  0.0390  0.0502  0.3314
 9307TIP3    H149336   1.949   5.370   4.112 -1.0968  0.4273  0.8120
 9307TIP3    H249337   2.053   5.466   4.058  0.4311 -3.0001 -2.9164
 9308TIP3   OH249338   2.485   3.545  14.890  0.2068 -0.0400 -0.2531
 9308TIP3    H149339   2.523   3.562  14.976  0.1701 -0.0119 -0.2419
 9308TIP3    H249340   2.431   3.467  14.903  1.1833 -0.7780 -0.5441
 9309TIP3   OH249341   4.543   1.327   1.548  0.2277 -0.0436 -0.0720
 9309TIP3    H149342   4.500   1.403   1.510 -0.3952  0.0854  0.8719
 9309TIP3    H249343   4.494   1.252   1.515  2.5743 -0.3171 -3.3721
 9310TIP3   OH249344   1.087   3.204   4.816  0.3020 -0.3884  0.2314
 9310TIP3    H149345   1.000   3.204   4.857  0.1482 -1.4065 -0.0712
 9310TIP3    H249346   1.073   3.244   4.730  0.4643  0.9801  0.8225
 9311TIP3   OH249347   1.609   5.515  15.284 -0.2849  0.1582 -0.2240
 9311TIP3    H149348   1.655   5.463  15.350 -0.0163  1.7110  0.8612
 9311TIP3    H249349   1.522   5.475  15.278 -0.9356  0.9991  2.3819
 9312TIP3   OH249350   4.523   6.155  14.476 -0.2548 -0.0126 -0.5640
 9312TIP3    H149351   4.557   6.244  14.464 -2.1229  0.6855 -0.9418
 9312TIP3    H249352   4.533   6.115  14.390  1.0624 -0.3852 -0.2699
 9313TIP3   OH249353   3.473   0.360  14.255 -0.3194  0.2652  0.7022
 9313TIP3    H149354   3.389   0.391  14.289  1.2726  3.0085  2.5112
 9313TIP3    H249355   3.513   0.437  14.215  1.9205 -0.5992  1.1240
 9314TIP3   OH249356   6.078   2.344   3.076 -0.0609 -0.2828  0.1458
 9314TIP3    H149357   6.165   2.365   3.041  0.2911 -2.7624 -0.6885
 9314TIP3    H249358   6.084   2.366   3.169  0.6365  1.7694 -0.3181
 9315TIP3   OH249359   3.387   6.765   3.627 -0.3846  0.6777 -0.2081
 9315TIP3    H149360   3.443   6.688   3.619 -3.3644 -1.7290  0.2435
 9315TIP3    H249361   3.418   6.810   3.705  1.2155 -0.2081 -0.2852
 9316TIP3   OH249362   4.287   4.314   5.607 -0.1283 -0.4831 -0.2691
 9316TIP3    H149363   4.320   4.291   5.694 -0.6340 -0.9299 -0.1918
 9316TIP3    H249364   4.330   4.252   5.548 -0.6816 -0.9501 -0.1896
 9317TIP3   OH249365   1.021   5.214   0.586  0.2018 -0.5157 -0.4908
 9317TIP3    H149366   1.050   5.265   0.662 -1.2990 -1.4446  0.7642
 9317TIP3    H249367   1.102   5.177   0.551  0.8747 -0.7327  1.1582
 9318TIP3   OH249368   6.671   6.370   0.698  0.0050  0.0857 -0.0503
 9318TIP3    H149369   6.672   6.275   0.691 -0.1982  0.0804 -0.0088
 9318TIP3    H249370   6.713   6.389   0.782  0.4327  0.0527 -0.2525
 9319TIP3   OH249371   5.945   0.960  14.808  0.0634 -0.3594 -0.2156
 9319TIP3    H149372   5.907   0.982  14.893  1.0999  1.5214 -0.1887
 9319TIP3    H249373   5.959   0.865  14.811 -0.6028 -0.4227  1.4187
 9320TIP3   OH249374   1.104   0.471  11.639 -0.7887  0.0601  0.6328
 9320TIP3    H149375   1.084   0.482  11.546  0.1801  0.5655  0.4668
 9320TIP3    H249376   1.121   0.560  11.671 -0.0487 -0.2108  1.0261
 9321TIP3   OH249377   1.911   1.370  15.387 -0.4083 -0.2325  0.1366
 9321TIP3    H149378   1.888   1.307  15.456 -2.1956  0.3083  0.0947
 9321TIP3    H249379   1.860   1.341  15.311  0.9110 -0.3441 -0.7346
 9322TIP3   OH249380   4.860   3.617   5.259 -0.2412 -0.1677  0.6779
 9322TIP3    H149381   4.829   3.642   5.346 -0.8979  3.3613 -0.3954
 9322TIP3    H249382   4.950   3.649   5.255 -0.1109 -0.5855  0.1675
 9323TIP3   OH249383   1.373   4.695  11.259  0.0108 -0.1433  0.8264
 9323TIP3    H149384   1.318   4.617  11.258 -0.9395  0.4792  2.0255
 9323TIP3    H249385   1.316   4.766  11.231  0.8359  0.1609 -0.1425
 9324TIP3   OH249386   1.962   3.213  14.680 -0.2664 -0.4166 -0.3787
 9324TIP3    H149387   2.047   3.254  14.696 -0.5186  0.7028 -1.6877
 9324TIP3    H249388   1.976   3.157  14.603 -1.2832  2.0353 -2.5356
 9325TIP3   OH249389   2.343   5.005  11.396  0.5108  0.4727  0.2322
 9325TIP3    H149390   2.392   5.070  11.446 -0.9277  1.7801  0.0080
 9325TIP3    H249391   2.333   4.930  11.455  0.2609  1.3373  1.3047
 9326TIP3   OH249392   1.371   5.222   1.764  0.3971  0.3904 -0.1432
 9326TIP3    H149393   1.355   5.272   1.684  0.0368  1.1399  0.3922
 9326TIP3    H249394   1.288   5.178   1.781  1.0006 -1.2526 -1.1766
 9327TIP3   OH249395   0.184   3.687  16.388 -0.5801  0.6193 -0.3736
 9327TIP3    H149396   0.190   3.763  16.446 -0.1100 -0.2663  0.7772
 9327TIP3    H249397   0.095   3.655  16.399  0.5041 -1.8089  2.9302
 9328TIP3   OH249398   6.411   1.692  13.438  0.0086 -0.4605 -0.4484
 9328TIP3    H149399   6.367   1.776  13.430  0.9544  0.1133  0.1840
 9328TIP3    H249400   6.483   1.696  13.375  0.1703 -0.7263 -0.2854
 9329TIP3   OH249401   6.370   4.411   6.080 -0.7042 -0.5699 -0.0342
 9329TIP3    H149402   6.372   4.333   6.136 -1.9084  0.2958  1.2803
 9329TIP3    H249403   6.386   4.484   6.140  2.8174  0.1265 -1.5846
 9330TIP3   OH249404   0.311   1.616   5.346 -0.2937 -0.2568  0.1374
 9330TIP3    H149405   0.287   1.561   5.271 -0.3182  0.6577 -0.5431
 9330TIP3    H249406   0.241   1.681   5.351  0.1579  0.2084  0.4188
 9331TIP3   OH249407   3.827   1.941   0.878  0.1989  0.0800  0.3329
 9331TIP3    H149408   3.799   1.849   0.873  1.9869 -0.5071  0.3056
 9331TIP3    H249409   3.907   1.939   0.931 -0.5271  1.8416  1.5777
 9332TIP3   OH249410   0.740   4.035  11.970  0.6176 -0.8201  0.1352
 9332TIP3    H149411   0.827   4.036  12.010 -0.2665 -1.4227  2.1903
 9332TIP3    H249412   0.680   4.023  12.043 -1.0414 -3.2553 -1.4674
 9333TIP3   OH249413   1.537   2.848   1.086  0.2691 -0.1464 -0.5127
 9333TIP3    H149414   1.551   2.931   1.132 -2.0433  0.3273 -0.5617
 9333TIP3    H249415   1.582   2.783   1.140 -0.0673  0.7835  0.9246
 9334TIP3   OH249416   6.570   1.392  13.779  0.4636  0.4205  0.3077
 9334TIP3    H149417   6.548   1.383  13.686  0.2203  0.0891  0.3947
 9334TIP3    H249418   6.550   1.483  13.800 -0.0692  0.3390  0.1803
 9335TIP3   OH249419   2.061   3.868  17.072 -0.2244  0.6545 -0.3582
 9335TIP3    H149420   2.090   3.926  17.001  0.7139  1.0860  0.3507
 9335TIP3    H249421   2.135   3.810  17.088 -0.9142 -0.3292 -0.6067
 9336TIP3   OH249422   0.969   6.595   1.571 -0.3546 -0.1567 -0.2143
 9336TIP3    H149423   1.053   6.583   1.527 -1.5670 -0.5245 -2.5654
 9336TIP3    H249424   0.978   6.545   1.652  1.3156 -1.1098 -0.9229
 9337TIP3   OH249425   3.416   0.733  11.080 -0.3975  0.2549 -0.2940
 9337TIP3    H149426   3.464   0.753  10.999  0.1143  0.5101  0.0700
 9337TIP3    H249427   3.394   0.818  11.117  1.0056  0.1834  0.7928
 9338TIP3   OH249428   5.283   3.540   1.395  0.6590 -0.0956  0.4912
 9338TIP3    H149429   5.294   3.497   1.310 -1.7884  1.1703 -0.5754
 9338TIP3    H249430   5.237   3.477   1.449 -0.4313  0.1470 -0.1367
 9339TIP3   OH249431   3.723   3.017   5.696 -0.2133 -0.5897 -0.7088
 9339TIP3    H149432   3.768   3.089   5.740 -2.1837  0.2203  0.0552
 9339TIP3    H249433   3.765   2.938   5.731  0.9998  0.1345 -0.4809
 9340TIP3   OH249434   1.779   4.111   2.583  0.6149  0.2291  0.1762
 9340TIP3    H149435   1.734   4.190   2.554  0.2494  0.5495  1.5326
 9340TIP3    H249436   1.708   4.051   2.610  0.9329  0.0293  0.5835
 9341TIP3   OH249437   3.776   5.830  10.603 -0.4637  0.1826  0.3206
 9341TIP3    H149438   3.725   5.752  10.585 -0.0446 -0.4666  1.7826
 9341TIP3    H249439   3.711   5.899  10.615 -0.8451  0.0152 -0.6857
 9342TIP3   OH249440   3.414   2.929  15.220 -1.1524 -0.7158  0.3968
 9342TIP3    H149441   3.383   3.002  15.167  0.8845 -0.5716 -0.6669
 9342TIP3    H249442   3.363   2.853  15.189 -0.3321 -0.5467 -1.4722
 9343TIP3   OH249443   1.955   1.994   2.855 -0.4072  0.1103  0.0168
 9343TIP3    H149444   2.040   2.031   2.881 -0.3698  0.4857 -0.6326
 9343TIP3    H249445   1.976   1.935   2.782 -0.2502 -2.3605  1.9134
 9344TIP3   OH249446   5.602   0.201  16.628 -0.1761 -0.6854 -0.1168
 9344TIP3    H149447   5.678   0.174  16.679 -0.7830 -0.1595  1.0922
 9344TIP3    H249448   5.527   0.188  16.686 -0.6755  1.9070 -0.0708
 9345TIP3   OH249449   1.146   3.429   3.896 -0.2494 -0.2584 -0.2406
 9345TIP3    H149450   1.161   3.478   3.815 -2.4456 -1.3453 -1.4023
 9345TIP3    H249451   1.174   3.340   3.876 -1.4158 -0.6864 -0.0774
 9346TIP3   OH249452   4.323   1.948  17.222 -0.0428 -0.3975  0.4177
 9346TIP3    H149453   4.326   2.029  17.273 -1.3276 -0.3646  0.4630
 9346TIP3    H249454   4.252   1.898  17.261  1.6414 -2.2101  1.3318
 9347TIP3   OH249455   0.880   5.559  14.867  0.4655 -0.0585  0.3059
 9347TIP3    H149456   0.843   5.543  14.780  1.7062  1.3413 -0.5202
 9347TIP3    H249457   0.893   5.472  14.903 -1.2766 -0.6428 -0.3668
 9348TIP3   OH249458   1.140   3.874   5.211  0.3476  0.1280  0.4835
 9348TIP3    H149459   1.060   3.927   5.215  0.6589  0.5491  2.3297
 9348TIP3    H249460   1.110   3.786   5.191 -0.3307  0.6947 -1.1147
 9349TIP3   OH249461   0.595   1.231  13.241  0.0683  0.0805  0.1388
 9349TIP3    H149462   0.623   1.232  13.332  1.2043 -0.0705 -0.1921
 9349TIP3    H249463   0.633   1.310  13.203  0.3676 -0.3228 -0.4151
 9350TIP3   OH249464   4.130   1.508  17.239  0.6484  0.2312  0.2048
 9350TIP3    H149465   4.144   1.556  17.321 -1.3119 -0.3934  0.9578
 9350TIP3    H249466   4.037   1.487  17.239  1.2370 -2.8582 -0.4831
 9351TIP3   OH249467   3.641   1.058  13.313  0.1229  0.0806 -0.0423
 9351TIP3    H149468   3.725   1.016  13.294  0.9597  1.4480  0.4699
 9351TIP3    H249469   3.641   1.137  13.259 -0.0483  0.9937  1.2366
 9352TIP3   OH249470   4.206   1.974  13.345 -0.0637  0.3599  0.3204
 9352TIP3    H149471   4.222   1.963  13.251 -2.1064 -0.4746  0.0182
 9352TIP3    H249472   4.235   2.063  13.364  0.7092  0.4240 -1.0091
 9353TIP3   OH249473   6.531   4.669  16.308  0.2300  0.3858 -0.0777
 9353TIP3    H149474   6.594   4.732  16.274 -0.3243  0.8155 -0.3431
 9353TIP3    H249475   6.576   4.625  16.380 -0.3921  3.3841  2.3817
 9354TIP3   OH249476   1.953   5.172   2.674  0.4019  0.2608  0.1351
 9354TIP3    H149477   2.030   5.173   2.619  0.4952 -2.1621  0.0842
 9354TIP3    H249478   1.889   5.226   2.628  1.3961  0.6037 -0.8769
 9355TIP3   OH249479   2.302   0.932   4.693 -0.2955 -0.5677  0.2972
 9355TIP3    H149480   2.332   0.985   4.619 -2.5959  1.2897  0.5724
 9355TIP3    H249481   2.366   0.862   4.700  0.8427  0.0713 -2.4727
 9356TIP3   OH249482   6.297   2.842   4.887 -0.0360  0.4424 -0.1183
 9356TIP3    H149483   6.323   2.806   4.971 -1.4065  0.0658  0.1695
 9356TIP3    H249484   6.208   2.874   4.901  0.5515  2.5410 -0.7858
 9357TIP3   OH249485   0.976   1.658   0.516  0.4510 -0.3175 -0.0211
 9357TIP3    H149486   0.941   1.665   0.428 -1.1018 -1.4741  0.4730
 9357TIP3    H249487   0.979   1.748   0.548 -3.0701 -0.1595  0.2363
 9358TIP3   OH249488   1.651   4.191   1.293  0.3111 -0.3480 -0.3868
 9358TIP3    H149489   1.738   4.212   1.260 -0.4454  0.1079 -2.1860
 9358TIP3    H249490   1.627   4.110   1.248 -1.2574  0.9650 -2.0439
 9359TIP3   OH249491   6.330   3.216  11.443  0.7011 -0.4710  0.0508
 9359TIP3    H149492   6.338   3.245  11.534 -1.1890  1.7223 -0.3833
 9359TIP3    H249493   6.270   3.279  11.404  2.9446 -0.1322 -3.2438
 9360TIP3   OH249494   3.912   3.378   0.758 -0.5773 -0.4804  0.0534
 9360TIP3    H149495   4.006   3.396   0.747 -0.4170 -1.1051  0.3111
 9360TIP3    H249496   3.873   3.462   0.779 -0.1957 -0.0688 -0.8416
 9361TIP3   OH249497   0.649   3.673   5.713 -0.0789  1.0725 -0.3055
 9361TIP3    H149498   0.605   3.661   5.629  0.4392 -0.4889 -0.3945
 9361TIP3    H249499   0.742   3.667   5.691  0.0504 -2.0015  0.6580
 9362TIP3   OH249500   1.048   3.137  11.445  0.1094 -0.4354 -0.3163
 9362TIP3    H149501   1.123   3.110  11.499 -0.8115 -0.0333  1.2472
 9362TIP3    H249502   1.015   3.056  11.408 -0.7202 -1.1257  1.7789
 9363TIP3   OH249503   5.785   2.879  11.775 -0.6426  0.3828  0.6310
 9363TIP3    H149504   5.720   2.935  11.732 -1.1567 -0.0097  0.8804
 9363TIP3    H249505   5.823   2.827  11.704 -0.4866  0.7289  0.4606
 9364TIP3   OH249506   3.447   1.863   5.474 -0.6700  0.6435  0.2903
 9364TIP3    H149507   3.473   1.785   5.524  0.3099  0.1302 -0.9431
 9364TIP3    H249508   3.499   1.933   5.512  1.9449 -0.1842 -1.4524
 9365TIP3   OH249509   5.781   3.442   3.065 -1.0019 -0.1219 -0.1630
 9365TIP3    H149510   5.862   3.430   3.014 -2.1096 -1.2224 -1.7347
 9365TIP3    H249511   5.772   3.538   3.071 -0.4909  0.0361 -1.4778
 9366TIP3   OH249512   2.616   4.383   0.359 -0.0699 -0.7639  0.3736
 9366TIP3    H149513   2.662   4.460   0.390  0.1501 -0.4526 -0.6713
 9366TIP3    H249514   2.557   4.416   0.291 -1.4490 -1.2378  1.2928
 9367TIP3   OH249515   2.928   2.612   6.189 -0.3988 -0.4179 -0.0116
 9367TIP3    H149516   3.020   2.613   6.162  0.1724  1.4556  1.8423
 9367TIP3    H249517   2.918   2.528   6.234  0.3798 -0.6583 -0.2586
 9368TIP3   OH249518   1.212   1.812   2.776 -0.3363 -0.4700 -0.4142
 9368TIP3    H149519   1.221   1.898   2.734  1.4750 -0.6030 -0.3797
 9368TIP3    H249520   1.301   1.779   2.781 -0.7562 -1.4668  1.4576
 9369TIP3   OH249521   3.566   1.450  17.200  0.0956  0.2688 -0.5620
 9369TIP3    H149522   3.491   1.505  17.177  0.1689 -0.0533 -1.5803
 9369TIP3    H249523   3.528   1.375  17.244 -0.3001 -0.4481 -2.0744
 9370TIP3   OH249524   6.190   1.596   2.444 -0.4706 -0.1687 -0.1538
 9370TIP3    H149525   6.177   1.690   2.449 -1.1806 -0.3264  3.4637
 9370TIP3    H249526   6.252   1.584   2.372  1.3901  3.2465  0.6794
 9371TIP3   OH249527   4.846   3.113   4.731 -0.1952 -0.0477 -0.3584
 9371TIP3    H149528   4.822   3.045   4.668  0.1994  0.1712 -0.7513
 9371TIP3    H249529   4.772   3.117   4.792  0.0279 -1.2583  0.0295
 9372TIP3   OH249530   6.038   5.224   4.413  0.2913 -0.6503 -0.4576
 9372TIP3    H149531   6.008   5.215   4.504  1.8515 -0.5670  0.0958
 9372TIP3    H249532   6.104   5.156   4.403  0.2493 -0.5505 -1.4828
 9373TIP3   OH249533   0.676   4.345   1.525 -0.0656 -0.0676  0.3323
 9373TIP3    H149534   0.724   4.304   1.453 -0.4676  1.2870 -0.7513
 9373TIP3    H249535   0.744   4.370   1.587  0.3169 -0.9704  0.3014
 9374TIP3   OH249536   6.180   2.005  14.775  0.0538  0.0248  0.3070
 9374TIP3    H149537   6.140   1.921  14.798 -0.3501  0.4729  1.2860
 9374TIP3    H249538   6.243   1.984  14.706 -1.0635 -0.8679 -0.4840
 9375TIP3   OH249539   6.013   5.098  10.788  0.0038 -0.4315  0.2861
 9375TIP3    H149540   6.054   5.012  10.783 -0.7307 -0.8623  1.2865
 9375TIP3    H249541   6.078   5.153  10.832  0.5043 -0.4362 -0.4222
 9376TIP3   OH249542   3.422   2.518  15.348  0.4540  0.1135  0.0700
 9376TIP3    H149543   3.381   2.506  15.262  0.1924 -0.4823  0.2766
 9376TIP3    H249544   3.515   2.533  15.328  0.6265 -1.2626 -0.2645
 9377TIP3   OH249545   1.989   5.412   2.040 -0.6033 -0.1952 -0.3110
 9377TIP3    H149546   1.898   5.385   2.032 -1.1212  1.5993 -0.8612
 9377TIP3    H249547   2.034   5.334   2.072 -2.5646 -0.7427  1.3472
 9378TIP3   OH249548   3.373   1.969  15.256 -0.5279  0.2255  0.4428
 9378TIP3    H149549   3.453   1.961  15.309 -1.3935 -0.1012  1.7445
 9378TIP3    H249550   3.352   2.062  15.259  0.3488  0.4813 -0.7611
 9379TIP3   OH249551   5.916   1.573  12.941 -0.1454  0.2427  0.1731
 9379TIP3    H149552   5.960   1.488  12.942 -1.0618 -0.2715 -0.7990
 9379TIP3    H249553   5.895   1.588  12.849 -0.7033  1.1547  0.4339
 9380TIP3   OH249554   5.215   4.974   4.428 -0.0806 -0.0962  0.2601
 9380TIP3    H149555   5.238   5.032   4.356  0.0033 -1.0048 -0.4603
 9380TIP3    H249556   5.120   4.977   4.434 -0.0351  0.6448  0.6836
 9381TIP3   OH249557   1.591   0.750  12.359  0.1885 -0.2255  0.0719
 9381TIP3    H149558   1.497   0.735  12.349  0.4292 -1.6668 -0.2877
 9381TIP3    H249559   1.599   0.793  12.443 -0.6143 -2.6440  1.4961
 9382TIP3   OH249560   1.285   4.380   0.072 -0.0896  0.4531  0.5993
 9382TIP3    H149561   1.372   4.399   0.036  1.1075 -0.3798  2.8090
 9382TIP3    H249562   1.245   4.466   0.083 -1.4930  0.7828 -4.4457
 9383TIP3   OH249563   5.713   6.198  13.000  0.0323 -0.0869 -0.1333
 9383TIP3    H149564   5.734   6.131  12.935 -2.3370 -0.1971 -0.8855
 9383TIP3    H249565   5.755   6.167  13.080 -1.5822 -2.9633 -0.2350
 9384TIP3   OH249566   2.450   6.378  11.481 -0.1668 -0.2588  0.1515
 9384TIP3    H149567   2.503   6.300  11.464  0.6945  0.6800 -1.7646
 9384TIP3    H249568   2.360   6.350  11.462  0.0632 -0.9498  0.0581
 9385TIP3   OH249569   2.921   2.025   3.348 -0.8562  0.0073  0.2437
 9385TIP3    H149570   2.942   1.933   3.331 -0.9275  0.0009  0.1916
 9385TIP3    H249571   2.870   2.052   3.272  0.6571  0.5809 -0.6217
 9386TIP3   OH249572   6.101   0.118  14.611  0.0040  0.0910 -0.4974
 9386TIP3    H149573   6.079   0.040  14.560  0.5435  0.6726 -1.6689
 9386TIP3    H249574   6.173   0.159  14.563  1.2701  0.1071  1.3277
 9387TIP3   OH249575   4.749   3.507  16.590  0.0932  0.2773  0.3049
 9387TIP3    H149576   4.804   3.470  16.659  1.5964 -1.3339 -1.6385
 9387TIP3    H249577   4.661   3.476  16.609  1.1085 -3.7547 -0.6632
 9388TIP3   OH249578   4.176   5.956   2.028  0.2450  0.2277  0.1165
 9388TIP3    H149579   4.103   5.939   2.088 -1.4320 -0.1855 -1.9125
 9388TIP3    H249580   4.224   5.873   2.026 -0.1639 -0.0205  0.2867
 9389TIP3   OH249581   3.710   1.304  11.803 -0.3205 -0.3313  0.6265
 9389TIP3    H149582   3.737   1.261  11.884  1.1562  0.4810  0.6005
 9389TIP3    H249583   3.785   1.294  11.744  1.0614  3.9616  1.2800
 9390TIP3   OH249584   2.590   0.876  13.533 -0.0179  0.1739  0.3429
 9390TIP3    H149585   2.578   0.901  13.625 -0.5178  1.3928 -0.0354
 9390TIP3    H249586   2.599   0.959  13.486 -1.2223 -0.3558 -0.9063
 9391TIP3   OH249587   4.265   5.001  13.767  0.7457 -0.2115  0.3714
 9391TIP3    H149588   4.308   5.031  13.687 -1.1386 -2.3469 -1.5942
 9391TIP3    H249589   4.174   5.028  13.758  0.5045 -0.4647  1.8136
 9392TIP3   OH249590   2.819   0.632  11.121 -0.3594 -0.1674  0.2617
 9392TIP3    H149591   2.806   0.542  11.149 -4.2539  0.8758  2.5934
 9392TIP3    H249592   2.769   0.640  11.040 -0.0635 -0.0719  0.0849
 9393TIP3   OH249593   0.221   6.274  11.369  0.3384 -0.3026  0.0982
 9393TIP3    H149594   0.140   6.324  11.362  0.7295  0.0880 -2.6855
 9393TIP3    H249595   0.273   6.321  11.434  0.7234  3.1009 -2.3877
 9394TIP3   OH249596   1.649   3.847  15.944  0.3139 -0.2859  0.5715
 9394TIP3    H149597   1.727   3.808  15.905  1.0384  0.1348  1.5647
 9394TIP3    H249598   1.613   3.903  15.874  0.9822 -0.3647  0.1557
 9395TIP3   OH249599   6.478   4.535  13.834 -0.0949 -0.2966  0.2522
 9395TIP3    H149600   6.507   4.624  13.852  1.8276 -0.7654 -0.3270
 9395TIP3    H249601   6.468   4.531  13.739 -0.6754 -0.5753  0.3173
 9396TIP3   OH249602   0.492   6.284  14.550 -0.7545 -0.6485  0.3987
 9396TIP3    H149603   0.426   6.285  14.619  0.1816 -1.1813  1.3209
 9396TIP3    H249604   0.516   6.192  14.541 -0.8137 -0.5795 -0.6114
 9397TIP3   OH249605   6.029   2.042  13.240  0.1442 -0.2943 -0.4647
 9397TIP3    H149606   6.005   1.950  13.232 -0.0772 -0.2456 -0.3711
 9397TIP3    H249607   6.079   2.061  13.161  0.7735 -0.6731 -0.1594
 9398TIP3   OH249608   5.659   0.185   0.381 -0.1492  0.3243 -0.5003
 9398TIP3    H149609   5.632   0.229   0.300 -2.5964 -1.4293 -0.7489
 9398TIP3    H249610   5.718   0.115   0.353  0.5394  0.9085 -0.5333
 9399TIP3   OH249611   1.507   3.093  12.465  0.1067 -0.2288  0.3884
 9399TIP3    H149612   1.523   3.002  12.440 -0.1247  0.2068 -1.5077
 9399TIP3    H249613   1.448   3.087  12.540 -0.8202 -1.6410 -0.4023
 9400TIP3   OH249614   1.687   0.084  15.330 -0.8442 -0.0688  0.1455
 9400TIP3    H149615   1.725   0.038  15.255 -2.2235 -1.6166  0.3476
 9400TIP3    H249616   1.712   0.175  15.316  0.9784 -0.6668 -0.8994
 9401TIP3   OH249617   3.598   2.606  13.120 -0.1382 -0.3515  0.5612
 9401TIP3    H149618   3.648   2.552  13.059 -1.0785  1.3638 -1.9254
 9401TIP3    H249619   3.516   2.558  13.133  0.7852 -1.6174  2.0711
 9402TIP3   OH249620   6.549   0.647  13.167  0.3044 -0.1288  0.0272
 9402TIP3    H149621   6.486   0.606  13.109 -1.1429  1.1315  0.6461
 9402TIP3    H249622   6.503   0.656  13.251  0.7227  2.1462  0.0916
 9403TIP3   OH249623   0.885   3.709   5.613  0.4929  0.3432  0.1538
 9403TIP3    H149624   0.875   3.687   5.521 -0.3408  3.3483 -0.5533
 9403TIP3    H249625   0.915   3.799   5.614 -0.4685  0.7352  2.8352
 9404TIP3   OH249626   1.831   0.993   1.050 -0.1733 -0.2998  0.0363
 9404TIP3    H149627   1.836   1.078   1.006  0.6941  0.3408  1.3056
 9404TIP3    H249628   1.753   0.999   1.105  0.2321 -0.0586  0.6029
 9405TIP3   OH249629   4.061   0.795   4.804  0.0094 -0.0941  0.4751
 9405TIP3    H149630   4.131   0.818   4.864 -1.3490  0.4132  1.9174
 9405TIP3    H249631   4.085   0.838   4.722  2.3307 -1.5073  0.3153
 9406TIP3   OH249632   2.185   0.291   4.068 -0.6205  0.4119 -0.3573
 9406TIP3    H149633   2.114   0.239   4.030 -1.5805  0.6592  1.0267
 9406TIP3    H249634   2.159   0.302   4.160  0.9438  0.9873  0.0297
 9407TIP3   OH249635   5.868   6.601   5.468 -0.3951 -0.6251 -0.2808
 9407TIP3    H149636   5.813   6.582   5.544 -0.3025  0.8318  0.1730
 9407TIP3    H249637   5.885   6.695   5.473  0.0669 -0.6011 -1.8064
 9408TIP3   OH249638   0.999   3.115   4.519 -0.4174 -0.2666 -0.5535
 9408TIP3    H149639   0.958   3.176   4.580  0.2234  0.0939 -0.4643
 9408TIP3    H249640   0.930   3.091   4.457 -0.4083  1.4515 -1.2809
 9409TIP3   OH249641   5.592   0.915  14.865  0.3115 -0.3539 -0.5329
 9409TIP3    H149642   5.510   0.923  14.913  0.9343  2.2055  0.2883
 9409TIP3    H249643   5.649   0.863  14.921  0.7525  1.8855  1.2479
 9410TIP3   OH249644   4.475   5.640  15.016 -0.0742  0.7376 -0.2082
 9410TIP3    H149645   4.543   5.586  15.055  0.9222  1.9902 -0.1580
 9410TIP3    H249646   4.431   5.581  14.954  0.5266 -0.3081  0.3302
 9411TIP3   OH249647   1.130   4.888   2.802 -0.4586 -0.1338  0.3250
 9411TIP3    H149648   1.158   4.941   2.728  1.6504  2.2185  2.5912
 9411TIP3    H249649   1.186   4.811   2.800  0.3686  0.4595  0.0685
 9412TIP3   OH249650   0.894   2.074   2.869 -0.5490 -0.3260  0.4661
 9412TIP3    H149651   0.908   2.168   2.859  0.0635 -0.2680  1.6623
 9412TIP3    H249652   0.813   2.056   2.821  0.9932  0.1966 -2.5932
 9413TIP3   OH249653   3.960   3.519  15.158  0.4957 -0.4933  0.0147
 9413TIP3    H149654   3.949   3.424  15.151  1.9530 -0.6785 -0.0967
 9413TIP3    H249655   3.929   3.554  15.075 -0.7721 -0.7868  0.3501
 9414TIP3   OH249656   3.596   0.274  17.043 -0.7959 -0.0788 -0.0379
 9414TIP3    H149657   3.607   0.183  17.019  0.9588 -0.2815  1.3289
 9414TIP3    H249658   3.633   0.281  17.131 -0.2598  2.0678 -0.3576
 9415TIP3   OH249659   6.055   5.672  15.658  0.1129  0.4308 -0.2995
 9415TIP3    H149660   6.005   5.605  15.705  0.2162  0.2116 -0.4989
 9415TIP3    H249661   6.077   5.631  15.575  3.1363 -0.6222  0.8724
 9416TIP3   OH249662   3.472   2.529  14.848 -0.1124  0.0360 -0.0657
 9416TIP3    H149663   3.547   2.583  14.875  0.8252 -0.6842 -1.0995
 9416TIP3    H249664   3.444   2.567  14.765  0.0681 -0.5891 -0.4185
 9417TIP3   OH249665   5.293   0.771   1.951  0.2109 -0.7305 -0.6487
 9417TIP3    H149666   5.266   0.821   2.028 -0.4872  0.3354 -1.5554
 9417TIP3    H249667   5.310   0.683   1.984  0.0658 -0.2576  0.7419
 9418TIP3   OH249668   4.574   2.271  15.297  0.3599  0.3388  0.2409
 9418TIP3    H149669   4.598   2.309  15.382 -0.6701  4.7490 -1.1788
 9418TIP3    H249670   4.480   2.255  15.303  0.8934 -3.3245  1.1086
 9419TIP3   OH249671   1.988   3.375   4.780  0.7610  1.0788  0.4680
 9419TIP3    H149672   1.897   3.361   4.806  1.2462  0.4924  1.9943
 9419TIP3    H249673   1.990   3.465   4.747 -0.0901  1.6727  1.8931
 9420TIP3   OH249674   0.170   4.594   1.987  0.1003  0.0668  0.1476
 9420TIP3    H149675   0.231   4.667   1.994 -2.6223  2.3719  2.3916
 9420TIP3    H249676   0.095   4.631   1.940 -0.5121 -1.9677 -0.5623
 9421TIP3   OH249677   6.503   1.819   4.046 -0.2307 -0.2574  0.4000
 9421TIP3    H149678   6.474   1.809   3.956 -1.2257  1.6024  0.4732
 9421TIP3    H249679   6.423   1.816   4.098  0.1957 -0.0346  1.0895
 9422TIP3   OH249680   6.044   3.459   1.057 -0.1132  0.1906  0.1650
 9422TIP3    H149681   6.034   3.367   1.078  1.5852  0.0869  0.6845
 9422TIP3    H249682   6.062   3.461   0.963 -0.2374 -0.0053  0.1382
 9423TIP3   OH249683   4.169   5.383  13.027  0.1656  0.2616  0.4011
 9423TIP3    H149684   4.074   5.385  13.019  0.0789 -1.5639  0.5374
 9423TIP3    H249685   4.200   5.396  12.937 -0.2641 -0.1748  0.1802
 9424TIP3   OH249686   0.239   0.856  11.200  0.1998 -0.1423  0.0538
 9424TIP3    H149687   0.300   0.837  11.129  0.6826 -1.4410  0.7870
 9424TIP3    H249688   0.158   0.881  11.156  1.0840  1.1066 -0.9357
 9425TIP3   OH249689   1.115   2.156   3.038 -0.5604  0.1790 -0.0229
 9425TIP3    H149690   1.046   2.100   3.002  0.0759 -0.8726  0.3571
 9425TIP3    H249691   1.074   2.242   3.045 -0.2322  0.9995 -4.9413
 9426TIP3   OH249692   4.465   3.651   1.273 -0.7983  0.5432  0.1188
 9426TIP3    H149693   4.396   3.626   1.335 -1.9944  1.7537 -0.6579
 9426TIP3    H249694   4.483   3.743   1.293 -0.2116  0.5558 -0.4285
 9427TIP3   OH249695   3.121   2.994   5.209 -0.0295 -0.0549 -0.3694
 9427TIP3    H149696   3.056   3.014   5.142 -0.0923  1.1412  0.0280
 9427TIP3    H249697   3.199   3.043   5.183  0.1311 -0.0419  0.1183
 9428TIP3   OH249698   6.513   0.747   4.445  0.8928  0.4972 -0.1855
 9428TIP3    H149699   6.513   0.830   4.398  0.4330  1.1379  0.9199
 9428TIP3    H249700   6.605   0.733   4.468  0.7733  1.5971  1.1125
 9429TIP3   OH249701   1.956   0.265  10.912 -0.5397 -0.0303 -0.7493
 9429TIP3    H149702   2.051   0.257  10.924 -0.4562  2.0989  0.5656
 9429TIP3    H249703   1.918   0.199  10.969  0.1250 -0.5662 -0.9102
 9430TIP3   OH249704   1.770   2.420   4.789 -0.3843  0.2346  0.9035
 9430TIP3    H149705   1.690   2.470   4.776  1.4101  3.1340 -0.0487
 9430TIP3    H249706   1.796   2.440   4.879 -1.7356 -2.4457  1.9778
 9431TIP3   OH249707   3.508   4.047   2.075 -0.2885 -0.4539  0.0269
 9431TIP3    H149708   3.450   4.024   2.002 -1.5564  0.9314  0.5357
 9431TIP3    H249709   3.503   4.143   2.079  0.1136 -0.4858  1.6513
 9432TIP3   OH249710   2.993   4.961  13.224  0.1820  0.0630 -0.0342
 9432TIP3    H149711   2.981   4.977  13.130  1.6336 -0.4803 -0.3294
 9432TIP3    H249712   3.087   4.968  13.238  0.2452 -2.0715  0.9744
 9433TIP3   OH249713   5.962   2.375   4.767  0.3415  0.7722  0.6856
 9433TIP3    H149714   6.004   2.345   4.686 -0.5586 -1.8942  1.1384
 9433TIP3    H249715   5.892   2.433   4.737  0.5717  0.5219 -0.3845
 9434TIP3   OH249716   6.625   5.723   0.264  0.5707 -0.3156  0.4232
 9434TIP3    H149717   6.720   5.713   0.254  0.4020 -0.6068 -0.9519
 9434TIP3    H249718   6.588   5.639   0.237 -0.1944  0.4699 -1.0788
 9435TIP3   OH249719   1.746   3.316  16.913 -1.1856  0.3761  0.0523
 9435TIP3    H149720   1.705   3.275  16.989  0.7257 -0.2418  0.8170
 9435TIP3    H249721   1.818   3.368  16.949 -0.0698 -0.1403 -1.3128
 9436TIP3   OH249722   1.880   3.123  15.577  0.2939  0.3068  0.4502
 9436TIP3    H149723   1.845   3.100  15.664 -0.7280  2.1985  0.5838
 9436TIP3    H249724   1.974   3.133  15.592  0.0956  0.9020  1.4303
 9437TIP3   OH249725   3.531   0.992  11.448 -0.4425  0.5079 -0.3424
 9437TIP3    H149726   3.575   1.027  11.371 -2.4301 -0.6369 -2.0934
 9437TIP3    H249727   3.523   0.898  11.431 -0.5389  0.1404  1.4922
 9438TIP3   OH249728   5.187   1.649  17.077 -0.2046 -0.0823 -0.3601
 9438TIP3    H149729   5.233   1.580  17.029  0.5819 -0.2929  0.6664
 9438TIP3    H249730   5.104   1.659  17.031  1.5560  1.6411 -3.5092
 9439TIP3   OH249731   5.081   0.645   6.101 -0.2332  0.5944 -0.2156
 9439TIP3    H149732   5.140   0.717   6.124  1.9381 -0.3582 -2.2960
 9439TIP3    H249733   5.008   0.688   6.056  1.2737  1.5595 -1.8946
 9440TIP3   OH249734   1.146   4.092  15.298 -0.3515  0.5875 -0.0611
 9440TIP3    H149735   1.053   4.107  15.316 -0.2899  0.4193  0.4161
 9440TIP3    H249736   1.154   4.101  15.203 -0.4483  2.7526  0.0941
 9441TIP3   OH249737   4.866   3.830   0.898 -0.2423  0.2341  0.1339
 9441TIP3    H149738   4.910   3.775   0.834  0.3494  0.0020  0.7368
 9441TIP3    H249739   4.831   3.769   0.963 -1.0827  0.4474 -0.1030
 9442TIP3   OH249740   1.887   0.472  17.171 -0.2623  0.6248 -0.8059
 9442TIP3    H149741   1.864   0.519  17.091 -2.6383 -0.7569 -1.0293
 9442TIP3    H249742   1.892   0.380  17.144 -0.2961  0.2306  0.4678
 9443TIP3   OH249743   0.061   0.404  11.272  0.4142  0.4628  0.3866
 9443TIP3    H149744   0.119   0.479  11.258  0.7065  0.5391  1.9178
 9443TIP3    H249745  -0.025   0.443  11.284  0.3405  0.4557 -0.0733
 9444TIP3   OH249746   6.320   2.211  16.643 -0.5118 -0.2456 -0.4976
 9444TIP3    H149747   6.319   2.306  16.635  2.4884  0.1488  1.9023
 9444TIP3    H249748   6.253   2.191  16.708  0.9577  0.6649  1.3803
 9445TIP3   OH249749   0.732   2.372   4.276 -0.0785 -0.0380  0.3502
 9445TIP3    H149750   0.820   2.345   4.303  0.7021  1.4018 -0.6380
 9445TIP3    H249751   0.718   2.327   4.193 -0.4067 -0.5008  0.6538
 9446TIP3   OH249752   4.219   0.868  11.983 -0.7789  0.0768 -0.7499
 9446TIP3    H149753   4.274   0.790  11.971 -0.7058 -0.5576  2.7001
 9446TIP3    H249754   4.130   0.834  11.988 -0.8654  0.3589 -0.3827
 9447TIP3   OH249755   5.523   4.864   1.963 -0.0531 -0.1793  0.1962
 9447TIP3    H149756   5.513   4.918   2.041 -1.8140 -1.6560  1.0590
 9447TIP3    H249757   5.601   4.811   1.980  0.7984  0.9415 -0.0163
 9448TIP3   OH249758   2.378   2.163   2.183 -0.1097  0.0210 -0.5039
 9448TIP3    H149759   2.416   2.097   2.241  1.2862 -0.2797 -1.6976
 9448TIP3    H249760   2.345   2.231   2.242  1.0160 -0.4029  0.6481
 9449TIP3   OH249761   0.478   5.309  17.121  0.4426 -0.2130 -0.5445
 9449TIP3    H149762   0.527   5.390  17.111 -0.4106  0.5103  0.7663
 9449TIP3    H249763   0.406   5.317  17.057  0.1033  0.2882 -0.1118
 9450TIP3   OH249764   0.921   3.617   4.240  0.0790  0.0852  0.3120
 9450TIP3    H149765   0.983   3.545   4.252 -2.0948 -1.6257  1.9730
 9450TIP3    H249766   0.948   3.682   4.306  1.0274  0.0601 -0.0368
 9451TIP3   OH249767   4.351   2.538  12.310 -0.1009 -0.3029  0.4524
 9451TIP3    H149768   4.260   2.511  12.320 -0.2669  0.4760  1.2065
 9451TIP3    H249769   4.400   2.482  12.369  0.4186 -2.9644 -2.2565
 9452TIP3   OH249770   0.279   0.124  13.402 -0.0105  0.2164 -0.1683
 9452TIP3    H149771   0.291   0.185  13.475 -0.8893  1.1722 -0.8034
 9452TIP3    H249772   0.316   0.170  13.327 -1.1856  0.2209 -0.7605
 9453TIP3   OH249773   3.212   0.655   3.307  0.0099 -0.0407 -0.6783
 9453TIP3    H149774   3.256   0.738   3.286  0.2581  0.1338  0.4573
 9453TIP3    H249775   3.132   0.657   3.255 -1.1198  1.9802  0.9622
 9454TIP3   OH249776   6.260   5.788  15.790 -0.1617 -0.6638 -0.1898
 9454TIP3    H149777   6.175   5.759  15.755 -1.6358  1.0039  1.7692
 9454TIP3    H249778   6.324   5.748  15.732 -2.1549 -3.8820 -0.4725
 9455TIP3   OH249779   5.486   2.886   0.112  0.1172 -0.1984  0.3687
 9455TIP3    H149780   5.540   2.958   0.145 -0.1018  0.3521 -0.4417
 9455TIP3    H249781   5.500   2.815   0.175  3.0361 -0.6375 -0.6437
 9456TIP3   OH249782   4.982   4.625   2.727 -0.6932  0.4053  0.2869
 9456TIP3    H149783   4.973   4.698   2.665 -1.0424  0.1611  0.0467
 9456TIP3    H249784   5.076   4.607   2.729 -0.5614  1.0879  0.6110
 9457TIP3   OH249785   4.428   3.857   3.208 -0.3738 -0.7362 -0.1451
 9457TIP3    H149786   4.408   3.802   3.284 -1.5144 -0.8298 -0.4830
 9457TIP3    H249787   4.477   3.931   3.244 -1.6434 -0.3332  0.8308
 9458TIP3   OH249788   3.438   1.815  16.112 -0.3764  0.4750  0.0626
 9458TIP3    H149789   3.510   1.754  16.095 -0.9795 -0.0196 -0.7744
 9458TIP3    H249790   3.406   1.839  16.025 -1.8162 -0.0322  0.4282
 9459TIP3   OH249791   4.199   2.643   3.563 -0.1041 -0.4925 -0.1121
 9459TIP3    H149792   4.186   2.697   3.486  0.7070  1.0720  0.7916
 9459TIP3    H249793   4.130   2.577   3.558 -1.0375  0.5272 -1.3443
 9460TIP3   OH249794   4.875   1.874  16.654  0.1643  0.6172  0.0842
 9460TIP3    H149795   4.934   1.893  16.582 -0.3440  0.3408 -0.4144
 9460TIP3    H249796   4.807   1.819  16.616  0.3761 -0.2916  0.9852
 9461TIP3   OH249797   2.722   2.776   3.217  0.2247  0.2733 -0.1929
 9461TIP3    H149798   2.716   2.840   3.288  2.7799 -0.2816  0.6234
 9461TIP3    H249799   2.696   2.693   3.258 -0.4949  0.3210 -0.5393
 9462TIP3   OH249800   5.443   3.184  14.940  0.4387  0.1908  0.2606
 9462TIP3    H149801   5.538   3.188  14.947  0.5762 -1.0830 -0.6375
 9462TIP3    H249802   5.419   3.264  14.893  1.2815 -0.4347 -1.2947
 9463TIP3   OH249803   1.795   0.369   4.028  0.0698  0.6957 -0.4574
 9463TIP3    H149804   1.702   0.349   4.023  0.6327 -2.0445 -1.1894
 9463TIP3    H249805   1.801   0.463   4.007 -2.7062  1.6139  2.1878
 9464TIP3   OH249806   4.548   3.830  14.562  0.8677 -0.1906  0.7902
 9464TIP3    H149807   4.582   3.869  14.482  0.7770 -0.8961  0.4023
 9464TIP3    H249808   4.604   3.865  14.631  0.7522  0.6654  0.4677
 9465TIP3   OH249809   1.410   5.767   5.847  0.3853 -0.3267  0.3497
 9465TIP3    H149810   1.330   5.721   5.874  0.6645 -0.6504  0.6257
 9465TIP3    H249811   1.457   5.785   5.928 -0.2605  1.4882  0.3757
 9466TIP3   OH249812   2.672   0.485   2.517  0.1450  0.4811 -0.0727
 9466TIP3    H149813   2.733   0.537   2.569 -0.6311  1.0519  0.2887
 9466TIP3    H249814   2.712   0.398   2.512  1.2463  0.9988 -0.3171
 9467TIP3   OH249815   5.077   1.002  12.240 -0.4365 -0.1882  0.1336
 9467TIP3    H149816   5.012   0.992  12.171  0.5869 -0.2724 -0.8457
 9467TIP3    H249817   5.154   0.956  12.207  0.5538  1.0409  0.6733
 9468TIP3   OH249818   5.714   2.842  16.516  0.2230 -0.4382  0.0050
 9468TIP3    H149819   5.650   2.772  16.508 -1.6780  1.3101 -0.8452
 9468TIP3    H249820   5.752   2.851  16.429  1.9594 -1.6688  0.5666
 9469TIP3   OH249821   6.452   0.210  16.476 -0.4930 -0.1139 -0.5444
 9469TIP3    H149822   6.475   0.118  16.467  1.5056  0.5467 -3.9880
 9469TIP3    H249823   6.522   0.247  16.529 -0.9621 -0.4081  0.3066
 9470TIP3   OH249824   1.069   3.224  12.067 -0.1441  0.8312 -0.5255
 9470TIP3    H149825   1.119   3.305  12.077 -0.1948  0.7301  0.7015
 9470TIP3    H249826   1.132   3.161  12.033  0.6674  0.6514  1.1998
 9471TIP3   OH249827   2.802   1.149  12.787 -0.5477 -0.6075 -0.4806
 9471TIP3    H149828   2.733   1.122  12.728 -0.3608  0.6951 -1.3312
 9471TIP3    H249829   2.832   1.234  12.753  1.4599 -1.1230 -0.1507
 9472TIP3   OH249830   0.509   4.580  14.736 -0.2573  0.1523  0.1986
 9472TIP3    H149831   0.504   4.593  14.641  2.2900  1.8234  0.1992
 9472TIP3    H249832   0.537   4.489  14.746  0.1108  0.1529 -0.6829
 9473TIP3   OH249833   1.576   3.684   4.358 -0.3793 -0.3441  0.1204
 9473TIP3    H149834   1.649   3.673   4.419 -1.4438  0.1132  1.5091
 9473TIP3    H249835   1.522   3.753   4.397 -0.6623  0.5638 -1.7629
 9474TIP3   OH249836   4.197   3.556   4.044 -0.3508 -0.3299 -0.0444
 9474TIP3    H149837   4.160   3.478   4.085 -0.8355  0.5933  1.3523
 9474TIP3    H249838   4.142   3.628   4.076  1.1082  0.7833  0.0679
 9475TIP3   OH249839   2.030   4.850  11.676  0.0316 -0.3691 -0.3790
 9475TIP3    H149840   2.009   4.913  11.746 -1.5235  0.8406 -1.8401
 9475TIP3    H249841   2.124   4.863  11.661 -0.3058  2.0012 -0.9248
 9476TIP3   OH249842   5.978   6.465   5.857  0.6311 -0.0922  0.2583
 9476TIP3    H149843   6.016   6.436   5.940 -1.4857  0.5852  1.5516
 9476TIP3    H249844   5.972   6.560   5.866  1.4335  0.1247 -1.1856
 9477TIP3   OH249845   6.553   6.512   3.956  0.4601  0.0484 -0.4689
 9477TIP3    H149846   6.544   6.453   4.031  0.1515 -1.4778 -1.6572
 9477TIP3    H249847   6.521   6.596   3.988  0.3116 -0.5715  1.1041
 9478TIP3   OH249848   3.451   1.581  11.471 -0.5051 -0.4633  0.0866
 9478TIP3    H149849   3.378   1.520  11.462  0.5267 -1.6547 -0.6557
 9478TIP3    H249850   3.454   1.628  11.388  0.0432 -0.9925 -0.2027
 9479TIP3   OH249851   0.706   5.820  16.809  0.0633 -0.3686  0.1455
 9479TIP3    H149852   0.720   5.725  16.805  0.8388 -0.2398 -0.4385
 9479TIP3    H249853   0.628   5.835  16.755  1.3378 -0.4327 -1.8353
 9480TIP3   OH249854   3.751   1.347   0.191  0.0484 -0.8079 -0.0625
 9480TIP3    H149855   3.726   1.422   0.244  1.5882 -1.2388  1.3675
 9480TIP3    H249856   3.669   1.318   0.150 -1.3165 -0.6814  2.3867
 9481TIP3   OH249857   5.615   2.379  10.845 -0.6639 -0.3531  0.0306
 9481TIP3    H149858   5.605   2.414  10.934 -0.2582  0.2226 -0.1381
 9481TIP3    H249859   5.603   2.285  10.854 -0.2863 -0.3395  0.7553
 9482TIP3   OH249860   0.625   4.986  12.501 -0.1922 -0.0957  0.9683
 9482TIP3    H149861   0.565   4.948  12.565  1.2195  0.0183  2.3985
 9482TIP3    H249862   0.699   4.926  12.497  0.1450  0.3455  0.0833
 9483TIP3   OH249863   3.009   5.969  12.629  0.2506 -0.2299  0.3836
 9483TIP3    H149864   3.073   5.915  12.581 -0.7453 -0.3190 -0.8963
 9483TIP3    H249865   2.980   6.034  12.565  0.5822  1.1306  1.5805
 9484TIP3   OH249866   6.551   4.967   1.102 -0.7921 -0.2085  0.3168
 9484TIP3    H149867   6.517   5.006   1.021  0.6376  0.7163  0.1211
 9484TIP3    H249868   6.551   4.873   1.085  0.3967  0.0106 -1.1757
 9485TIP3   OH249869   5.134   2.219   5.704 -0.1337  0.6452  1.1115
 9485TIP3    H149870   5.227   2.213   5.723  0.2054  0.5372 -0.4145
 9485TIP3    H249871   5.095   2.141   5.744  0.2649  1.1540  2.5337
 9486TIP3   OH249872   2.082   6.456   4.871  0.0308 -0.7833 -0.4371
 9486TIP3    H149873   2.004   6.458   4.927  0.3316 -2.7025  0.1058
 9486TIP3    H249874   2.085   6.366   4.838  1.7337 -0.5891 -0.8782
 9487TIP3   OH249875   1.891   5.527   2.409 -0.1178 -0.5323  0.0096
 9487TIP3    H149876   1.985   5.529   2.427  0.0340 -1.4573 -0.6301
 9487TIP3    H249877   1.852   5.576   2.482  0.9846  1.5641 -0.7355
 9488TIP3   OH249878   5.810   1.998   1.790  0.4281 -0.3859  0.1696
 9488TIP3    H149879   5.868   2.040   1.727 -0.8573 -0.6952 -1.2806
 9488TIP3    H249880   5.822   1.904   1.774 -1.7184 -0.4629 -1.4283
 9489TIP3   OH249881   1.897   0.235   0.099 -0.6378 -0.0161  0.5284
 9489TIP3    H149882   1.817   0.288   0.092 -0.9217 -0.3451  1.1602
 9489TIP3    H249883   1.932   0.258   0.185 -0.3478 -0.2877  0.4819
 9490TIP3   OH249884   3.677   3.948   3.391  0.4220 -0.1429  0.3623
 9490TIP3    H149885   3.679   3.853   3.386 -0.5761 -0.1961  0.7001
 9490TIP3    H249886   3.584   3.971   3.380  0.6861  0.8044 -0.0092
 9491TIP3   OH249887   5.369   2.004   1.283 -0.2328  0.0348  0.6069
 9491TIP3    H149888   5.429   2.060   1.234  1.0426 -2.0970 -0.3715
 9491TIP3    H249889   5.418   1.976   1.360 -1.8592  2.4800  2.7137
 9492TIP3   OH249890   4.848   5.742   2.203  0.0375  0.1734  0.1406
 9492TIP3    H149891   4.911   5.802   2.164  1.2693 -1.7209 -0.9214
 9492TIP3    H249892   4.773   5.797   2.224  1.7694  2.4105  0.8973
 9493TIP3   OH249893   0.183   2.054   6.432  0.3704  0.2434 -0.4529
 9493TIP3    H149894   0.266   2.046   6.384  1.4713 -0.5699  1.4949
 9493TIP3    H249895   0.119   2.010   6.375  1.2729  0.7747 -1.9349
 9494TIP3   OH249896   2.691   2.236  15.581 -0.2194  0.3124  0.3744
 9494TIP3    H149897   2.610   2.184  15.578 -0.0390  0.0786 -1.6125
 9494TIP3    H249898   2.723   2.236  15.491  0.5356  2.7383  0.5684
 9495TIP3   OH249899   6.011   0.618  14.730  0.4598  0.3175 -0.1383
 9495TIP3    H149900   6.051   0.531  14.730 -0.4469 -0.1183  0.9110
 9495TIP3    H249901   6.030   0.653  14.643  0.7942 -0.9501 -0.5947
 9496TIP3   OH249902   4.093   2.949  15.027  0.2144  0.2957 -0.3127
 9496TIP3    H149903   4.011   2.953  14.977 -0.6204 -1.0362  0.8763
 9496TIP3    H249904   4.067   2.916  15.113  1.8976  0.6462  0.3708
 9497TIP3   OH249905   1.795   1.320  16.324  0.0778  0.0868  0.2117
 9497TIP3    H149906   1.784   1.327  16.419  0.6350  2.2867  0.1550
 9497TIP3    H249907   1.706   1.326  16.290  0.0707  2.2939  0.4928
 9498TIP3   OH249908   4.960   1.583  11.248  0.0108 -0.0576  0.0688
 9498TIP3    H149909   5.046   1.602  11.285 -0.1164  0.5555  0.0601
 9498TIP3    H249910   4.922   1.669  11.230  1.0296 -0.2189 -3.7907
 9499TIP3   OH249911   3.725   1.116  10.381 -0.2009  0.0453  0.2797
 9499TIP3    H149912   3.792   1.171  10.341 -0.3578  0.0392  0.0084
 9499TIP3    H249913   3.643   1.156  10.355 -0.3625 -1.0900 -1.0707
 9500TIP3   OH249914   5.189   3.789   2.231  0.2561  0.5512  0.4015
 9500TIP3    H149915   5.171   3.858   2.167  1.3467  0.0981 -0.4054
 9500TIP3    H249916   5.106   3.741   2.237  1.0306 -1.5986 -3.3665
 9501TIP3   OH249917   5.845   1.988  15.487  0.2271  0.0292 -1.0370
 9501TIP3    H149918   5.873   1.959  15.574  0.3960  0.7492 -0.8426
 9501TIP3    H249919   5.909   1.951  15.427  1.7052  1.7438 -0.5885
 9502TIP3   OH249920   6.409   0.849  11.650  0.5258  0.6034  0.0822
 9502TIP3    H149921   6.488   0.902  11.639 -0.2885  1.6388 -0.9662
 9502TIP3    H249922   6.344   0.890  11.594 -0.6779 -0.4334  0.6638
 9503TIP3   OH249923   2.647   0.918   2.929 -0.5297 -0.4614  0.3334
 9503TIP3    H149924   2.719   0.928   2.867 -0.0942  0.5662  0.9801
 9503TIP3    H249925   2.568   0.915   2.875 -0.1295  0.0977 -0.2915
 9504TIP3   OH249926   2.537   6.291  13.179  0.0125 -0.1815  0.4850
 9504TIP3    H149927   2.562   6.325  13.094 -0.1414 -1.5176 -0.1270
 9504TIP3    H249928   2.443   6.305  13.185  0.3100  1.7056  1.3076
 9505TIP3   OH249929   2.331   1.114  13.368  0.1277 -0.1513  0.8012
 9505TIP3    H149930   2.414   1.082  13.332 -0.2557  0.4530 -0.6724
 9505TIP3    H249931   2.332   1.208  13.353 -1.9423 -0.4074 -1.7847
 9506TIP3   OH249932   2.133   3.951   1.959  0.5254 -0.1291 -0.2858
 9506TIP3    H149933   2.133   3.887   2.030 -1.3157  0.1495  0.0308
 9506TIP3    H249934   2.041   3.974   1.948  0.8981  0.7668 -1.9414
 9507TIP3   OH249935   4.677   2.357   3.652 -0.0597  0.1021 -0.0447
 9507TIP3    H149936   4.666   2.347   3.747  0.1854  1.0680  0.0954
 9507TIP3    H249937   4.589   2.377   3.620 -0.1794 -0.4247 -0.0526
 9508TIP3   OH249938   1.119   2.350  13.811  0.3151  0.0294  0.2152
 9508TIP3    H149939   1.163   2.396  13.882  1.6276 -1.2511  0.2753
 9508TIP3    H249940   1.157   2.387  13.731  0.8835 -0.4685  0.2501
 9509TIP3   OH249941   5.296   3.789   4.371  0.6383 -0.0155  0.3431
 9509TIP3    H149942   5.277   3.734   4.448 -2.0623  1.7174  1.0331
 9509TIP3    H249943   5.212   3.800   4.328  0.6659  4.5111  0.9691
 9510TIP3   OH249944   3.329   4.764   5.842  0.1069  0.1083 -0.1061
 9510TIP3    H149945   3.283   4.802   5.917  0.0383 -2.3406  1.2022
 9510TIP3    H249946   3.261   4.749   5.777 -0.3363 -0.1543  0.4043
 9511TIP3   OH249947   2.904   5.919   1.807  0.1532 -0.1180 -0.1855
 9511TIP3    H149948   2.999   5.905   1.801  0.2333  0.8213 -1.6738
 9511TIP3    H249949   2.867   5.860   1.743 -0.0644  1.1145 -1.2342
 9512TIP3   OH249950   2.410   1.392  17.166  0.3054  0.2328  0.0332
 9512TIP3    H149951   2.326   1.420  17.202 -0.2887 -0.4403 -0.7902
 9512TIP3    H249952   2.404   1.412  17.073  0.6400 -0.7771 -0.2118
 9513TIP3   OH249953   2.873   1.858  11.293 -0.3072  0.3119 -0.3385
 9513TIP3    H149954   2.846   1.818  11.211 -0.6996  0.1930 -0.1501
 9513TIP3    H249955   2.898   1.784  11.349 -2.2105  0.2083  0.4499
 9514TIP3   OH249956   6.255   6.095  12.902  0.0913 -0.0320  0.7771
 9514TIP3    H149957   6.329   6.100  12.841 -1.4360 -2.6850 -1.5302
 9514TIP3    H249958   6.178   6.107  12.848 -1.3061  1.1707  2.8817
 9515TIP3   OH249959   0.796   2.342   0.806  0.5344 -0.0156 -0.1483
 9515TIP3    H149960   0.796   2.411   0.872 -0.0320 -0.4931  0.3589
 9515TIP3    H249961   0.886   2.342   0.772  1.4924 -1.1747  2.1501
 9516TIP3   OH249962   4.791   1.066  12.723 -0.1723 -0.5294  0.2414
 9516TIP3    H149963   4.720   1.012  12.688 -0.5780  0.1233  0.0459
 9516TIP3    H249964   4.755   1.106  12.802 -0.8379  1.6049 -1.0642
 9517TIP3   OH249965   1.115   2.075   6.267  0.4008 -0.6864 -0.1243
 9517TIP3    H149966   1.066   1.993   6.263  0.2416 -0.5965 -0.0589
 9517TIP3    H249967   1.062   2.131   6.324  0.5369 -0.5578 -0.1237
 9518TIP3   OH249968   1.119   0.022   2.109 -0.3735  0.0479  0.3864
 9518TIP3    H149969   1.135   0.095   2.049  4.0369 -1.1772 -0.2090
 9518TIP3    H249970   1.155   0.051   2.193  0.2519 -0.9678  0.4787
 9519TIP3   OH249971   3.054   5.801  11.746 -0.1721  0.4231 -0.2772
 9519TIP3    H149972   3.118   5.864  11.777  0.6659 -0.0703 -0.9789
 9519TIP3    H249973   3.064   5.799  11.651  1.4088 -2.3398 -0.1718
 9520TIP3   OH249974   4.954   2.488  13.705 -0.4363  0.2049 -0.0194
 9520TIP3    H149975   4.938   2.466  13.613 -1.2831  1.2861 -0.1645
 9520TIP3    H249976   4.982   2.406  13.746  1.7331  0.0652 -1.6110
 9521TIP3   OH249977   2.965   5.897   0.528 -0.2264 -0.5866  0.0039
 9521TIP3    H149978   2.875   5.869   0.518 -0.7504  0.4486  1.4440
 9521TIP3    H249979   3.017   5.829   0.484 -1.7401 -0.5162 -2.0184
 9522TIP3   OH249980   0.190   2.701  11.932 -0.1471 -0.2201  0.7524
 9522TIP3    H149981   0.117   2.645  11.960 -0.2926  0.2435  1.3062
 9522TIP3    H249982   0.266   2.642  11.930 -0.8627 -1.1849 -1.7173
 9523TIP3   OH249983   4.130   5.871  11.507  0.9134 -0.1196  0.4789
 9523TIP3    H149984   4.072   5.809  11.550  1.4941 -2.0037 -1.2687
 9523TIP3    H249985   4.122   5.952  11.557 -2.0926 -0.7303  1.1415
 9524TIP3   OH249986   5.769   3.384  15.388  0.3198  0.1755  0.3015
 9524TIP3    H149987   5.818   3.367  15.469 -0.7759  1.9405  1.4012
 9524TIP3    H249988   5.781   3.478  15.372 -2.3401  0.6153  0.4154
 9525TIP3   OH249989   2.218   6.731  14.157 -0.4199  0.0249  0.6326
 9525TIP3    H149990   2.228   6.761  14.067 -0.4948  1.0711  0.9540
 9525TIP3    H249991   2.128   6.753  14.179 -0.5852 -0.7680  0.7824
 9526TIP3   OH249992   0.551   4.080  12.454 -0.1463 -0.0061  0.3711
 9526TIP3    H149993   0.569   4.128  12.535 -0.4737 -1.0636  1.0972
 9526TIP3    H249994   0.588   3.993  12.469 -2.1656 -0.9457  0.3048
 9527TIP3   OH249995   0.877   3.546  14.935  0.4757  0.9998  0.3403
 9527TIP3    H149996   0.855   3.466  14.982  1.1637  1.3055  1.2363
 9527TIP3    H249997   0.853   3.529  14.844  0.2988 -0.0878  0.5768
 9528TIP3   OH249998   4.079   0.253   4.660  0.4629 -0.7768  0.4156
 9528TIP3    H149999   4.054   0.292   4.576  1.5512 -2.5200 -0.7715
 9528TIP3    H250000   4.090   0.328   4.718 -3.0791  0.3788 -0.1419
 9529TIP3   OH250001   4.347   2.405  10.592 -0.3535  0.4721 -0.1131
 9529TIP3    H150002   4.371   2.330  10.646 -3.3916 -0.8867 -0.4666
 9529TIP3    H250003   4.431   2.446  10.570  1.2525 -1.2662  2.2281
 9530TIP3   OH250004   3.647   5.797  16.908 -0.0755 -0.2661 -0.3201
 9530TIP3    H150005   3.582   5.829  16.845  0.0458  2.6213  0.8316
 9530TIP3    H250006   3.729   5.837  16.879 -0.0659  1.3953  1.6852
 9531TIP3   OH250007   5.500   3.408  16.602 -0.6354 -0.1397 -0.3704
 9531TIP3    H150008   5.585   3.418  16.647 -0.7037 -0.2234 -0.2213
 9531TIP3    H250009   5.522   3.366  16.519 -0.5242 -0.1122 -0.3547
 9532TIP3   OH250010   4.467   0.168  13.427 -0.1595 -0.2869 -0.1143
 9532TIP3    H150011   4.522   0.214  13.491 -0.6764  1.5261 -0.9078
 9532TIP3    H250012   4.489   0.075  13.438 -0.0959 -0.0281  2.5462
 9533TIP3   OH250013   1.172   4.648  12.131  0.1883 -0.3895  0.0789
 9533TIP3    H150014   1.202   4.638  12.041  1.6703  0.5549  0.4343
 9533TIP3    H250015   1.178   4.742  12.148 -1.8095 -0.3124  0.6075
 9534TIP3   OH250016   6.111   1.951  13.946 -0.3485  0.5304  0.0050
 9534TIP3    H150017   6.183   1.889  13.937  0.8845  1.9722 -0.4316
 9534TIP3    H250018   6.128   2.017  13.880  0.2766  3.1630  2.6180
 9535TIP3   OH250019   1.881   3.440   3.358  0.1422 -0.3133 -0.4067
 9535TIP3    H150020   1.830   3.374   3.406 -1.6449  1.0403 -0.3511
 9535TIP3    H250021   1.909   3.395   3.279  0.1739 -1.5530  0.2831
 9536TIP3   OH250022   5.309   3.675   0.678 -0.0919  0.2322  0.1407
 9536TIP3    H150023   5.338   3.681   0.587  0.3488  0.4153  0.2888
 9536TIP3    H250024   5.277   3.763   0.699  2.6020  1.0987  1.0688
 9537TIP3   OH250025   1.090   4.978  17.177 -0.2908  0.5344 -0.4866
 9537TIP3    H150026   1.179   5.012  17.186 -0.9187  2.1358  0.2765
 9537TIP3    H250027   1.041   5.050  17.137 -0.8223 -1.1189 -3.0216
 9538TIP3   OH250028   0.293   4.062   5.209  0.0800  0.1882 -0.2169
 9538TIP3    H150029   0.223   4.028   5.264  0.3602 -0.9759 -0.5333
 9538TIP3    H250030   0.257   4.060   5.120 -0.1926  1.5687 -0.1579
 9539TIP3   OH250031   0.085   0.407  15.127  0.3064  0.3130 -0.1623
 9539TIP3    H150032  -0.002   0.438  15.152  0.8490  0.3779  1.7673
 9539TIP3    H250033   0.138   0.419  15.205  1.7680 -0.8373 -0.9360
 9540TIP3   OH250034   3.441   0.706   2.700  0.4310  0.3482 -0.1023
 9540TIP3    H150035   3.501   0.652   2.751 -0.0574  0.4829  0.6294
 9540TIP3    H250036   3.388   0.751   2.765  0.7121  1.5839 -0.6975
 9541TIP3   OH250037   2.552   6.025   0.134 -0.3071 -0.4929  0.6616
 9541TIP3    H150038   2.474   5.970   0.138 -0.6585 -0.2537 -1.5290
 9541TIP3    H250039   2.524   6.103   0.085  1.0377  0.0898  0.7595
 9542TIP3   OH250040   2.279   2.717   2.845 -0.1130  0.1620 -0.6162
 9542TIP3    H150041   2.188   2.693   2.828 -0.4843  1.4614 -0.5905
 9542TIP3    H250042   2.281   2.812   2.835  0.9725  0.3021  0.5993
 9543TIP3   OH250043   0.188   2.361   3.344 -0.1330  0.0036  0.1919
 9543TIP3    H150044   0.214   2.453   3.342 -1.5127  0.4341  0.6478
 9543TIP3    H250045   0.247   2.318   3.283  0.5205  1.1990 -0.0497
 9544TIP3   OH250046   2.646   1.239  15.695 -0.4221 -0.3686  0.0738
 9544TIP3    H150047   2.735   1.261  15.667 -0.7482  0.0612 -0.6365
 9544TIP3    H250048   2.601   1.213  15.615 -1.1192  0.0093  0.3377
 9545TIP3   OH250049   4.044   0.986   3.088  0.1732 -0.4170 -0.0370
 9545TIP3    H150050   4.115   1.022   3.140  0.4133 -1.1138  0.1327
 9545TIP3    H250051   3.972   0.972   3.150  0.7444 -2.0445  0.3173
 9546TIP3   OH250052   6.228   3.998  16.668 -0.3397 -0.1758 -0.6021
 9546TIP3    H150053   6.229   3.912  16.709  0.6621 -0.4273 -1.1087
 9546TIP3    H250054   6.165   4.049  16.719  1.2338 -0.3167  1.6337
 9547TIP3   OH250055   1.513   0.359  15.771  0.5269  0.7789  0.0269
 9547TIP3    H150056   1.511   0.349  15.675  0.0885  1.7906 -0.0851
 9547TIP3    H250057   1.571   0.434  15.786 -0.0517  1.1415  0.4929
 9548TIP3   OH250058   4.490   1.265   3.308  0.7784  0.4257 -0.1886
 9548TIP3    H150059   4.416   1.324   3.292 -0.0466 -0.6135 -0.3398
 9548TIP3    H250060   4.561   1.322   3.337  0.7798  1.8185 -2.6303
 9549TIP3   OH250061   0.646   1.946   0.529  0.6162  0.2250  0.0781
 9549TIP3    H150062   0.735   1.914   0.516  1.2248  1.6057  0.6734
 9549TIP3    H250063   0.590   1.869   0.514  1.6863 -0.0824 -2.9299
 9550TIP3   OH250064   4.229   1.655  13.396  0.3759 -0.2958  0.3901
 9550TIP3    H150065   4.248   1.625  13.307 -0.1527 -2.6509  0.9797
 9550TIP3    H250066   4.201   1.746  13.386  0.7667 -0.3615 -1.7846
 9551TIP3   OH250067   6.355   5.185   3.776 -0.1034  0.0314 -0.3654
 9551TIP3    H150068   6.320   5.098   3.755  0.5878 -0.3824  0.1479
 9551TIP3    H250069   6.424   5.168   3.840  0.3567  0.9213 -0.6094
 9552TIP3   OH250070   0.974   3.199  16.407 -0.4680 -0.0631 -0.2726
 9552TIP3    H150071   0.898   3.173  16.459 -1.3221  1.1113 -0.8863
 9552TIP3    H250072   0.995   3.121  16.356 -1.6456 -0.2361 -0.5381
 9553TIP3   OH250073   3.994   2.086   4.858  0.3208 -0.3818 -0.1368
 9553TIP3    H150074   3.904   2.103   4.828  0.9788 -0.9008 -2.6026
 9553TIP3    H250075   3.995   1.993   4.881 -0.0002 -0.1479  0.8752
 9554TIP3   OH250076   5.818   3.431  14.665 -0.0709 -0.6636 -0.7826
 9554TIP3    H150077   5.734   3.399  14.698 -0.1325 -1.0965 -1.3392
 9554TIP3    H250078   5.804   3.525  14.653  0.4884 -0.1274  2.0288
 9555TIP3   OH250079   2.613   3.580   2.017  0.0766 -0.1319  0.4700
 9555TIP3    H150080   2.596   3.668   1.984  1.2505  0.1354  0.5390
 9555TIP3    H250081   2.567   3.522   1.956  0.3881  0.4615 -0.3366
 9556TIP3   OH250082   2.353   6.246  14.261  0.6538 -0.0683 -0.1500
 9556TIP3    H150083   2.446   6.251  14.241  0.8277 -1.1772  0.3438
 9556TIP3    H250084   2.349   6.220  14.353 -0.1170 -2.7160 -0.8508
 9557TIP3   OH250085   5.551   3.405  11.617 -0.0969 -0.4262  0.1419
 9557TIP3    H150086   5.564   3.337  11.551  1.2059  0.8139 -0.9516
 9557TIP3    H250087   5.525   3.482  11.567 -1.1314  0.0174  1.3177
 9558TIP3   OH250088   5.719   3.754  17.176  0.4007 -0.1918 -0.2971
 9558TIP3    H150089   5.770   3.805  17.239 -0.5413  1.2323 -0.6250
 9558TIP3    H250090   5.740   3.663  17.195  1.1640  0.2636  1.1717
 9559TIP3   OH250091   2.947   1.055   3.722  0.0595  0.3107 -0.4817
 9559TIP3    H150092   2.866   1.022   3.761 -0.5728  1.2415 -0.9596
 9559TIP3    H250093   3.010   1.055   3.793 -0.6906  0.6740  0.2009
 9560TIP3   OH250094   3.407   3.901  13.259  0.6003  0.1270  0.1860
 9560TIP3    H150095   3.357   3.861  13.330  0.5061  0.4299  0.2903
 9560TIP3    H250096   3.357   3.880  13.180 -0.8415  2.1871  0.4812
 9561TIP3   OH250097   5.043   4.258   0.196  0.1996 -0.2891  0.5155
 9561TIP3    H150098   5.033   4.306   0.114  0.3735 -0.3760  0.4419
 9561TIP3    H250099   5.079   4.173   0.169 -2.1901 -1.3386  0.3818
 9562TIP3   OH250100   5.962   0.017  13.526  0.0885 -0.0116 -0.0044
 9562TIP3    H150101   5.975  -0.070  13.565 -0.4342 -0.9719 -1.8388
 9562TIP3    H250102   5.941   0.073  13.601 -0.6684 -1.7020  1.1440
 9563TIP3   OH250103   2.412   5.623  13.826 -0.0083 -0.4155 -0.4753
 9563TIP3    H150104   2.449   5.535  13.830  0.5048 -0.2501 -1.2546
 9563TIP3    H250105   2.318   5.610  13.836  0.2545 -0.7835  2.3117
 9564TIP3   OH250106   5.607   3.022   3.669  1.3661  0.1048  0.3772
 9564TIP3    H150107   5.660   2.971   3.608 -0.2046 -0.9835 -0.1344
 9564TIP3    H250108   5.550   2.957   3.711 -1.5855  1.4956 -1.1753
 9565TIP3   OH250109   4.604   6.682   3.910 -0.0437 -0.3688 -0.3760
 9565TIP3    H150110   4.560   6.608   3.867 -0.2443  0.6829 -2.0544
 9565TIP3    H250111   4.663   6.716   3.844 -0.9141  1.7944 -0.1135
 9566TIP3   OH250112   2.222   5.020  15.452 -0.0079  0.0281 -0.3727
 9566TIP3    H150113   2.315   4.999  15.450 -0.1110 -0.3838 -0.9759
 9566TIP3    H250114   2.208   5.078  15.378 -0.0344  0.9694  0.3521
 9567TIP3   OH250115   3.545   6.158  13.797 -0.0243 -0.1288  0.0795
 9567TIP3    H150116   3.470   6.132  13.851  0.1971 -1.5159 -0.2297
 9567TIP3    H250117   3.553   6.252  13.811 -2.5246  0.3010 -0.7624
 9568TIP3   OH250118   1.823   3.451  15.773 -0.4992  0.0053 -0.7823
 9568TIP3    H150119   1.892   3.412  15.827 -1.6909 -1.0432  0.0554
 9568TIP3    H250120   1.759   3.483  15.836 -0.9829  0.5707 -1.5481
 9569TIP3   OH250121   3.936   5.995   2.718 -0.0801 -0.0139  0.1664
 9569TIP3    H150122   3.999   5.984   2.647  0.0463 -0.6762  0.3712
 9569TIP3    H250123   3.986   6.035   2.789 -0.4175  1.4847 -0.4068
 9570TIP3   OH250124   6.378   5.849   2.477 -0.1606 -0.5318 -0.5127
 9570TIP3    H150125   6.376   5.794   2.555 -0.8879  0.8012  0.4694
 9570TIP3    H250126   6.465   5.836   2.440  0.2851 -1.0273  0.6592
 9571TIP3   OH250127   5.540   3.668   2.096  0.0346  0.0774 -0.1489
 9571TIP3    H150128   5.466   3.639   2.149  0.0667  0.4789  0.1206
 9571TIP3    H250129   5.503   3.686   2.009 -0.0657 -0.3358 -0.1920
 9572TIP3   OH250130   1.700   0.081  15.618 -0.0780 -0.6607  0.8301
 9572TIP3    H150131   1.719   0.174  15.632 -0.6677 -0.3898 -0.1018
 9572TIP3    H250132   1.680   0.074  15.525  3.2512 -2.3128  0.0930
 9573TIP3   OH250133   0.276   2.512  15.526  0.3621  0.2626  0.4195
 9573TIP3    H150134   0.352   2.462  15.556  0.5792 -0.0790 -0.6390
 9573TIP3    H250135   0.204   2.450  15.527  0.6023 -0.0737 -0.7602
 9574TIP3   OH250136   4.826   3.350  17.143 -0.1494 -0.4347 -0.5742
 9574TIP3    H150137   4.755   3.301  17.103 -0.4878  0.0119 -0.5247
 9574TIP3    H250138   4.783   3.403  17.210  0.4985 -1.8405  1.0461
 9575TIP3   OH250139   2.308   6.396  12.368  0.1708  0.1907  0.1893
 9575TIP3    H150140   2.316   6.323  12.429 -2.9138  1.1515  1.9770
 9575TIP3    H250141   2.230   6.375  12.315 -0.0663  1.6168 -0.0636
 9576TIP3   OH250142   0.344   1.953   0.728 -0.4222  0.3800 -0.1903
 9576TIP3    H150143   0.386   1.950   0.815 -1.6014 -1.6012  0.3905
 9576TIP3    H250144   0.399   2.012   0.677  0.9458  0.7495  1.5866
 9577TIP3   OH250145   1.493   1.193   0.885 -0.3140  0.2175 -0.0463
 9577TIP3    H150146   1.410   1.172   0.842  0.7702 -1.5326 -1.4491
 9577TIP3    H250147   1.509   1.117   0.941  0.0270  0.8599  0.7345
 9578TIP3   OH250148   1.701   5.116  11.286 -0.2385  0.0267  0.1049
 9578TIP3    H150149   1.773   5.122  11.223  0.6244  2.0093  1.1684
 9578TIP3    H250150   1.745   5.102  11.370 -1.0077  1.8040  0.8493
 9579TIP3   OH250151   2.951   3.075  15.846  0.5611 -0.3339 -0.2131
 9579TIP3    H150152   3.037   3.096  15.810  1.6380 -2.0281  1.2116
 9579TIP3    H250153   2.927   2.992  15.805  0.0994 -0.4069  0.1987
 9580TIP3   OH250154   3.278   3.201  12.891 -0.7036 -0.5877  0.0425
 9580TIP3    H150155   3.314   3.236  12.972 -1.2137 -1.7351  0.7866
 9580TIP3    H250156   3.252   3.112  12.913 -2.9497 -0.1950 -0.7589
 9581TIP3   OH250157   5.196   4.004   6.145 -0.5902  0.6507 -0.0172
 9581TIP3    H150158   5.223   4.089   6.180  0.0055  0.6251 -0.4007
 9581TIP3    H250159   5.226   3.941   6.211  4.6167  0.1347 -2.3594
 9582TIP3   OH250160   4.703   5.878  14.466 -0.3268  0.1725 -0.1821
 9582TIP3    H150161   4.635   5.895  14.400 -2.0648  2.0343  1.8966
 9582TIP3    H250162   4.655   5.842  14.541  0.8339  1.8772  1.4855
 9583TIP3   OH250163   0.037   3.362   1.909 -0.4900 -0.1131  0.6076
 9583TIP3    H150164   0.120   3.317   1.890 -1.3665 -1.7064  0.3343
 9583TIP3    H250165  -0.005   3.307   1.976 -0.6486  1.5381  1.9427
 9584TIP3   OH250166   3.936   4.173   5.764  0.1788 -0.1747 -0.4538
 9584TIP3    H150167   3.959   4.193   5.854  0.8691 -0.4350 -0.5624
 9584TIP3    H250168   3.939   4.077   5.758  2.5078 -0.1168 -1.3114
 9585TIP3   OH250169   2.646   3.872   0.424  0.3141 -0.0448 -0.0432
 9585TIP3    H150170   2.715   3.879   0.490  0.9935  0.6730 -0.8242
 9585TIP3    H250171   2.586   3.806   0.460  0.1016  1.0810  1.7928
 9586TIP3   OH250172   6.610   4.011   4.026 -0.8482 -0.1498  0.0434
 9586TIP3    H150173   6.663   4.090   4.023 -1.6961  0.3901 -1.1816
 9586TIP3    H250174   6.611   3.985   4.118  1.0764  0.1454  0.1484
 9587TIP3   OH250175   3.325   0.545   0.377 -0.2740  0.2395  0.7722
 9587TIP3    H150176   3.295   0.489   0.449 -1.8284 -0.6740 -0.5276
 9587TIP3    H250177   3.257   0.612   0.369 -1.2146 -0.8592 -1.1164
 9588TIP3   OH250178   4.714   5.639  12.738  0.6732  0.2032 -0.1348
 9588TIP3    H150179   4.743   5.565  12.684  0.0725  0.3218 -0.6396
 9588TIP3    H250180   4.650   5.685  12.683 -0.1760  0.1661  0.7872
 9589TIP3   OH250181   3.105   0.224   0.971 -0.3215  0.2708  0.2686
 9589TIP3    H150182   3.051   0.278   1.028  1.7359  1.0830  1.5525
 9589TIP3    H250183   3.180   0.280   0.948  1.4185 -1.6602  0.8831
 9590TIP3   OH250184   2.895   2.806  12.138 -0.1830  0.1365  0.4720
 9590TIP3    H150185   2.911   2.883  12.193  6.5495 -0.7779  0.6421
 9590TIP3    H250186   2.924   2.732  12.192  0.4018 -1.5496 -2.0077
 9591TIP3   OH250187   0.028   1.150  15.728  0.3520  0.3432  0.0931
 9591TIP3    H150188  -0.018   1.228  15.759 -1.2739 -0.1720 -0.8889
 9591TIP3    H250189  -0.030   1.114  15.660  0.6784 -2.1474  1.0563
 9592TIP3   OH250190   5.268   3.622  15.184  0.3039  0.2163  0.3925
 9592TIP3    H150191   5.317   3.544  15.210  0.8658  0.3221 -0.3188
 9592TIP3    H250192   5.249   3.609  15.091  0.5934  1.0233  0.2112
 9593TIP3   OH250193   1.192   2.853   1.821  0.1841  0.1315 -0.1169
 9593TIP3    H150194   1.191   2.892   1.909 -1.0119  0.5716 -0.2959
 9593TIP3    H250195   1.142   2.772   1.830  0.4151 -0.0310 -0.2995
 9594TIP3   OH250196   4.204   5.946  15.938 -0.4087 -0.3991  0.5319
 9594TIP3    H150197   4.271   5.976  15.999 -0.3398 -0.1457  0.3358
 9594TIP3    H250198   4.180   5.859  15.968 -1.2996  0.2115  1.6999
 9595TIP3   OH250199   1.066   6.560   5.594 -0.7692 -0.4337  0.1101
 9595TIP3    H150200   1.137   6.577   5.532 -0.4002 -1.6203  0.1906
 9595TIP3    H250201   1.076   6.627   5.661  0.8460 -1.1170  0.5960
 9596TIP3   OH250202   0.967   2.880  11.368 -0.2550 -0.2593 -0.3083
 9596TIP3    H150203   0.956   2.878  11.272 -0.7495 -3.2937 -0.2949
 9596TIP3    H250204   0.891   2.833  11.402 -0.0298  0.6673  1.6117
 9597TIP3   OH250205   6.738   1.155   3.084 -0.5655 -0.2260  0.4710
 9597TIP3    H150206   6.809   1.217   3.099 -0.2912  0.2576 -2.3066
 9597TIP3    H250207   6.781   1.077   3.049 -1.2552 -0.5063  0.2239
 9598TIP3   OH250208   1.671   3.179   1.031  0.1689 -0.7098 -0.1131
 9598TIP3    H150209   1.714   3.261   1.052 -0.5425 -0.3014 -0.2063
 9598TIP3    H250210   1.640   3.190   0.941  1.4171 -1.6724 -0.6829
 9599TIP3   OH250211   1.773   6.062   1.482  0.1862 -0.0440  0.4785
 9599TIP3    H150212   1.716   6.065   1.405 -1.8791  0.0476  1.9337
 9599TIP3    H250213   1.848   6.117   1.458 -0.8758  0.7954 -1.1092
 9600TIP3   OH250214   3.114   2.822   0.319 -0.3495 -0.2527  0.0508
 9600TIP3    H150215   3.122   2.731   0.348 -1.2200 -0.0946  0.8232
 9600TIP3    H250216   3.157   2.873   0.387  2.6220 -0.2168 -1.6976
 9601TIP3   OH250217   3.751   0.373  15.459 -0.0505  0.1574 -0.2919
 9601TIP3    H150218   3.726   0.340  15.545  1.2571  0.2059  0.1297
 9601TIP3    H250219   3.763   0.295  15.405  0.4951  0.0471 -0.0217
 9602TIP3   OH250220   1.010   2.535   4.139 -0.2244  0.7305 -0.0320
 9602TIP3    H150221   1.086   2.524   4.197 -0.2597 -1.6185 -0.3261
 9602TIP3    H250222   0.963   2.609   4.176  0.9664  0.7531  1.5730
 9603TIP3   OH250223   4.764   2.316   5.297 -0.7383  0.1237 -0.4950
 9603TIP3    H150224   4.704   2.367   5.350  0.7190 -0.2215  1.6064
 9603TIP3    H250225   4.842   2.307   5.351  0.7248 -0.5471 -2.5963
 9604TIP3   OH250226   4.129   1.462   1.047  0.4246  0.1144 -0.8057
 9604TIP3    H150227   4.102   1.392   1.105 -1.5341  2.5801  1.5126
 9604TIP3    H250228   4.070   1.455   0.972 -1.7097  0.8358  0.7001
 9605TIP3   OH250229   1.488   4.447  17.185 -0.4456  0.4233 -0.1773
 9605TIP3    H150230   1.510   4.367  17.136 -1.2089 -0.0832  0.2840
 9605TIP3    H250231   1.555   4.510  17.158  0.7701 -0.6607  0.1846
 9606TIP3   OH250232   2.309   5.028   6.390 -0.5053 -0.3050 -0.4883
 9606TIP3    H150233   2.261   5.024   6.473 -1.1244  0.8994 -0.7698
 9606TIP3    H250234   2.364   5.105   6.398  2.8513 -2.5680  0.5453
 9607TIP3   OH250235   3.783   3.382   1.865 -0.1099  0.2684  0.8627
 9607TIP3    H150236   3.817   3.394   1.954  1.8224  2.7318 -0.0748
 9607TIP3    H250237   3.850   3.421   1.809  0.3192 -3.9321 -2.0294
 9608TIP3   OH250238   4.233   4.814   3.942 -0.3300 -0.2469  0.3060
 9608TIP3    H150239   4.252   4.844   4.030 -0.1244  1.6010 -0.3265
 9608TIP3    H250240   4.138   4.821   3.933 -0.3349 -0.2911  0.3201
 9609TIP3   OH250241   6.375   6.503  16.535  0.6235 -0.0216 -0.3548
 9609TIP3    H150242   6.418   6.567  16.590  1.2620 -0.5572 -0.2226
 9609TIP3    H250243   6.334   6.442  16.596  0.9478 -0.3574 -0.4664
 9610TIP3   OH250244   0.088   1.859  14.777  0.5558 -0.1491 -0.0699
 9610TIP3    H150245   0.174   1.900  14.783  0.8767 -0.7360 -0.5750
 9610TIP3    H250246   0.067   1.832  14.866  0.7574  0.2552  0.1036
 9611TIP3   OH250247   6.409   2.055   1.963 -1.0235 -0.3727  0.2704
 9611TIP3    H150248   6.380   1.985   2.020 -0.7972 -0.1067  0.7264
 9611TIP3    H250249   6.333   2.076   1.909 -1.6682  0.2501  1.3696
 9612TIP3   OH250250   3.761   3.889   3.050  0.3606  0.4844 -0.2444
 9612TIP3    H150251   3.766   3.953   3.121 -1.7822  0.1461  0.2807
 9612TIP3    H250252   3.789   3.937   2.972  0.7366  1.4562  0.4656
 9613TIP3   OH250253   3.252   3.923  13.029  0.3131  0.3416 -0.2617
 9613TIP3    H150254   3.182   3.910  13.092  0.2747  0.0433 -0.3633
 9613TIP3    H250255   3.239   4.012  12.996  1.5100  1.2493  1.5841
 9614TIP3   OH250256   3.728   2.699  16.667 -0.2420  0.3877 -0.0795
 9614TIP3    H150257   3.734   2.615  16.620 -0.7459 -1.8538  3.4438
 9614TIP3    H250258   3.784   2.759  16.617 -0.0302 -1.9251 -2.9119
 9615TIP3   OH250259   5.028   0.698   2.385 -0.1756 -0.1869 -0.3402
 9615TIP3    H150260   4.968   0.649   2.329 -0.5808 -0.5173  0.3688
 9615TIP3    H250261   5.094   0.634   2.412 -0.2622 -0.1491 -0.0405
 9616TIP3   OH250262   6.044   4.979   3.077  0.6038 -0.0967 -0.1358
 9616TIP3    H150263   6.115   5.018   3.026  0.9132  0.0952  0.4306
 9616TIP3    H250264   6.070   4.992   3.168  0.0168 -0.3563  0.0746
 9617TIP3   OH250265   4.702   2.431  12.624 -0.4835  0.2994  0.8682
 9617TIP3    H150266   4.706   2.349  12.673 -0.4653 -0.1291  0.1598
 9617TIP3    H250267   4.730   2.408  12.535  0.8700  1.3384  0.9838
 9618TIP3   OH250268   5.869   4.071  13.528 -0.1337 -0.2668  0.4136
 9618TIP3    H150269   5.891   3.979  13.518 -0.0062 -0.1673 -0.2703
 9618TIP3    H250270   5.782   4.079  13.489 -0.3364 -0.1815  0.8749
 9619TIP3   OH250271   5.425   1.210   2.231  0.0069  0.5041  0.3774
 9619TIP3    H150272   5.508   1.229   2.187  0.1973 -0.0827  0.4697
 9619TIP3    H250273   5.358   1.231   2.167  0.2839 -0.4082 -0.2385
 9620TIP3   OH250274   3.557   3.542   3.125  0.3131 -0.2275 -0.4525
 9620TIP3    H150275   3.533   3.610   3.187  0.4631  0.0986 -0.7522
 9620TIP3    H250276   3.534   3.578   3.039 -0.0582 -0.7438 -0.5796
 9621TIP3   OH250277   0.300   0.044   2.702 -0.1768  0.3506  0.0893
 9621TIP3    H150278   0.389   0.061   2.671  0.1718 -0.7719  0.4469
 9621TIP3    H250279   0.263   0.131   2.715  1.2174  0.8557  0.9501
 9622TIP3   OH250280   1.760   5.119   5.574 -0.1691  0.7695  0.3506
 9622TIP3    H150281   1.734   5.030   5.552  0.5366  0.7492 -0.4317
 9622TIP3    H250282   1.778   5.161   5.490  0.9477  1.2002  0.7905
 9623TIP3   OH250283   3.276   3.531  13.738  0.2527  0.1197 -0.4039
 9623TIP3    H150284   3.220   3.602  13.706 -1.2853 -0.7635  0.1856
 9623TIP3    H250285   3.353   3.575  13.773  0.0357  1.3764 -1.4170
 9624TIP3   OH250286   2.690   6.026  14.799 -0.5917  0.4550 -0.2352
 9624TIP3    H150287   2.628   6.086  14.841 -1.0740 -0.5620  0.5443
 9624TIP3    H250288   2.770   6.076  14.790 -1.2980  1.5574 -0.5698
 9625TIP3   OH250289   6.036   4.321   0.133 -0.3660  0.7663  0.5872
 9625TIP3    H150290   5.995   4.241   0.101  0.0434 -0.0299  1.9714
 9625TIP3    H250291   5.969   4.389   0.123  0.1176  0.9187 -3.0673
 9626TIP3   OH250292   1.285   2.838   0.111 -0.3644  0.2081 -0.1335
 9626TIP3    H150293   1.214   2.881   0.158 -1.6442 -0.1371 -1.6488
 9626TIP3    H250294   1.274   2.745   0.132 -1.1421  0.0145 -1.3027
 9627TIP3   OH250295   4.250   4.308   1.802 -0.0207 -0.4850  0.0024
 9627TIP3    H150296   4.284   4.379   1.747  0.5657  0.7075  1.7882
 9627TIP3    H250297   4.157   4.303   1.781 -0.8234  2.9704  1.8963
 9628TIP3   OH250298   1.335   4.792   1.171 -0.0027 -0.0375 -0.1520
 9628TIP3    H150299   1.369   4.728   1.234  2.4671  0.3784 -0.9519
 9628TIP3    H250300   1.272   4.743   1.119  0.0214 -1.1461  0.8244
 9629TIP3   OH250301   2.848   6.439   6.365  0.1787  0.1526  0.0036
 9629TIP3    H150302   2.909   6.370   6.387 -1.1501 -1.1299 -0.1881
 9629TIP3    H250303   2.850   6.444   6.269 -2.0972 -1.9503 -0.2384
 9630TIP3   OH250304   3.467   3.023   0.969 -0.2574 -0.2712 -0.2288
 9630TIP3    H150305   3.409   3.068   1.030 -0.1998 -1.2770  0.6027
 9630TIP3    H250306   3.492   3.090   0.905 -0.8439  0.6387  0.4732
 9631TIP3   OH250307   1.299   1.390  14.716  0.3547  0.0969  0.2580
 9631TIP3    H150308   1.231   1.405  14.650  0.3190 -2.1273 -0.2955
 9631TIP3    H250309   1.337   1.476  14.731 -1.6457  1.1678 -0.4552
 9632TIP3   OH250310   5.930   2.985  13.084 -0.2306 -0.0292 -0.0305
 9632TIP3    H150311   5.848   3.021  13.118  1.2393  2.2352  1.3810
 9632TIP3    H250312   5.951   3.041  13.009  1.1066  0.9297  1.0055
 9633TIP3   OH250313   1.049   1.935   3.922  0.0748 -0.0185 -0.4641
 9633TIP3    H150314   1.133   1.968   3.892 -0.0635  0.0307 -0.8030
 9633TIP3    H250315   1.038   1.972   4.009 -0.8248  2.1881 -1.4384
 9634TIP3   OH250316   0.232   5.299   3.756  0.1995  0.2868 -0.6908
 9634TIP3    H150317   0.301   5.260   3.809 -0.4031  2.1477  1.6134
 9634TIP3    H250318   0.278   5.344   3.685  1.3141  0.9525  0.4357
 9635TIP3   OH250319   2.298   5.811  16.071 -0.0081  0.4071  0.5204
 9635TIP3    H150320   2.317   5.728  16.026 -0.6702  1.2104 -1.2944
 9635TIP3    H250321   2.203   5.812  16.082  0.2350 -0.7127  3.9266
 9636TIP3   OH250322   5.276   0.721  15.729 -0.1700 -0.8777 -0.1779
 9636TIP3    H150323   5.230   0.681  15.655  1.2262  0.5097 -1.9042
 9636TIP3    H250324   5.336   0.653  15.760 -1.3648 -1.7557  0.2740
 9637TIP3   OH250325   6.327   2.417  11.375  0.5010 -0.2796  0.1593
 9637TIP3    H150326   6.353   2.501  11.339 -2.6361  0.8210  0.1787
 9637TIP3    H250327   6.340   2.355  11.304  0.5564  0.6754 -0.6718
 9638TIP3   OH250328   2.363   1.111   4.496 -0.0373  0.5052  0.2641
 9638TIP3    H150329   2.404   1.047   4.438 -0.9756  1.0678 -1.0874
 9638TIP3    H250330   2.434   1.168   4.524  0.9393 -1.4291  2.0091
 9639TIP3   OH250331   2.255   0.369   2.794  0.1374  0.1938  0.1018
 9639TIP3    H150332   2.300   0.444   2.754  0.5665  0.5488  1.2161
 9639TIP3    H250333   2.325   0.320   2.838 -0.5229  0.7213  1.8195
 9640TIP3   OH250334   2.498   0.605  17.030 -0.9667 -0.2449 -0.0515
 9640TIP3    H150335   2.467   0.672  17.090 -1.6446 -1.2132  0.7217
 9640TIP3    H250336   2.498   0.524  17.082  0.2941 -0.7704 -0.8058
 9641TIP3   OH250337   0.420   3.098  12.790 -0.6746 -0.4914 -0.6463
 9641TIP3    H150338   0.467   3.057  12.717 -1.0124  0.4504 -1.4159
 9641TIP3    H250339   0.485   3.154  12.832 -0.1287 -1.9972  0.5967
 9642TIP3   OH250340   1.797   0.646  16.940  0.3386  0.2289  0.0495
 9642TIP3    H150341   1.820   0.564  16.897  1.3050 -0.4582  1.7771
 9642TIP3    H250342   1.827   0.714  16.880 -3.2621 -0.4777 -2.9917
 9643TIP3   OH250343   1.118   4.019  13.917 -0.0117  0.0903  0.4254
 9643TIP3    H150344   1.107   3.997  14.010  0.3910 -2.2744 -0.0289
 9643TIP3    H250345   1.170   4.099  13.917 -0.8461  0.6869  2.2367
 9644TIP3   OH250346   0.426   0.376  15.748 -0.3159 -0.0341 -0.6557
 9644TIP3    H150347   0.371   0.406  15.675 -1.8096 -0.2243  0.3505
 9644TIP3    H250348   0.505   0.428  15.741 -0.5719  0.2218 -2.1898
 9645TIP3   OH250349   6.657   5.490  16.701  0.1429  0.1402 -0.0445
 9645TIP3    H150350   6.715   5.418  16.675  1.0801  0.3326  1.3869
 9645TIP3    H250351   6.712   5.568  16.693 -0.2388  0.4492  0.3552
 9646TIP3   OH250352   0.983   4.410   0.306  0.4295 -0.3559 -0.3439
 9646TIP3    H150353   1.018   4.393   0.394 -1.4891 -3.0432  0.0385
 9646TIP3    H250354   1.061   4.416   0.251  1.6365 -0.1397  1.2938
 9647TIP3   OH250355   3.823   0.766  11.325 -0.2182 -0.3311  0.2352
 9647TIP3    H150356   3.827   0.861  11.322  2.5830 -0.4018 -1.6253
 9647TIP3    H250357   3.853   0.743  11.413 -2.5393  0.4391  1.3109
 9648TIP3   OH250358   0.321   2.449  11.574  0.2905  0.2114  0.1586
 9648TIP3    H150359   0.315   2.400  11.656  0.9429  1.4915  1.0174
 9648TIP3    H250360   0.277   2.394  11.509  0.6965 -1.3279  1.1309
 9649TIP3   OH250361   3.914   3.650   0.872  0.1812 -0.3017  0.4147
 9649TIP3    H150362   3.930   3.651   0.966 -0.1325 -0.6738  0.4741
 9649TIP3    H250363   3.973   3.717   0.837  0.2816 -0.1440  0.8760
 9650TIP3   OH250364   1.302   0.393   3.057  0.5450 -0.2480 -0.0224
 9650TIP3    H150365   1.312   0.394   3.152 -0.8000 -1.0884  0.1546
 9650TIP3    H250366   1.230   0.332   3.041 -1.0122  1.8213 -1.4077
 9651TIP3   OH250367   6.221   0.116   1.835  0.1637  0.2435  0.0392
 9651TIP3    H150368   6.221   0.045   1.771 -1.7871  0.0271  0.2119
 9651TIP3    H250369   6.213   0.072   1.920  1.2670  0.5910  0.3387
 9652TIP3   OH250370   4.589   3.409   6.448  0.6261 -0.4336  0.1517
 9652TIP3    H150371   4.504   3.410   6.405  0.0995 -1.0992  1.1407
 9652TIP3    H250372   4.573   3.451   6.532  1.5573  0.5359 -0.1351
 9653TIP3   OH250373   3.049   0.809  13.397 -0.2448 -0.1116  0.5201
 9653TIP3    H150374   3.101   0.793  13.476  0.1139  1.3526  0.5975
 9653TIP3    H250375   3.095   0.760  13.329 -0.7815 -1.7210  1.2661
 9654TIP3   OH250376   5.761   4.140  10.935 -0.0700  0.1672  0.2134
 9654TIP3    H150377   5.712   4.059  10.917  0.3601 -0.2549  0.9148
 9654TIP3    H250378   5.695   4.209  10.930 -0.4141 -0.2002 -0.5581
 9655TIP3   OH250379   5.884   3.142   1.032 -0.1892 -0.0938 -0.5286
 9655TIP3    H150380   5.960   3.125   0.976 -0.2119 -0.6730 -0.3950
 9655TIP3    H250381   5.819   3.078   1.004 -0.2058 -0.3772  0.1454
 9656TIP3   OH250382   4.162   5.020  14.790 -0.4568  0.1716 -0.0621
 9656TIP3    H150383   4.127   4.944  14.837 -0.3616 -0.1313 -0.4804
 9656TIP3    H250384   4.144   5.002  14.698 -0.0275  0.4502 -0.2025
 9657TIP3   OH250385   2.983   3.301  13.668  0.0745  0.3607  0.1487
 9657TIP3    H150386   3.026   3.300  13.582 -0.3565  1.2028 -0.0922
 9657TIP3    H250387   2.992   3.211  13.701  0.6635  0.1498 -0.5661
 9658TIP3   OH250388   2.010   0.495  15.782  0.6279 -0.3329  0.2172
 9658TIP3    H150389   2.037   0.418  15.833  1.0764 -1.2735 -1.3489
 9658TIP3    H250390   2.034   0.473  15.692 -0.7803  0.9618 -0.5193
 9659TIP3   OH250391   5.464   4.137  16.891 -0.3723  0.2339  0.0874
 9659TIP3    H150392   5.484   4.197  16.963  2.9711 -0.8562  0.2165
 9659TIP3    H250393   5.418   4.064  16.933  0.3137  0.2447  0.8719
 9660TIP3   OH250394   1.802   5.291   6.009  0.2400 -0.7476 -0.7130
 9660TIP3    H150395   1.868   5.359   6.018 -0.0087 -0.7504  1.9351
 9660TIP3    H250396   1.723   5.328   6.049 -0.6655 -1.6455 -1.5968
 9661TIP3   OH250397   6.519   3.735   1.514 -0.3605 -0.0519 -0.0417
 9661TIP3    H150398   6.576   3.798   1.556  0.8351 -0.4882 -0.9422
 9661TIP3    H250399   6.472   3.693   1.586 -0.2001  0.9219  0.6544
 9662TIP3   OH250400   0.937   2.357  10.693  0.1754 -0.8674  0.2619
 9662TIP3    H150401   0.917   2.348  10.787 -0.6764 -1.7048  0.0245
 9662TIP3    H250402   1.022   2.315  10.683  0.6145 -0.1183  0.7797
 9663TIP3   OH250403   2.129   5.193  13.445  0.3697 -0.0441  0.1646
 9663TIP3    H150404   2.130   5.107  13.404  1.4041  0.3256 -0.6472
 9663TIP3    H250405   2.210   5.234  13.415 -0.6005  1.6049 -0.3563
 9664TIP3   OH250406   1.347   5.310  10.498 -0.8797  0.5249  0.3318
 9664TIP3    H150407   1.393   5.321  10.581 -0.3519  1.7962 -0.0922
 9664TIP3    H250408   1.378   5.226  10.464 -0.3287  0.4699  0.9506
 9665TIP3   OH250409   5.781   2.082  12.380 -0.0579 -0.0250 -0.2802
 9665TIP3    H150410   5.748   2.096  12.291 -1.3845  0.7611  0.2938
 9665TIP3    H250411   5.720   2.019  12.418 -0.3440  0.6968  0.4993
 9666TIP3   OH250412   3.174   1.524  15.071 -0.2407 -0.0397 -0.0982
 9666TIP3    H150413   3.243   1.459  15.059 -1.1030 -0.7402 -1.3893
 9666TIP3    H250414   3.129   1.528  14.987 -2.1786 -0.0406  0.8894
 9667TIP3   OH250415   0.051   5.580   6.070  0.3947 -0.0785  0.6296
 9667TIP3    H150416   0.016   5.563   5.983  0.6315  0.1674  0.4871
 9667TIP3    H250417   0.042   5.674   6.082  1.6724  0.1031  0.2980
 9668TIP3   OH250418   0.103   4.291  13.736  0.4651 -0.0378  0.2327
 9668TIP3    H150419   0.130   4.251  13.819  0.3713 -0.7092 -0.0584
 9668TIP3    H250420   0.179   4.342  13.709  0.1883  0.9129  1.1716
 9669TIP3   OH250421   3.404   4.920  12.162  0.3190 -0.1485 -0.0253
 9669TIP3    H150422   3.492   4.906  12.196  0.4933  0.8430 -0.0306
 9669TIP3    H250423   3.383   5.010  12.188  0.0389  0.2631 -1.5979
 9670TIP3   OH250424   4.552   4.651  13.605  0.3987  0.1222 -0.4105
 9670TIP3    H150425   4.521   4.601  13.681  2.5141  0.8991  1.0673
 9670TIP3    H250426   4.644   4.625  13.595  0.0990 -0.2218 -3.0016
 9671TIP3   OH250427   2.319   3.784   2.369  0.0868 -0.0612 -0.7122
 9671TIP3    H150428   2.380   3.731   2.318  0.5221  0.2353 -0.5061
 9671TIP3    H250429   2.373   3.826   2.436 -0.2316  0.6942 -0.9115
 9672TIP3   OH250430   4.471   0.007   3.631 -0.1357  0.9499 -0.0607
 9672TIP3    H150431   4.402   0.069   3.608 -1.3017 -0.0589  0.5960
 9672TIP3    H250432   4.514   0.047   3.707 -0.3368  1.3457 -0.1513
 9673TIP3   OH250433   0.344   3.891   0.318 -0.2813  0.2937 -0.5949
 9673TIP3    H150434   0.350   3.939   0.401 -0.4959 -0.3104 -0.2193
 9673TIP3    H250435   0.251   3.886   0.300 -0.5092 -2.1358  0.7031
 9674TIP3   OH250436   6.718   6.747  14.422  0.1298 -0.2974  0.5584
 9674TIP3    H150437   6.628   6.757  14.391  0.8039  1.2742 -1.0887
 9674TIP3    H250438   6.724   6.807  14.497  0.0542  0.3079  0.0852
 9675TIP3   OH250439   0.837   5.951   1.206 -0.2639 -0.3181  0.5728
 9675TIP3    H150440   0.781   5.876   1.187 -0.3091 -0.7338  2.2403
 9675TIP3    H250441   0.897   5.954   1.131 -0.1034 -2.1560  0.5716
 9676TIP3   OH250442   5.988   2.582  16.405 -0.6638 -0.7211  0.1122
 9676TIP3    H150443   5.894   2.598  16.397 -0.8031 -0.5203  1.7940
 9676TIP3    H250444   6.001   2.496  16.365 -1.5070 -0.6308 -0.3843
 9677TIP3   OH250445   3.743   5.771   0.251  0.7746 -0.4567  0.0718
 9677TIP3    H150446   3.677   5.703   0.266 -0.6052  1.0228  1.1022
 9677TIP3    H250447   3.716   5.843   0.309  1.3197  1.5298 -2.0052
 9678TIP3   OH250448   4.661   1.803  14.366 -0.5878  0.3845 -0.3065
 9678TIP3    H150449   4.737   1.856  14.344  0.9701 -0.7058  2.0110
 9678TIP3    H250450   4.611   1.797  14.284  2.6090 -0.1250 -2.3942
 9679TIP3   OH250451   5.489   2.197   4.976  0.0451 -0.4254  0.6280
 9679TIP3    H150452   5.550   2.209   4.903  0.3681  1.1899  1.1168
 9679TIP3    H250453   5.440   2.118   4.954 -0.6993  0.6400 -1.9575
 9680TIP3   OH250454   0.152   1.441   4.276  0.8309  0.2219  0.3337
 9680TIP3    H150455   0.078   1.409   4.327  1.5729 -0.6417  0.8839
 9680TIP3    H250456   0.166   1.531   4.308 -0.1283  0.4870  0.0367
 9681TIP3   OH250457   3.038   6.205  13.351 -1.2676  0.0413  0.1475
 9681TIP3    H150458   3.088   6.249  13.282 -1.6678  0.1711 -0.0584
 9681TIP3    H250459   3.090   6.218  13.431  0.3889 -2.0263 -0.4837
 9682TIP3   OH250460   4.164   4.669  16.325 -0.1339  0.2559  0.0851
 9682TIP3    H150461   4.076   4.642  16.352 -0.8506  0.0662 -2.2354
 9682TIP3    H250462   4.210   4.684  16.407 -2.0856 -0.4085  1.3852
 9683TIP3   OH250463   0.699   5.937   4.809 -0.4898  0.4035 -0.7307
 9683TIP3    H150464   0.788   5.972   4.810 -0.5050  0.4503 -0.9417
 9683TIP3    H250465   0.681   5.913   4.900  0.4929 -1.4622 -0.9780
 9684TIP3   OH250466   0.569   1.597   0.065  0.5075  0.5542 -0.1225
 9684TIP3    H150467   0.546   1.685   0.095 -0.9127  0.1284  0.1443
 9684TIP3    H250468   0.577   1.605  -0.030 -0.4549  0.8278 -0.1992
 9685TIP3   OH250469   3.117   5.494   1.835  0.5405  0.0004 -0.2187
 9685TIP3    H150470   3.170   5.521   1.909  1.1450 -0.3171 -0.5318
 9685TIP3    H250471   3.035   5.463   1.874 -0.2058  2.2632  0.1662
 9686TIP3   OH250472   3.805   1.769  16.391 -0.3181 -0.0924  0.2223
 9686TIP3    H150473   3.780   1.809  16.473 -0.4627  0.4416 -0.0805
 9686TIP3    H250474   3.755   1.687  16.389  0.9005 -0.8999  1.4005
 9687TIP3   OH250475   5.514   2.106  15.773  0.4759 -0.6767 -1.0754
 9687TIP3    H150476   5.589   2.162  15.752  0.2219 -0.0399 -0.3176
 9687TIP3    H250477   5.544   2.017  15.752  1.3544 -0.3968 -1.0305
 9688TIP3   OH250478   0.621   6.260   0.317  0.3617 -0.4510 -0.1302
 9688TIP3    H150479   0.667   6.178   0.335  0.4646  0.0085  1.8644
 9688TIP3    H250480   0.528   6.238   0.326  0.3169 -0.6540 -1.0096
 9689TIP3   OH250481   1.818   2.720  12.162 -0.2583 -0.0357  0.6214
 9689TIP3    H150482   1.742   2.707  12.105  0.1174  1.2343 -0.2200
 9689TIP3    H250483   1.833   2.635  12.202 -0.5364 -0.9949 -1.2088
 9690TIP3   OH250484   0.679   6.093   0.933 -0.1973 -0.3982 -0.5595
 9690TIP3    H150485   0.729   6.156   0.985 -0.1192 -0.7526 -0.2065
 9690TIP3    H250486   0.732   6.079   0.855 -2.0385  3.1341 -2.7255
 9691TIP3   OH250487   4.099   2.735  11.845 -0.0649  0.4646 -0.5504
 9691TIP3    H150488   4.148   2.797  11.899  2.6223 -2.1088  0.2473
 9691TIP3    H250489   4.165   2.672  11.815 -2.8750 -3.5733  0.9504
 9692TIP3   OH250490   2.041   1.363   2.462 -0.5266  0.4884  0.1053
 9692TIP3    H150491   2.032   1.392   2.371 -0.4713 -0.3083 -0.1535
 9692TIP3    H250492   1.971   1.299   2.474 -0.5304  0.5891  0.6285
 9693TIP3   OH250493   5.516   0.374   0.866  0.3096  0.3788 -0.0505
 9693TIP3    H150494   5.576   0.336   0.802  1.1643  1.4572  0.0872
 9693TIP3    H250495   5.432   0.330   0.850  0.3118  1.1122 -2.3728
 9694TIP3   OH250496   5.785   4.952  16.249  0.6853 -0.2919  0.2848
 9694TIP3    H150497   5.773   4.914  16.161 -1.8357 -2.3300  1.3834
 9694TIP3    H250498   5.856   4.900  16.288 -0.5384 -1.7768  0.6184
 9695TIP3   OH250499   3.486   2.428   4.769  0.1199 -0.0101  0.6404
 9695TIP3    H150500   3.470   2.518   4.741 -1.5199  0.3292  2.4798
 9695TIP3    H250501   3.401   2.385   4.761 -0.0965 -0.2851  3.4508
 9696TIP3   OH250502   4.839   3.591  15.442 -0.5804  0.0067 -0.2102
 9696TIP3    H150503   4.917   3.643  15.420 -1.1878  0.8038 -0.5034
 9696TIP3    H250504   4.861   3.551  15.526  0.6625 -0.8338 -0.8914
 9697TIP3   OH250505   0.699   5.483   4.533  0.2514  0.1132 -0.3092
 9697TIP3    H150506   0.749   5.439   4.465  1.0355  1.2736 -0.5048
 9697TIP3    H250507   0.728   5.574   4.530  0.8632  0.0645  2.0574
 9698TIP3   OH250508   2.335   0.850  11.527 -0.2732 -0.4188 -0.3074
 9698TIP3    H150509   2.303   0.865  11.616  1.0925 -1.7907  0.4771
 9698TIP3    H250510   2.411   0.907  11.519 -0.3707 -0.3281 -0.5835
 9699TIP3   OH250511   4.103   5.363   5.418 -0.5246  0.4667  0.3944
 9699TIP3    H150512   4.090   5.287   5.361 -2.8167  1.8073 -1.0655
 9699TIP3    H250513   4.187   5.348   5.460 -0.4890 -2.4344 -0.4877
 9700TIP3   OH250514   6.142   6.097  16.019  0.1626 -0.3765  0.0762
 9700TIP3    H150515   6.131   6.168  15.955  1.2192 -0.4456 -0.2029
 9700TIP3    H250516   6.229   6.111  16.055 -0.7340  0.1608  2.1520
 9701TIP3   OH250517   1.770   3.133   2.596  0.0239 -0.3947  0.4200
 9701TIP3    H150518   1.735   3.198   2.535  0.2691 -0.6662 -0.0137
 9701TIP3    H250519   1.722   3.053   2.577 -0.2097 -0.3717  0.8874
 9702TIP3   OH250520   3.162   1.542  11.871  0.0636 -0.2216 -0.0429
 9702TIP3    H150521   3.235   1.602  11.857 -1.2081  1.4813  0.1807
 9702TIP3    H250522   3.198   1.455  11.856  2.2787  0.5066  0.7772
 9703TIP3   OH250523   4.297   3.465   2.666  0.2543  0.0953  0.2524
 9703TIP3    H150524   4.232   3.499   2.604  0.4952  0.3667  0.1451
 9703TIP3    H250525   4.377   3.456   2.614  0.0614 -1.1374  0.1530
 9704TIP3   OH250526   4.593   0.135   5.725 -0.0640  0.4013 -0.5129
 9704TIP3    H150527   4.615   0.157   5.815  2.3349  1.0797 -1.1969
 9704TIP3    H250528   4.568   0.042   5.728  0.7832  0.2015  0.7131
 9705TIP3   OH250529   1.140   1.019  16.472  0.1473  0.4132  0.1166
 9705TIP3    H150530   1.220   1.042  16.425  0.5438 -0.8954  0.0928
 9705TIP3    H250531   1.093   0.960  16.413  0.8213 -1.5508  1.4287
 9706TIP3   OH250532   4.605   1.238  17.145  0.9266 -0.6047 -0.1947
 9706TIP3    H150533   4.671   1.308  17.146  1.9682 -1.5568 -0.6480
 9706TIP3    H250534   4.534   1.272  17.199  3.6268 -1.3191  4.2605
 9707TIP3   OH250535   3.207   6.657   0.143 -0.4477  0.2411  0.3020
 9707TIP3    H150536   3.133   6.676   0.201 -0.5442  2.6677 -0.5166
 9707TIP3    H250537   3.262   6.598   0.194 -3.1875 -2.2163  0.7064
 9708TIP3   OH250538   5.762   5.369   5.433 -0.1415  0.4299 -0.1424
 9708TIP3    H150539   5.761   5.401   5.523 -1.1426  0.7678 -0.2572
 9708TIP3    H250540   5.681   5.320   5.424  0.6007 -0.7734 -0.4661
 9709TIP3   OH250541   5.224   4.926   3.172 -0.1559 -0.5219  0.2878
 9709TIP3    H150542   5.224   4.860   3.241  0.4689 -1.8150 -0.8826
 9709TIP3    H250543   5.297   4.901   3.115  1.9171  2.8322  1.2519
 9710TIP3   OH250544   1.462   6.378  12.225 -0.0530 -0.1400 -0.7755
 9710TIP3    H150545   1.524   6.306  12.237 -0.4550 -0.5715 -1.2301
 9710TIP3    H250546   1.495   6.447  12.282 -0.2286 -1.0381  0.4734
 9711TIP3   OH250547   0.974   5.316   1.263  0.2765 -0.3936 -0.0193
 9711TIP3    H150548   0.911   5.254   1.299  0.7129  0.1067  1.7163
 9711TIP3    H250549   0.922   5.394   1.242 -0.1295 -1.0148 -1.3781
 9712TIP3   OH250550   2.174   2.980   3.559  0.6557 -0.6782 -0.5384
 9712TIP3    H150551   2.086   2.947   3.542  0.3038  0.7015 -1.6427
 9712TIP3    H250552   2.166   3.031   3.640  0.1842  0.2373 -1.1405
 9713TIP3   OH250553   2.351   1.729  11.804  0.3713 -0.2562  0.3214
 9713TIP3    H150554   2.399   1.789  11.747 -1.3378 -2.8468 -4.5322
 9713TIP3    H250555   2.416   1.665  11.833  0.9542 -0.2353 -0.8746
 9714TIP3   OH250556   6.764   6.410  13.932  0.0600 -0.8206  0.1132
 9714TIP3    H150557   6.781   6.361  14.012  2.4162 -0.3874 -0.0445
 9714TIP3    H250558   6.689   6.366  13.891  0.2709 -2.4430  1.3992
 9715TIP3   OH250559   2.379   0.082   5.319 -0.2154 -0.6094  0.0350
 9715TIP3    H150560   2.365   0.052   5.408 -0.8299  1.4798  0.6908
 9715TIP3    H250561   2.473   0.068   5.303 -0.0368 -0.6832  1.1191
 9716TIP3   OH250562   3.778   3.326  13.078  0.3679 -0.1318  0.2060
 9716TIP3    H150563   3.725   3.290  13.150 -1.5880 -0.2041 -1.1968
 9716TIP3    H250564   3.861   3.279  13.084 -0.5211 -1.6698  1.1349
 9717TIP3   OH250565   0.569   6.299  13.972  0.0343  0.6598  0.1399
 9717TIP3    H150566   0.545   6.278  13.882 -1.5135  2.3796  0.0956
 9717TIP3    H250567   0.663   6.281  13.977  0.6247  2.4726 -2.4461
 9718TIP3   OH250568   6.217   3.477   3.984 -0.0023 -0.7657  0.2346
 9718TIP3    H150569   6.167   3.553   4.016  1.5169  0.0346  0.7788
 9718TIP3    H250570   6.206   3.411   4.052  0.0568 -0.4364  0.5666
 9719TIP3   OH250571   2.847   3.433   5.417  0.4313 -0.2588 -0.5813
 9719TIP3    H150572   2.903   3.481   5.356  1.0365 -0.1994  0.0109
 9719TIP3    H250573   2.801   3.370   5.361  1.3895 -0.5871 -1.0346
 9720TIP3   OH250574   0.297   2.789  16.138 -0.2561 -0.5865 -0.7679
 9720TIP3    H150575   0.348   2.718  16.099 -1.9739 -2.3452  0.0341
 9720TIP3    H250576   0.243   2.746  16.204  0.0745  1.7976  1.1779
 9721TIP3   OH250577   4.657   4.413   4.680  0.2404  0.0352 -0.3185
 9721TIP3    H150578   4.713   4.342   4.711  1.1505  0.5844 -0.6624
 9721TIP3    H250579   4.598   4.371   4.617  0.7343 -0.4273 -0.4772
 9722TIP3   OH250580   5.475   6.728   4.394  0.8285 -0.2984 -0.5529
 9722TIP3    H150581   5.393   6.678   4.393  1.5007 -1.5082  0.9181
 9722TIP3    H250582   5.500   6.729   4.486  2.6599 -0.2699 -1.0287
 9723TIP3   OH250583   2.923   0.366  12.138  0.4721 -0.2947  0.0295
 9723TIP3    H150584   2.984   0.356  12.065 -2.0544 -0.9855 -2.1321
 9723TIP3    H250585   2.859   0.430  12.108 -0.7432 -0.7212  1.5780
 9724TIP3   OH250586   2.171   2.138  16.011 -0.1137  0.1435  0.0342
 9724TIP3    H150587   2.208   2.050  16.006 -2.3643 -0.7929 -1.4996
 9724TIP3    H250588   2.144   2.148  16.102  1.2326 -0.2245  0.5066
 9725TIP3   OH250589   0.253   3.354  14.562 -0.2287 -0.4042  0.0631
 9725TIP3    H150590   0.344   3.343  14.589 -0.6212  0.2868  1.8220
 9725TIP3    H250591   0.203   3.306  14.627 -1.1651 -0.1607 -0.4627
 9726TIP3   OH250592   0.671   0.550   3.111 -0.4219 -0.0130  0.5286
 9726TIP3    H150593   0.635   0.497   3.182 -0.2294  0.7528  1.2148
 9726TIP3    H250594   0.628   0.635   3.120 -2.3555 -0.6411 -1.8929
 9727TIP3   OH250595   1.599   0.815  13.390 -0.1353 -0.3062  0.1099
 9727TIP3    H150596   1.684   0.773  13.398 -0.3671 -0.9881 -0.7858
 9727TIP3    H250597   1.561   0.810  13.477  1.0202  0.6475  0.6956
 9728TIP3   OH250598   2.245   2.707  14.158  0.2560 -0.5540  0.2449
 9728TIP3    H150599   2.263   2.656  14.079  1.8500  0.4979 -0.1152
 9728TIP3    H250600   2.326   2.754  14.175 -0.8848  1.2517  1.0119
 9729TIP3   OH250601   4.519   2.425  13.029  0.0186 -0.2965  0.5739
 9729TIP3    H150602   4.532   2.516  13.003 -0.6707 -0.4090 -0.1949
 9729TIP3    H250603   4.568   2.374  12.965 -0.3985 -0.5086  0.4218
 9730TIP3   OH250604   5.719   1.587  11.386 -0.5452  0.2063  1.2149
 9730TIP3    H150605   5.767   1.644  11.445 -0.4405  0.3022  1.0378
 9730TIP3    H250606   5.715   1.635  11.303  0.2617 -0.3765  0.8190
 9731TIP3   OH250607   3.843   0.332  15.738  0.1707  0.3845  0.7239
 9731TIP3    H150608   3.791   0.300  15.812  0.1733 -0.8676  0.2103
 9731TIP3    H250609   3.855   0.425  15.755 -2.2002  0.7111  0.8707
 9732TIP3   OH250610   0.123   6.304  16.147  0.4354  0.2704  0.0836
 9732TIP3    H150611   0.116   6.393  16.183 -1.6348  0.7349 -1.3105
 9732TIP3    H250612   0.064   6.252  16.200  1.3602 -0.2270  0.6516
 9733TIP3   OH250613   4.620   1.208  13.972 -0.0907  0.3260 -0.5582
 9733TIP3    H150614   4.649   1.267  13.902 -1.3974  1.0652 -0.5218
 9733TIP3    H250615   4.552   1.155  13.930 -1.9305  1.7621  0.4718
 9734TIP3   OH250616   6.351   1.517   1.121  0.2837 -0.5255 -0.6826
 9734TIP3    H150617   6.298   1.575   1.175  0.6533 -0.3176 -0.5369
 9734TIP3    H250618   6.354   1.435   1.170  2.1243  0.2117  0.5511
 9735TIP3   OH250619   0.387   2.499   3.126 -0.0448 -0.2893 -0.3967
 9735TIP3    H150620   0.451   2.445   3.081 -0.6893  0.2338 -2.0150
 9735TIP3    H250621   0.306   2.488   3.076 -0.3655  1.6119 -0.3893
 9736TIP3   OH250622   5.938   0.469  12.223 -0.1712  0.1252 -1.0328
 9736TIP3    H150623   5.979   0.389  12.192  0.2829 -0.9744  2.0938
 9736TIP3    H250624   5.988   0.539  12.182  2.1226 -1.1949 -0.6356
 9737TIP3   OH250625   1.317   2.433   3.049  0.0966 -0.1946 -0.4160
 9737TIP3    H150626   1.388   2.415   3.110  1.2439  3.8878 -0.2792
 9737TIP3    H250627   1.238   2.410   3.097  1.1128 -0.6408  1.1328
 9738TIP3   OH250628   2.697   6.249  12.254 -0.0181  0.3030  0.0650
 9738TIP3    H150629   2.744   6.272  12.174  0.1884 -1.7756 -0.4835
 9738TIP3    H250630   2.650   6.328  12.278 -2.0000  0.4197 -3.4546
 9739TIP3   OH250631   4.963   4.551   6.868 -0.5577  0.0158  0.1573
 9739TIP3    H150632   4.953   4.620   6.934  1.0878 -0.3466  0.8349
 9739TIP3    H250633   4.985   4.599   6.788  1.1438  0.3053  0.7511
 9740TIP3   OH250634   5.899   6.686  14.773 -0.0732  0.4156  0.3652
 9740TIP3    H150635   5.926   6.694  14.681  1.6212  0.3137  0.8232
 9740TIP3    H250636   5.816   6.732  14.777 -1.6578 -1.9875 -1.8222
 9741TIP3   OH250637   6.405   2.180  13.373  0.2608 -0.1635  0.2730
 9741TIP3    H150638   6.313   2.154  13.382  0.3263 -0.7915 -0.7327
 9741TIP3    H250639   6.437   2.129  13.299  1.3928  0.1499  0.5332
 9742TIP3   OH250640   5.433   2.500  12.765 -0.2032  0.3686  0.0702
 9742TIP3    H150641   5.364   2.435  12.778 -1.0178  0.8805 -1.5335
 9742TIP3    H250642   5.463   2.487  12.675  0.0340  1.8084 -0.0885
 9743TIP3   OH250643   2.458   0.105   4.664 -0.3008 -0.4481 -1.2545
 9743TIP3    H150644   2.519   0.175   4.687 -1.7294  0.3773  0.2205
 9743TIP3    H250645   2.470   0.092   4.570  3.2550 -1.4745 -0.7997
 9744TIP3   OH250646   6.058   5.605  14.018  0.4892  0.1479  0.2046
 9744TIP3    H150647   6.056   5.694  14.053  0.8546  0.7124 -1.1609
 9744TIP3    H250648   5.968   5.588  13.990  0.7683  0.7826 -1.1575
 9745TIP3   OH250649   5.259   1.689  14.380  0.0818  0.1386 -0.1812
 9745TIP3    H150650   5.273   1.750  14.453 -0.9297 -1.2237  1.2285
 9745TIP3    H250651   5.172   1.713  14.347  0.1428  0.1489 -0.3338
 9746TIP3   OH250652   2.525   5.554   3.313 -1.2700 -0.7353  0.3362
 9746TIP3    H150653   2.478   5.473   3.294  0.6834 -1.7510 -0.3684
 9746TIP3    H250654   2.473   5.622   3.270 -0.6920 -2.1345 -2.8550
 9747TIP3   OH250655   0.578   6.046  11.926  0.0066  0.5726  0.6463
 9747TIP3    H150656   0.535   5.987  11.988 -0.8669  0.4544 -0.0627
 9747TIP3    H250657   0.650   6.085  11.977  0.1980 -0.5964  1.3086
 9748TIP3   OH250658   6.262   6.143  14.255 -0.3509  0.0055  0.2516
 9748TIP3    H150659   6.201   6.121  14.326  0.0869  1.3604  1.0868
 9748TIP3    H250660   6.207   6.179  14.186 -0.6974 -0.5412  0.2421
 9749TIP3   OH250661   4.691   4.171  17.108  0.3768 -0.2352 -0.1674
 9749TIP3    H150662   4.721   4.081  17.118 -1.1861 -0.9769 -1.5875
 9749TIP3    H250663   4.604   4.171  17.149  0.5975  0.8066  0.3395
 9750TIP3   OH250664   4.874   5.258  13.882 -0.4923 -0.2540  0.3012
 9750TIP3    H150665   4.831   5.173  13.891  0.9488 -0.8506  2.4507
 9750TIP3    H250666   4.828   5.315  13.943 -1.4649  0.5549 -1.1472
 9751TIP3   OH250667   3.038   6.491   0.925 -0.9440  0.6495  0.2143
 9751TIP3    H150668   3.094   6.561   0.891 -0.7411  0.4998  0.2404
 9751TIP3    H250669   3.091   6.412   0.918 -1.7726  0.1927 -1.4292
 9752TIP3   OH250670   6.646   2.083  13.739 -0.1402  0.3482  0.5457
 9752TIP3    H150671   6.664   2.082  13.833  1.6601 -0.5857  0.2387
 9752TIP3    H250672   6.717   2.135  13.701 -0.1037 -0.3667 -0.4139
 9753TIP3   OH250673   0.458   3.102   4.651  0.8787 -0.3598 -0.0448
 9753TIP3    H150674   0.535   3.135   4.605  1.1166 -0.5377  0.2249
 9753TIP3    H250675   0.418   3.040   4.590  0.5503  0.2609 -0.4691
 9754TIP3   OH250676   5.006   3.860  11.434 -0.1230 -0.6126  0.4776
 9754TIP3    H150677   4.985   3.841  11.526 -1.7075 -0.7732  0.1113
 9754TIP3    H250678   4.941   3.924  11.407 -0.8049 -1.8844 -1.0236
 9755TIP3   OH250679   1.150   5.825   2.375 -0.1338  0.0094 -0.3299
 9755TIP3    H150680   1.235   5.826   2.420  0.0883 -2.6792 -0.4941
 9755TIP3    H250681   1.166   5.868   2.292  0.4432  1.5777  0.5503
 9756TIP3   OH250682   0.856   4.042   1.943 -0.5083  0.6491 -0.3101
 9756TIP3    H150683   0.927   4.026   1.881  0.7762  0.9621  1.0185
 9756TIP3    H250684   0.817   4.124   1.913 -1.0418 -0.0671 -1.6726
 9757TIP3   OH250685   1.001   4.255  12.669 -0.5556 -0.4163  0.0533
 9757TIP3    H150686   0.914   4.217  12.659 -1.7175  1.6058  1.6468
 9757TIP3    H250687   1.001   4.292  12.757  2.1464 -0.8207  0.3095
 9758TIP3   OH250688   4.194   4.208  12.534 -0.3636 -0.0851 -0.7713
 9758TIP3    H150689   4.244   4.131  12.562 -0.4223  0.3959  0.7213
 9758TIP3    H250690   4.251   4.282  12.553 -1.4707  0.4438  0.5889
 9759TIP3   OH250691   4.947   0.932  11.189  0.2920 -0.0920  0.1522
 9759TIP3    H150692   4.984   0.848  11.215  0.2244  0.0865  0.8478
 9759TIP3    H250693   4.867   0.910  11.142  1.3576 -0.4916 -1.5384
 9760TIP3   OH250694   0.714   2.227  16.214 -0.5159 -0.0207  0.4032
 9760TIP3    H150695   0.797   2.234  16.262 -0.4616 -1.5695  0.6120
 9760TIP3    H250696   0.739   2.211  16.123 -0.5215 -1.5218  0.6278
 9761TIP3   OH250697   3.402   6.369  17.052 -0.2226 -0.1728  0.3022
 9761TIP3    H150698   3.489   6.370  17.011 -0.9408  0.0799 -1.2796
 9761TIP3    H250699   3.347   6.321  16.990 -0.8456 -1.9699  2.1319
 9762TIP3   OH250700   2.208   1.964  13.395  0.2320 -0.0480  0.4758
 9762TIP3    H150701   2.123   2.006  13.392 -0.6296 -1.7397 -1.2139
 9762TIP3    H250702   2.256   2.000  13.321  0.2577 -0.5006  0.2672
 9763TIP3   OH250703   3.254   5.931  16.671  0.3022 -0.3501 -0.6403
 9763TIP3    H150704   3.183   5.867  16.672 -0.9906  1.0588 -0.1896
 9763TIP3    H250705   3.217   6.009  16.631  1.4047  0.6333  0.1789
 9764TIP3   OH250706   4.334   3.611   1.511  0.0944  0.0046  0.5609
 9764TIP3    H150707   4.274   3.685   1.524 -0.9871 -0.3888 -1.6482
 9764TIP3    H250708   4.306   3.546   1.575 -0.1549  0.8148  1.2890
 9765TIP3   OH250709   6.303   4.917   0.898  0.6287  0.5254 -0.1344
 9765TIP3    H150710   6.301   4.985   0.966 -1.0895  0.4491 -0.0787
 9765TIP3    H250711   6.212   4.891   0.887  1.0411 -0.4367 -1.5157
 9766TIP3   OH250712   6.650   1.666   2.337 -0.0837 -0.0690 -0.0342
 9766TIP3    H150713   6.669   1.645   2.428 -1.3074  1.2994  0.5898
 9766TIP3    H250714   6.734   1.690   2.299  0.0867  2.2529  1.5950
 9767TIP3   OH250715   5.752   4.631  13.853  0.4338 -0.2848  0.4919
 9767TIP3    H150716   5.764   4.537  13.839 -0.2396 -0.2021 -0.7897
 9767TIP3    H250717   5.657   4.641  13.866 -0.0713  0.5831 -2.9734
 9768TIP3   OH250718   2.918   1.437   0.641 -0.5824 -0.2834 -0.3397
 9768TIP3    H150719   2.974   1.491   0.696 -0.0471  0.7779 -1.8691
 9768TIP3    H250720   2.978   1.379   0.594 -0.6309  1.1407 -2.3023
 9769TIP3   OH250721   6.623   4.331   3.614  0.0051 -0.1624  0.1526
 9769TIP3    H150722   6.655   4.364   3.698 -1.5283  1.1629  0.2702
 9769TIP3    H250723   6.529   4.320   3.626  0.0961 -2.3394 -0.6707
 9770TIP3   OH250724   4.349   2.191   3.310  0.0853 -0.1388 -0.2104
 9770TIP3    H150725   4.442   2.178   3.330 -0.5216 -2.2530  1.6703
 9770TIP3    H250726   4.310   2.215   3.394 -0.9443  1.9278 -1.2125
 9771TIP3   OH250727   6.361   2.430   1.542 -0.5340 -0.5248 -0.5274
 9771TIP3    H150728   6.417   2.502   1.511 -1.8367  1.3673  1.2371
 9771TIP3    H250729   6.407   2.351   1.515  2.6252  0.9164  0.1624
 9772TIP3   OH250730   5.053   2.043   3.569 -0.5408  0.8045  0.3705
 9772TIP3    H150731   5.023   2.037   3.478  1.1301 -1.2145 -0.1432
 9772TIP3    H250732   4.979   2.014   3.621 -1.9970  3.2946 -0.1766
 9773TIP3   OH250733   4.036   1.047  13.042  0.5282 -0.1469  0.7238
 9773TIP3    H150734   4.079   1.115  13.095 -0.6218  0.0341  1.4675
 9773TIP3    H250735   3.983   1.096  12.980 -0.4062 -0.3338  1.3452
 9774TIP3   OH250736   4.755   1.776   3.021 -0.3189  0.5746  0.1364
 9774TIP3    H150737   4.782   1.705   2.963  1.6220  0.6719  0.8242
 9774TIP3    H250738   4.770   1.741   3.109  1.6813  2.1327  0.4838
 9775TIP3   OH250739   4.124   4.505  12.465  0.1248  0.2425  0.2757
 9775TIP3    H150740   4.102   4.414  12.446  1.3293  0.1448 -0.7730
 9775TIP3    H250741   4.218   4.505  12.479 -0.0109  1.1705  1.3251
 9776TIP3   OH250742   6.111   1.986  15.265  0.0334  0.0794 -0.8323
 9776TIP3    H150743   6.204   1.972  15.248  0.2403  1.2439 -0.7304
 9776TIP3    H250744   6.108   2.056  15.329 -0.9007 -0.6210 -0.0782
 9777TIP3   OH250745   5.420   5.213   5.719 -0.0053  0.1892 -0.0392
 9777TIP3    H150746   5.457   5.164   5.793  0.9898 -0.4083 -0.8937
 9777TIP3    H250747   5.448   5.303   5.734  0.3111  0.0486  0.2432
 9778TIP3   OH250748   6.237   4.841  11.704 -0.1272 -0.4774  0.2298
 9778TIP3    H150749   6.290   4.849  11.625 -0.5410 -0.0819 -0.0138
 9778TIP3    H250750   6.278   4.770  11.753 -0.2774 -1.2157 -0.6711
 9779TIP3   OH250751   2.462   4.667   4.115  0.0517 -0.5150  0.7280
 9779TIP3    H150752   2.372   4.641   4.137 -0.6550 -0.6956 -1.9921
 9779TIP3    H250753   2.475   4.636   4.025  3.1956 -1.2688  1.3387
 9780TIP3   OH250754   5.625   3.417  12.639 -0.5151  0.4597  0.2704
 9780TIP3    H150755   5.613   3.496  12.692 -1.3250  0.5250  0.0223
 9780TIP3    H250756   5.602   3.345  12.697  0.1184  0.4105  0.4655
 9781TIP3   OH250757   6.157   6.706  12.656  0.7456  0.5208 -0.0756
 9781TIP3    H150758   6.106   6.646  12.601  0.7142  1.4054 -1.0585
 9781TIP3    H250759   6.100   6.782  12.667  1.4934  1.1565 -0.4483
 9782TIP3   OH250760   2.788   5.732  14.012 -0.0585  0.4944  0.3028
 9782TIP3    H150761   2.712   5.764  13.963 -1.4578  0.2700  2.2044
 9782TIP3    H250762   2.751   5.699  14.094  1.9875 -0.6869  0.8201
 9783TIP3   OH250763   0.965   1.676   3.959  0.0383  0.1772  0.1128
 9783TIP3    H150764   1.050   1.631   3.955 -0.4658 -0.7346 -0.8259
 9783TIP3    H250765   0.984   1.765   3.930  0.3991 -0.4879 -1.8617
 9784TIP3   OH250766   0.437   6.657  15.319 -0.6991 -0.4006 -0.6151
 9784TIP3    H150767   0.379   6.691  15.388  0.1034 -0.4591  0.1033
 9784TIP3    H250768   0.466   6.572  15.351 -0.2671 -0.4046 -0.9973
 9785TIP3   OH250769   5.795   1.011   2.980 -0.2084 -0.1534  0.0691
 9785TIP3    H150770   5.867   0.997   3.041 -0.8862 -3.2583  0.3072
 9785TIP3    H250771   5.807   0.945   2.912 -1.2350  1.1797 -1.4778
 9786TIP3   OH250772   2.488   4.550  13.119  0.1288  0.6360  0.2481
 9786TIP3    H150773   2.402   4.508  13.117  0.7822 -0.7542 -0.3866
 9786TIP3    H250774   2.518   4.546  13.029  0.6499  1.5795  0.3752
 9787TIP3   OH250775   5.734   2.246   0.353 -0.4573 -0.1664 -0.1847
 9787TIP3    H150776   5.768   2.245   0.264 -1.1035  0.6328 -0.4575
 9787TIP3    H250777   5.812   2.255   0.408 -0.1735  1.9548 -0.8103
 9788TIP3   OH250778   4.378   0.397  12.106  0.4357 -0.3844 -0.5517
 9788TIP3    H150779   4.415   0.457  12.041 -0.3458  0.9669  0.2129
 9788TIP3    H250780   4.453   0.352  12.144  0.8658 -2.4466 -3.4692
 9789TIP3   OH250781   0.837   3.430   2.380  0.7752 -0.1230  0.0601
 9789TIP3    H150782   0.868   3.347   2.416 -0.1038 -0.5869 -0.2206
 9789TIP3    H250783   0.750   3.442   2.418  0.8955  0.6796  0.1047
 9790TIP3   OH250784   2.657   2.796   1.612 -0.2629  0.5105  0.1599
 9790TIP3    H150785   2.711   2.764   1.684  0.8183  0.7704 -0.5139
 9790TIP3    H250786   2.659   2.891   1.621  0.7794  0.6084 -0.8099
 9791TIP3   OH250787   0.417   3.813   2.875  0.1867  0.1359  0.2830
 9791TIP3    H150788   0.473   3.739   2.901 -1.6616 -1.8960 -1.1984
 9791TIP3    H250789   0.363   3.830   2.952 -0.2721 -0.9879  0.2366
 9792TIP3   OH250790   1.874   3.780   1.146 -0.1069  0.1250 -0.4936
 9792TIP3    H150791   1.872   3.704   1.204 -0.5023 -0.6724 -1.5196
 9792TIP3    H250792   1.881   3.743   1.058 -1.9125  1.2052 -1.1475
 9793TIP3   OH250793   0.519   5.577  14.924  0.6662 -0.5890  0.1975
 9793TIP3    H150794   0.530   5.483  14.917 -0.6042 -0.6983 -0.7650
 9793TIP3    H250795   0.541   5.611  14.837  0.7633 -0.0304  0.4319
 9794TIP3   OH250796   0.024   4.034  15.922 -0.2793  0.1973 -0.1004
 9794TIP3    H150797   0.052   3.944  15.939 -0.2548 -0.5511 -3.4269
 9794TIP3    H250798  -0.072   4.029  15.921 -0.4041 -0.9697 -4.4722
 9795TIP3   OH250799   3.751   4.985  14.150 -0.3488 -0.0909  0.2133
 9795TIP3    H150800   3.663   4.964  14.182 -0.6057 -0.3408 -0.6423
 9795TIP3    H250801   3.743   5.074  14.114 -0.2656 -0.1415  0.0693
 9796TIP3   OH250802   4.240   4.841  14.983 -0.2152  0.2028  0.3147
 9796TIP3    H150803   4.212   4.892  15.059 -0.9931 -0.6400  0.6060
 9796TIP3    H250804   4.316   4.889  14.949  1.3170 -0.4013  2.6768
 9797TIP3   OH250805   6.303   0.216   2.796 -0.5064  0.9212  0.7249
 9797TIP3    H150806   6.251   0.218   2.876 -2.0936 -1.7767 -0.1131
 9797TIP3    H250807   6.383   0.168   2.820 -0.6242  0.7925  0.8572
 9798TIP3   OH250808   2.174   5.240  14.296  0.5885  0.0286  0.5865
 9798TIP3    H150809   2.195   5.330  14.323 -0.3735 -0.0089  1.5391
 9798TIP3    H250810   2.233   5.185  14.347  1.3205  0.1180 -0.1490
 9799TIP3   OH250811   1.552   3.550  15.823  0.3331  0.2566 -0.1021
 9799TIP3    H150812   1.534   3.642  15.838 -2.3554 -0.2670  0.4768
 9799TIP3    H250813   1.510   3.530  15.740 -0.6629 -0.7922  0.6247
 9800TIP3   OH250814   4.356   1.092   5.303 -0.3493 -0.2177  0.2105
 9800TIP3    H150815   4.398   1.167   5.345 -2.5599  0.3613  1.5908
 9800TIP3    H250816   4.357   1.112   5.209 -0.9661  1.6232  0.5636
 9801TIP3   OH250817   6.708   2.773   3.577  0.4822  0.0203 -0.6272
 9801TIP3    H150818   6.667   2.687   3.587  1.6023 -0.4245  0.4295
 9801TIP3    H250819   6.800   2.758   3.600  0.2906  1.9194  1.7272
 9802TIP3   OH250820   5.871   1.754  11.500 -0.0757 -0.4631  0.0282
 9802TIP3    H150821   5.918   1.825  11.543  1.6655 -1.9582  0.6983
 9802TIP3    H250822   5.893   1.762  11.407 -0.4014  0.2057 -0.0027
 9803TIP3   OH250823   3.002   1.836  16.406 -0.3749  0.6868 -0.0242
 9803TIP3    H150824   2.934   1.769  16.400  0.2420  0.0786 -0.4560
 9803TIP3    H250825   3.045   1.820  16.490 -1.3713  1.6825  0.6951
 9804TIP3   OH250826   3.227   0.119  17.083  1.0010  0.0561 -0.2826
 9804TIP3    H150827   3.285   0.047  17.106  0.6577  0.4349  1.9800
 9804TIP3    H250828   3.139   0.087  17.103  0.6226  0.3078 -1.4622
 9805TIP3   OH250829   0.623   3.570   3.278 -0.3817  0.1318 -0.3175
 9805TIP3    H150830   0.583   3.489   3.247  1.6924 -0.9144 -0.4568
 9805TIP3    H250831   0.551   3.620   3.314 -2.3364 -0.1546 -3.5000
 9806TIP3   OH250832   2.386   5.868  14.380 -0.7143  0.4736  0.2153
 9806TIP3    H150833   2.463   5.925  14.375 -1.3754  1.5436  1.4823
 9806TIP3    H250834   2.370   5.842  14.290  0.4989  1.0894 -0.2082
 9807TIP3   OH250835   4.024   3.630   3.715 -0.2994  0.1150 -0.5620
 9807TIP3    H150836   4.116   3.645   3.692  0.5727 -0.4171  2.2897
 9807TIP3    H250837   4.001   3.704   3.771 -1.4840 -0.0545 -0.7911
 9808TIP3   OH250838   2.753   6.432   5.679 -0.0650  0.6897 -1.0918
 9808TIP3    H150839   2.782   6.446   5.589  0.0684 -1.3872 -1.4164
 9808TIP3    H250840   2.658   6.437   5.675 -0.1590 -1.0152 -1.7016
 9809TIP3   OH250841   3.090   4.792   4.856 -0.0282 -0.1177  0.3610
 9809TIP3    H150842   3.060   4.718   4.909  1.6217  0.7316  2.5773
 9809TIP3    H250843   3.172   4.761   4.817  0.0197  0.1128  0.2815
 9810TIP3   OH250844   5.155   4.867   4.692 -0.2762 -0.2664  0.0823
 9810TIP3    H150845   5.227   4.867   4.628 -2.3383 -0.1612 -2.3815
 9810TIP3    H250846   5.105   4.788   4.671 -1.8256  0.5461  0.6020
 9811TIP3   OH250847   6.412   2.126  11.840  0.4221  0.6072  0.6932
 9811TIP3    H150848   6.435   2.218  11.840 -0.3070  0.8012  1.3026
 9811TIP3    H250849   6.450   2.091  11.921 -0.9840  0.8381  1.4908
 9812TIP3   OH250850   6.323   3.632  13.027  0.2897 -0.7383  0.0706
 9812TIP3    H150851   6.257   3.564  13.037 -0.4665  0.0581  0.6334
 9812TIP3    H250852   6.402   3.596  13.067  0.0313 -1.4691 -0.0751
 9813TIP3   OH250853   6.062   5.816  14.291  0.2798  0.8820  0.0076
 9813TIP3    H150854   6.006   5.876  14.243  1.0144  0.1769 -1.8230
 9813TIP3    H250855   6.012   5.735  14.295  0.4118  0.8001  0.0026
 9814TIP3   OH250856   6.588   1.478  14.224 -0.0095  0.4078 -0.3454
 9814TIP3    H150857   6.592   1.395  14.178 -0.0076 -0.0421  0.4597
 9814TIP3    H250858   6.536   1.461  14.303  1.5160  0.6820  0.7804
 9815TIP3   OH250859   4.357   1.424   0.622  0.1672 -0.1022  0.0378
 9815TIP3    H150860   4.349   1.330   0.637  1.5033 -0.0175  1.6083
 9815TIP3    H250861   4.431   1.451   0.676  1.3195  1.4732 -2.1861
 9816TIP3   OH250862   5.354   1.116  13.518  0.1640  0.1864 -0.0728
 9816TIP3    H150863   5.401   1.178  13.462 -1.8834  0.3980 -1.6504
 9816TIP3    H250864   5.379   1.030  13.484  0.0300  0.2752 -0.4034
 9817TIP3   OH250865   4.057   1.511  14.782  0.0186  0.7689 -0.0713
 9817TIP3    H150866   4.116   1.461  14.839 -0.6620 -0.0375 -0.0457
 9817TIP3    H250867   4.114   1.552  14.718  0.6033 -0.0380 -0.0791
 9818TIP3   OH250868   3.033   4.834   2.724 -0.8915  0.2196  0.1593
 9818TIP3    H150869   2.948   4.832   2.681 -1.3796 -0.0643  1.1255
 9818TIP3    H250870   3.026   4.903   2.790 -0.6088 -0.2901  0.7275
 9819TIP3   OH250871   5.638   4.773   2.407 -0.5069  0.4257 -0.3752
 9819TIP3    H150872   5.632   4.868   2.399 -1.7030  0.3723 -0.2927
 9819TIP3    H250873   5.613   4.755   2.497  3.8637  0.3139  1.0150
 9820TIP3   OH250874   0.662   3.556   0.825 -0.3991 -0.0234  0.2262
 9820TIP3    H150875   0.575   3.592   0.807 -0.8709 -1.3748 -0.3002
 9820TIP3    H250876   0.668   3.555   0.921 -2.3017 -2.8234  0.4405
 9821TIP3   OH250877   4.922   3.836   5.067  0.2344  0.1343 -0.6040
 9821TIP3    H150878   4.863   3.890   5.119  0.3806 -1.2218  1.0385
 9821TIP3    H250879   4.867   3.767   5.031  0.5485 -0.3090 -0.2504
 9822TIP3   OH250880   4.006   1.731  15.867  0.0464  0.3366 -0.4837
 9822TIP3    H150881   3.991   1.777  15.950  0.5208 -1.4328  0.6249
 9822TIP3    H250882   3.937   1.664  15.864 -1.1772  1.5729 -2.4929
 9823TIP3   OH250883   2.617   0.990   4.645 -1.3202 -0.4389  0.2423
 9823TIP3    H150884   2.596   1.079   4.618  0.5760 -0.0062  0.0453
 9823TIP3    H250885   2.713   0.985   4.641 -1.1526 -1.5963  3.0186
 9824TIP3   OH250886   6.070   0.502   0.965  0.0858  0.1621  0.2466
 9824TIP3    H150887   6.052   0.520   1.057 -0.8951  0.2101  0.0535
 9824TIP3    H250888   5.985   0.483   0.926  0.5612 -0.4710 -0.5254
 9825TIP3   OH250889   0.174   2.337  11.356  0.0853  0.3197 -0.0920
 9825TIP3    H150890   0.094   2.353  11.406 -0.1966  0.3712 -0.5496
 9825TIP3    H250891   0.147   2.348  11.265  0.8532  1.3573 -0.1998
 9826TIP3   OH250892   0.973   3.303   0.491  0.0018 -0.1744 -0.1912
 9826TIP3    H150893   0.955   3.370   0.424  0.9754 -1.7029 -2.0797
 9826TIP3    H250894   0.921   3.330   0.567 -0.7903  1.8918 -1.3907
 9827TIP3   OH250895   5.778   6.228  15.445  0.7637 -0.2511 -0.6505
 9827TIP3    H150896   5.760   6.134  15.443  2.9402 -0.7384 -0.8185
 9827TIP3    H250897   5.846   6.237  15.513  0.1441  1.3048 -0.1951
 9828TIP3   OH250898   0.075   6.470   1.089 -0.5146  0.2123 -0.6474
 9828TIP3    H150899   0.063   6.432   1.176  0.3508  0.1586 -0.5495
 9828TIP3    H250900   0.169   6.473   1.076 -0.4787  2.7591 -0.4369
 9829TIP3   OH250901   1.270   3.395   5.598 -0.2812 -0.4614  0.1701
 9829TIP3    H150902   1.190   3.375   5.550 -0.8275  1.1247  0.3438
 9829TIP3    H250903   1.274   3.328   5.667 -1.2559 -0.7952 -0.0800
 9830TIP3   OH250904   6.373   1.916  11.198 -0.4015 -0.0657 -0.6284
 9830TIP3    H150905   6.376   1.831  11.155  0.3394  0.7383 -2.2423
 9830TIP3    H250906   6.321   1.971  11.139 -1.1981  0.5341  0.5729
 9831TIP3   OH250907   1.503   6.038   2.931  0.3469  0.0580  0.1728
 9831TIP3    H150908   1.550   6.078   3.004  1.3207  2.0077 -1.4246
 9831TIP3    H250909   1.423   6.090   2.923 -0.2361 -0.7796  0.4497
 9832TIP3   OH250910   5.909   2.687   4.292 -0.2706  0.0819  0.1666
 9832TIP3    H150911   5.908   2.676   4.197  0.6887  2.2694 -0.1739
 9832TIP3    H250912   6.001   2.706   4.313 -0.8582  2.1479  1.1315
 9833TIP3   OH250913   4.990   1.901   4.715 -0.3938 -0.1794  0.0298
 9833TIP3    H150914   4.896   1.898   4.737 -0.9439  0.6057 -1.9916
 9833TIP3    H250915   5.027   1.824   4.758 -1.9827 -0.5633  0.7876
 9834TIP3   OH250916   6.716   4.837  14.934  0.3395 -0.5396 -0.1073
 9834TIP3    H150917   6.673   4.766  14.982  1.5918 -0.7920  0.6927
 9834TIP3    H250918   6.783   4.794  14.882  0.2611 -0.0573 -0.6223
 9835TIP3   OH250919   5.045   4.029   0.946 -0.1203 -0.7180 -0.2536
 9835TIP3    H150920   5.004   4.087   1.011 -1.2415 -1.3559 -0.3658
 9835TIP3    H250921   4.993   3.949   0.950  1.3541 -1.7138 -0.1471
 9836TIP3   OH250922   1.285   4.178  12.723 -0.6045  0.2728 -0.0472
 9836TIP3    H150923   1.201   4.134  12.707 -0.1878  0.0896 -1.9575
 9836TIP3    H250924   1.288   4.248  12.659  1.5165 -0.9182 -1.3886
 9837TIP3   OH250925   4.279   2.822  12.540 -0.5609 -0.0341  0.6717
 9837TIP3    H150926   4.316   2.754  12.597  2.1552  0.4381 -0.3661
 9837TIP3    H250927   4.199   2.783  12.505 -0.6055 -1.5538  2.2916
 9838TIP3   OH250928   3.113   4.925  16.614 -0.3024  0.0354  0.2782
 9838TIP3    H150929   3.090   4.963  16.699 -0.9009 -0.6487  0.4311
 9838TIP3    H250930   3.206   4.945  16.604 -0.3687  0.6562  0.8130
 9839TIP3   OH250931   5.836   2.096  16.960 -0.3366  0.2111 -0.4326
 9839TIP3    H150932   5.799   2.145  16.885 -0.1709  0.8045 -0.1350
 9839TIP3    H250933   5.770   2.106  17.029  0.8548  2.3240  0.5159
 9840TIP3   OH250934   2.143   5.839   0.533 -0.2642  0.4267 -0.1423
 9840TIP3    H150935   2.053   5.820   0.558 -0.6538  0.3845 -1.4998
 9840TIP3    H250936   2.136   5.907   0.467  0.8024  1.3772  0.6828
 9841TIP3   OH250937   4.573   0.985   2.422 -0.2446  0.5104  0.1254
 9841TIP3    H150938   4.651   1.011   2.372 -0.4383  1.1342  0.1399
 9841TIP3    H250939   4.519   1.063   2.424 -1.4472 -0.2695 -0.9397
 9842TIP3   OH250940   6.320   0.375  16.997 -0.1127  0.1574  0.0307
 9842TIP3    H150941   6.304   0.284  17.021  0.6811  0.2118  0.8184
 9842TIP3    H250942   6.269   0.426  17.060  1.7645  0.2970  1.5057
 9843TIP3   OH250943   2.465   0.987   0.813  0.5188 -0.2097 -0.0377
 9843TIP3    H150944   2.386   1.019   0.770  0.6280  0.2833  0.1262
 9843TIP3    H250945   2.515   1.065   0.833 -0.3513 -0.2142  2.6122
 9844TIP3   OH250946   2.872   0.690   2.372 -0.1518  0.0256 -0.1397
 9844TIP3    H150947   2.851   0.665   2.462  1.5092 -0.6416  0.1099
 9844TIP3    H250948   2.942   0.630   2.347  1.2373  1.8693 -0.9371
 9845TIP3   OH250949   0.196   2.571   6.623 -0.0792  0.2194  0.0967
 9845TIP3    H150950   0.285   2.560   6.658 -0.0011 -0.7291 -0.3510
 9845TIP3    H250951   0.192   2.662   6.595  0.6897  0.3227  0.2938
 9846TIP3   OH250952   2.490   2.179  16.878 -0.6597 -0.4599 -0.0217
 9846TIP3    H150953   2.452   2.198  16.792 -2.3492 -0.7865  0.6041
 9846TIP3    H250954   2.441   2.103  16.910 -0.2938 -0.1521  1.3573
 9847TIP3   OH250955   3.733   5.253   2.116  0.6409 -0.7175  0.2871
 9847TIP3    H150956   3.750   5.159   2.103 -0.7587 -0.8517 -0.9038
 9847TIP3    H250957   3.658   5.271   2.059 -1.1835  0.4507  2.8919
 9848TIP3   OH250958   0.499   6.043   4.657  0.0893 -0.9921 -0.2516
 9848TIP3    H150959   0.555   6.008   4.726  1.4278  0.2667 -0.6270
 9848TIP3    H250960   0.558   6.056   4.583 -1.2257 -1.9211 -1.5168
 9849TIP3   OH250961   2.845   2.541   0.559  0.1477  0.3285  0.4458
 9849TIP3    H150962   2.840   2.511   0.650 -0.0360 -2.5079 -0.3849
 9849TIP3    H250963   2.931   2.510   0.529  0.7475  2.3436 -0.0369
 9850TIP3   OH250964   6.348   5.934  13.703  0.3978  0.1588 -0.6044
 9850TIP3    H150965   6.325   5.859  13.757  0.8495 -0.2710 -1.0064
 9850TIP3    H250966   6.337   5.903  13.613  0.1679  0.7074 -0.7722
 9851TIP3   OH250967   4.463   2.436   5.049  0.2271 -0.3383  0.0335
 9851TIP3    H150968   4.413   2.501   5.099  1.1337 -0.8973  1.7482
 9851TIP3    H250969   4.396   2.378   5.013 -0.4561 -1.1944  2.4552
 9852TIP3   OH250970   1.018   2.245   1.426 -0.3442 -0.1384  0.0508
 9852TIP3    H150971   1.005   2.320   1.368 -1.2423 -2.8014 -3.5233
 9852TIP3    H250972   0.937   2.241   1.478 -0.3243  1.2294  0.2364
 9853TIP3   OH250973   5.912   4.697  14.954 -0.2253 -0.3904  0.0501
 9853TIP3    H150974   5.899   4.792  14.943  0.6522 -0.1338  1.0642
 9853TIP3    H250975   5.920   4.685  15.048 -1.3598 -1.6413  0.0041
 9854TIP3   OH250976   1.540   0.381  10.810  0.0737  0.3401  0.2876
 9854TIP3    H150977   1.457   0.343  10.839  0.6952  0.8560  3.0161
 9854TIP3    H250978   1.522   0.474  10.799  0.1285  0.3430  0.2198
 9855TIP3   OH250979   6.248   5.141  15.607  0.3434 -0.4995  0.1342
 9855TIP3    H150980   6.223   5.053  15.634  1.4096 -0.7230  0.4466
 9855TIP3    H250981   6.276   5.131  15.516 -1.5870 -0.0656 -0.5511
 9856TIP3   OH250982   5.544   1.926   0.727 -0.3233  0.1824  0.0027
 9856TIP3    H150983   5.556   1.850   0.784  0.9119  1.7746  1.9718
 9856TIP3    H250984   5.626   1.931   0.676  0.0829  0.8305  0.7033
 9857TIP3   OH250985   2.522   4.994  14.183 -0.0904 -0.1403  0.0327
 9857TIP3    H150986   2.514   4.994  14.088 -2.6609  0.7557  0.1743
 9857TIP3    H250987   2.588   5.061  14.202  1.8177 -1.5993 -1.1221
 9858TIP3   OH250988   6.104   3.712  11.725  0.3522  0.5173  0.0417
 9858TIP3    H150989   6.119   3.721  11.631  0.5432 -0.7798 -0.0705
 9858TIP3    H250990   6.017   3.749  11.739  0.1337  0.3175 -0.7272
 9859TIP3   OH250991   2.749   6.589  12.722  0.0002 -0.1064  0.0363
 9859TIP3    H150992   2.824   6.624  12.675  0.3023 -1.7562 -0.7659
 9859TIP3    H250993   2.787   6.540  12.795 -0.2939 -0.7630 -0.2447
 9860TIP3   OH250994   1.507   0.930   4.780  0.2351  0.0765 -0.0146
 9860TIP3    H150995   1.572   0.860   4.779  0.9634  0.7165  0.7454
 9860TIP3    H250996   1.553   1.006   4.743  0.0454  0.6288  0.8415
 9861TIP3   OH250997   0.814   5.936   0.748  0.4868  0.1213  0.2412
 9861TIP3    H150998   0.733   5.905   0.709 -1.2722 -0.2117  3.7649
 9861TIP3    H250999   0.878   5.868   0.728 -0.4128 -0.3070 -1.4061
 9862TIP3   OH251000   1.408   3.617  16.745 -0.0864 -0.0104 -0.3471
 9862TIP3    H151001   1.351   3.684  16.783 -0.6008 -0.1820 -0.8097
 9862TIP3    H251002   1.464   3.590  16.818  1.4383  2.2533 -0.5789
 9863TIP3   OH251003   3.671   3.952   1.038  0.3391  0.1625  0.0099
 9863TIP3    H151004   3.577   3.961   1.054 -0.1565 -1.9503 -1.3438
 9863TIP3    H251005   3.698   3.877   1.092  0.9031 -0.2148 -0.7636
 9864TIP3   OH251006   5.656   6.608  14.437  0.2757  0.1158  0.1650
 9864TIP3    H151007   5.631   6.585  14.527  0.0897  1.2589  0.4229
 9864TIP3    H251008   5.751   6.625  14.443  0.1065  1.0920  0.3678
 9865TIP3   OH251009   3.456   2.232   1.931 -0.2396 -0.6962  0.1870
 9865TIP3    H151010   3.371   2.249   1.891  0.6501 -2.0327 -2.5183
 9865TIP3    H251011   3.477   2.314   1.977 -2.5987 -0.0687  0.2873
 9866TIP3   OH251012   2.736   3.384  15.149  0.3547  0.2143 -0.5529
 9866TIP3    H151013   2.824   3.360  15.120  0.9991 -1.7133  2.5599
 9866TIP3    H251014   2.701   3.304  15.189 -1.5628  1.7911  1.1363
 9867TIP3   OH251015   4.012   5.047   1.505 -0.6379  0.2391 -0.1878
 9867TIP3    H151016   4.034   5.124   1.558 -2.5244  0.6753  0.0371
 9867TIP3    H251017   3.943   5.078   1.446  1.4289 -0.1958 -3.0406
 9868TIP3   OH251018   0.056   5.839  17.238 -0.1172 -0.2668 -0.3083
 9868TIP3    H151019   0.107   5.829  17.157 -0.0535  1.4910 -0.5280
 9868TIP3    H251020   0.108   5.793  17.304 -0.5828 -2.4580 -1.3684
 9869TIP3   OH251021   6.435   2.109  11.373  0.6481  0.0118 -0.2604
 9869TIP3    H151022   6.398   2.035  11.325  1.6966 -0.0578 -1.0146
 9869TIP3    H251023   6.510   2.137  11.319  2.1245 -0.3064  1.5132
 9870TIP3   OH251024   6.102   5.484  13.563 -0.1774  0.7604  0.7845
 9870TIP3    H151025   6.052   5.414  13.604 -1.4014  1.7935  1.0978
 9870TIP3    H251026   6.037   5.536  13.516  1.1210 -0.2785 -2.4419
 9871TIP3   OH251027   1.749   6.216   0.927  0.0241 -0.2618 -0.2255
 9871TIP3    H151028   1.721   6.307   0.923  2.8769  0.6977 -0.2372
 9871TIP3    H251029   1.758   6.197   1.021 -2.2830 -1.2030 -0.1136
 9872TIP3   OH251030   6.193   2.441  14.490  0.3169 -0.5026  0.4506
 9872TIP3    H151031   6.140   2.396  14.556 -0.2443 -1.8129 -0.8415
 9872TIP3    H251032   6.281   2.445  14.529  0.3278 -2.5218  0.7227
 9873TIP3   OH251033   5.502   1.311  14.139  0.3949  0.5313 -0.5090
 9873TIP3    H151034   5.474   1.386  14.193  1.3889  0.4659  0.1221
 9873TIP3    H251035   5.436   1.305  14.071 -1.1935  0.3288  0.9659
 9874TIP3   OH251036   0.021   2.566  15.719  0.2281  0.2225  0.3256
 9874TIP3    H151037   0.050   2.504  15.786  0.5860  0.0108 -0.0247
 9874TIP3    H251038   0.020   2.651  15.764  3.2961  0.6057 -0.1227
 9875TIP3   OH251039   6.462   2.971  11.352  0.1201  0.6991 -0.5860
 9875TIP3    H151040   6.475   2.942  11.443  0.7192  1.6542 -0.3473
 9875TIP3    H251041   6.417   3.055  11.360 -0.4426  0.4655 -1.2098
 9876TIP3   OH251042   5.485   2.189  12.959 -0.7285 -0.0255 -0.1424
 9876TIP3    H151043   5.552   2.123  12.976 -0.7163  0.0613  0.1653
 9876TIP3    H251044   5.522   2.270  12.994 -0.1824  0.4248 -1.7254
 9877TIP3   OH251045   1.428   2.283  11.364 -0.4343 -0.1120 -0.3693
 9877TIP3    H151046   1.474   2.226  11.303 -0.6341  0.8455 -1.4640
 9877TIP3    H251047   1.496   2.336  11.405  0.0518 -2.6907  2.4962
 9878TIP3   OH251048   1.115   0.952  11.744 -0.2191 -0.7365  0.0345
 9878TIP3    H151049   1.163   1.032  11.764  1.5521 -1.8130  0.2757
 9878TIP3    H251050   1.131   0.937  11.650 -1.4477 -0.2581 -0.2741
 9879TIP3   OH251051   2.224   2.955  13.525  0.0047 -0.2422 -0.2346
 9879TIP3    H151052   2.175   3.035  13.547 -3.2585 -2.8564  3.3804
 9879TIP3    H251053   2.218   2.949  13.430 -2.2381  2.3067 -0.3976
 9880TIP3   OH251054   3.421   4.090  10.644 -0.4970 -0.4623 -0.5958
 9880TIP3    H151055   3.508   4.113  10.678 -0.5571  0.3161 -0.9388
 9880TIP3    H251056   3.430   4.000  10.614 -0.0452 -0.6782  0.1597
 9881TIP3   OH251057   3.074   5.258  15.894  0.1743 -0.0665  0.3874
 9881TIP3    H151058   3.027   5.246  15.812 -1.6426  2.1380  1.0173
 9881TIP3    H251059   3.131   5.181  15.900 -1.3761 -1.5053 -1.7444
 9882TIP3   OH251060   4.214   6.156  16.724  0.5581  0.2122  0.1008
 9882TIP3    H151061   4.132   6.169  16.774  0.4871 -0.8159  0.2583
 9882TIP3    H251062   4.190   6.097  16.653  1.0327  0.4108 -0.2311
 9883TIP3   OH251063   3.317   0.854   5.990  0.0417  0.3177 -0.2726
 9883TIP3    H151064   3.227   0.836   6.018  0.1861  0.4501  0.2976
 9883TIP3    H251065   3.313   0.940   5.947 -0.0058  0.6170  0.3096
 9884TIP3   OH251066   1.696   1.008  11.331  0.1739 -0.1409  0.2762
 9884TIP3    H151067   1.627   1.048  11.280 -0.3285 -0.1775  0.9134
 9884TIP3    H251068   1.652   0.939  11.382  1.0401 -1.6792 -0.9583
 9885TIP3   OH251069   1.833   0.331   3.406  0.4692 -0.5716 -0.7538
 9885TIP3    H151070   1.828   0.270   3.332 -2.0911  0.6034 -1.6676
 9885TIP3    H251071   1.742   0.347   3.430  1.2182 -0.9322  2.7766
 9886TIP3   OH251072   1.549   6.232   3.165  0.6287  0.2190  0.4363
 9886TIP3    H151073   1.477   6.262   3.220  0.6438  0.2123  0.4601
 9886TIP3    H251074   1.582   6.312   3.124 -0.7192 -0.0101 -1.2104
 9887TIP3   OH251075   6.473   5.170  15.176  0.0007 -0.1892  0.4119
 9887TIP3    H151076   6.455   5.115  15.253 -0.4085 -1.2816 -0.4386
 9887TIP3    H251077   6.556   5.138  15.142 -0.1440 -0.1537  0.0194
 9888TIP3   OH251078   5.210   1.443   3.666  0.4601  0.1685 -0.4271
 9888TIP3    H151079   5.286   1.494   3.637  1.2184 -2.0593 -2.7842
 9888TIP3    H251080   5.142   1.463   3.602 -1.6348  3.2639  2.4680
 9889TIP3   OH251081   3.210   1.245  13.492 -0.6336  0.4941 -0.5070
 9889TIP3    H151082   3.216   1.304  13.567 -0.2091 -1.0415  0.7103
 9889TIP3    H251083   3.268   1.284  13.426 -0.1337  1.2577  0.3635
 9890TIP3   OH251084   3.643   5.134   4.613 -0.0229 -1.0065 -0.2252
 9890TIP3    H151085   3.712   5.138   4.546  0.0996  1.3051 -0.0297
 9890TIP3    H251086   3.681   5.081   4.683  1.3209 -0.3566 -0.4239
 9891TIP3   OH251087   0.981   3.557  15.417  0.0223 -0.1141 -0.3472
 9891TIP3    H151088   1.076   3.559  15.407 -0.0065 -1.3967 -1.0582
 9891TIP3    H251089   0.960   3.638  15.463  1.4261  0.3266 -0.4436
 9892TIP3   OH251090   2.108   6.251   3.537  0.3641  0.6289  0.7973
 9892TIP3    H151091   2.167   6.225   3.608  0.8487 -0.4368  0.0359
 9892TIP3    H251092   2.021   6.253   3.578  1.0316  3.9780  2.3852
 9893TIP3   OH251093   4.072   3.299  15.738  0.0339 -0.0457  0.7943
 9893TIP3    H151094   4.025   3.377  15.709  1.6172 -0.0706 -2.1647
 9893TIP3    H251095   4.134   3.331  15.803  0.1726  1.0470  0.1507
 9894TIP3   OH251096   3.921   4.092   3.270 -0.4603  0.1638 -0.4269
 9894TIP3    H151097   3.848   4.059   3.322 -0.8176  0.7209 -0.5656
 9894TIP3    H251098   3.965   4.155   3.328 -0.3618  0.1665 -0.5043
 9895TIP3   OH251099   2.070   2.772   1.319  0.0905 -0.6115  0.7474
 9895TIP3    H151100   2.126   2.790   1.244 -0.1906  0.7708  0.8480
 9895TIP3    H251101   2.092   2.682   1.344  0.9539 -0.7177 -0.3170
 9896TIP3   OH251102   0.990   5.447   1.763  0.0088 -0.0788 -0.2187
 9896TIP3    H151103   1.077   5.475   1.792  0.6377 -0.5864 -1.5229
 9896TIP3    H251104   0.930   5.509   1.804  0.9749  0.2811  0.7056
 9897TIP3   OH251105   4.633   6.692   5.070 -0.2420  0.5280  0.2857
 9897TIP3    H151106   4.637   6.662   4.979 -1.3834 -1.7958  0.9177
 9897TIP3    H251107   4.623   6.787   5.064 -1.1344  0.3393 -2.0450
 9898TIP3   OH251108   0.372   3.136   0.120  0.2941  0.2844  0.3145
 9898TIP3    H151109   0.346   3.180   0.039  1.1992 -0.1338 -0.2234
 9898TIP3    H251110   0.391   3.207   0.181 -2.1582  0.6238  0.7981
 9899TIP3   OH251111   6.348   3.374  14.070 -0.1337 -0.1642  0.2077
 9899TIP3    H151112   6.297   3.309  14.118  1.4255 -0.8468  1.0368
 9899TIP3    H251113   6.438   3.342  14.076  0.8168  2.4344  1.2901
 9900TIP3   OH251114   5.709   2.943   4.968  0.1634 -0.1561 -0.4104
 9900TIP3    H151115   5.623   2.983   4.983  0.1986 -0.8530  1.9108
 9900TIP3    H251116   5.690   2.864   4.916 -0.2389  1.0745 -2.2427
 9901TIP3   OH251117   3.880   0.325   1.777 -0.1473  0.2620  0.0012
 9901TIP3    H151118   3.817   0.319   1.706 -0.4040 -0.5822  0.2803
 9901TIP3    H251119   3.895   0.234   1.804  0.0720  0.5512  0.9089
 9902TIP3   OH251120   5.524   4.881  15.417 -0.0682 -0.0656 -0.0184
 9902TIP3    H151121   5.445   4.867  15.470  0.3344 -0.7855  0.4114
 9902TIP3    H251122   5.491   4.909  15.332 -0.7126  2.3117  0.9398
 9903TIP3   OH251123   4.401   3.947   5.000  0.2608 -0.4075  0.0960
 9903TIP3    H151124   4.355   3.936   5.083  0.8667 -0.5259  0.4197
 9903TIP3    H251125   4.377   4.035   4.971  2.0852  0.7105  1.6935
 9904TIP3   OH251126   3.037   5.780   1.587  0.0864  0.0793  0.0548
 9904TIP3    H151127   2.968   5.802   1.524  0.8727 -2.2136 -1.7239
 9904TIP3    H251128   3.116   5.820   1.551  0.3864 -0.5654 -0.0252
 9905TIP3   OH251129   6.530   6.027   1.086  0.2383  0.2832 -0.0931
 9905TIP3    H151130   6.480   5.961   1.133 -0.2794  1.1583  0.6252
 9905TIP3    H251131   6.470   6.102   1.080  0.4544  0.3656 -1.7386
 9906TIP3   OH251132   5.345   0.948   4.652 -0.3842 -0.0250 -0.2779
 9906TIP3    H151133   5.282   0.876   4.649 -2.3702  1.5981  0.4811
 9906TIP3    H251134   5.430   0.906   4.637 -1.5370 -2.3955 -0.6241
 9907TIP3   OH251135   3.234   6.710   6.114  0.0203 -0.0149 -0.2020
 9907TIP3    H151136   3.184   6.722   6.033  2.3717  3.6781 -1.3480
 9907TIP3    H251137   3.312   6.764   6.102  0.2317  1.2028  4.7764
 9908TIP3   OH251138   3.062   5.026   4.333  0.0177 -0.0854 -0.0455
 9908TIP3    H151139   3.123   5.078   4.281  0.2431 -0.6884 -0.3927
 9908TIP3    H251140   3.044   5.080   4.410  0.7870  0.2165 -0.0660
 9909TIP3   OH251141   0.486   2.988  12.441  0.5456 -0.4455 -0.1472
 9909TIP3    H151142   0.529   3.063  12.483  1.8026 -1.0360 -0.3179
 9909TIP3    H251143   0.507   2.996  12.348 -0.8954 -0.0074 -0.4540
 9910TIP3   OH251144   5.260   1.701   3.245 -0.4090  0.0102 -0.4538
 9910TIP3    H151145   5.209   1.621   3.236 -0.1892 -0.1988  0.0735
 9910TIP3    H251146   5.202   1.771   3.215 -1.0495 -0.2118  0.2453
 9911TIP3   OH251147   5.899   1.454  14.811 -0.3541  0.0110  0.2159
 9911TIP3    H151148   5.917   1.516  14.882 -0.0106  0.2387 -0.0644
 9911TIP3    H251149   5.924   1.501  14.732  1.4946 -1.0499  0.1012
 9912TIP3   OH251150   0.832   2.416  11.446 -0.0942  0.4296 -0.1522
 9912TIP3    H151151   0.761   2.376  11.496  0.6573 -0.4516  0.2327
 9912TIP3    H251152   0.910   2.405  11.500  0.1027  2.7868  0.1463
 9913TIP3   OH251153   0.686   6.036   3.327  0.4721  0.2563  0.4961
 9913TIP3    H151154   0.776   6.044   3.358  0.2563  1.5403  0.8536
 9913TIP3    H251155   0.691   6.064   3.235  0.3962  0.6612  0.6107
 9914TIP3   OH251156   1.781   2.807  13.103  0.4744 -0.3322 -0.1077
 9914TIP3    H151157   1.866   2.823  13.062  0.2547 -1.1901 -0.9413
 9914TIP3    H251158   1.771   2.712  13.100  0.1910 -0.3773  1.4628
 9915TIP3   OH251159   0.847   1.277  16.543  0.1870 -0.4044  0.7820
 9915TIP3    H151160   0.882   1.307  16.459 -1.2380  2.1471  0.9892
 9915TIP3    H251161   0.753   1.290  16.536 -0.1418 -1.7917  2.1832
 9916TIP3   OH251162   2.546   2.514   0.174 -0.1277 -0.3091  0.1802
 9916TIP3    H151163   2.586   2.462   0.105 -0.0901 -0.0167 -0.0191
 9916TIP3    H251164   2.619   2.563   0.212 -0.3329  0.4202 -0.3537
 9917TIP3   OH251165   0.835   2.754  11.794  0.7118  0.7980 -0.4466
 9917TIP3    H151166   0.922   2.754  11.834  0.9631  0.0634 -0.9885
 9917TIP3    H251167   0.820   2.846  11.770 -0.1725  1.6678  2.8443
 9918TIP3   OH251168   6.188   6.539   0.654 -0.4577 -0.4673 -0.2769
 9918TIP3    H151169   6.140   6.596   0.714 -1.4597 -1.2754 -0.3013
 9918TIP3    H251170   6.231   6.600   0.594  0.1374  0.3344  0.9086
 9919TIP3   OH251171   2.431   2.656   1.577 -0.4837  0.1916  0.3589
 9919TIP3    H151172   2.521   2.668   1.546 -0.2164 -1.3038  0.4941
 9919TIP3    H251173   2.417   2.728   1.639 -0.3390  2.0413 -1.6460
 9920TIP3   OH251174   0.925   2.112  17.260 -0.2746  0.5351 -0.1181
 9920TIP3    H151175   0.889   2.060  17.332  1.1298 -1.2899 -0.6449
 9920TIP3    H251176   0.999   2.159  17.299  0.7973 -0.8377 -0.4107
 9921TIP3   OH251177   2.183   3.047  15.174  0.4871 -0.1800  0.4476
 9921TIP3    H151178   2.241   3.107  15.128  0.3164  1.3652  2.1685
 9921TIP3    H251179   2.241   2.980  15.210  0.5553 -1.9815 -2.6311
 9922TIP3   OH251180   2.913   1.031  15.045 -0.2693  0.0780  0.4578
 9922TIP3    H151181   2.987   0.994  15.093 -0.8580 -0.5577  0.8999
 9922TIP3    H251182   2.855   0.957  15.031  0.7328 -0.2229 -2.9771
 9923TIP3   OH251183   4.860   1.781  14.837  0.0544 -0.5588 -0.3356
 9923TIP3    H151184   4.793   1.782  14.769  1.0874 -1.1376 -1.3908
 9923TIP3    H251185   4.940   1.756  14.792  0.8695 -0.4810  1.0124
 9924TIP3   OH251186   3.734   6.115   5.249 -1.0606 -0.4392  0.4387
 9924TIP3    H151187   3.715   6.022   5.259 -2.1416 -0.4033 -1.0298
 9924TIP3    H251188   3.725   6.151   5.337  0.0692 -1.8196  1.1608
 9925TIP3   OH251189   5.267   0.081  12.605 -0.3767  0.0544  0.0332
 9925TIP3    H151190   5.223   0.165  12.592 -0.4102 -0.1138 -1.0433
 9925TIP3    H251191   5.291   0.053  12.516 -0.8832 -1.3580  0.3303
 9926TIP3   OH251192   1.350   4.223   6.798  0.2055  1.0659 -0.7353
 9926TIP3    H151193   1.320   4.314   6.795  1.9024  1.6939 -0.0595
 9926TIP3    H251194   1.440   4.227   6.766  1.3216  0.1208  1.9881
 9927TIP3   OH251195   6.235   2.837  16.605  0.1835  0.0525 -0.4189
 9927TIP3    H151196   6.175   2.763  16.614  1.9286 -1.3918 -0.1168
 9927TIP3    H251197   6.253   2.843  16.511 -0.1128  0.2301 -0.4652
 9928TIP3   OH251198   1.715   5.300  12.966  0.4534 -0.0068 -0.6867
 9928TIP3    H151199   1.644   5.270  13.023  0.4745  0.8998 -0.1540
 9928TIP3    H251200   1.686   5.277  12.878 -1.1067  1.4616 -0.6057
 9929TIP3   OH251201   2.213   3.265  14.033 -0.2079  0.1477 -0.2368
 9929TIP3    H151202   2.226   3.201  13.963 -1.1241 -1.7241  1.1988
 9929TIP3    H251203   2.131   3.309  14.012 -0.1729  0.0227 -0.6373
 9930TIP3   OH251204   3.984   2.890  12.875 -0.1135  0.4225  0.7483
 9930TIP3    H151205   3.923   2.958  12.901 -0.8242  0.4212 -0.8093
 9930TIP3    H251206   4.043   2.932  12.813  0.1287 -0.1184  0.6006
 9931TIP3   OH251207   0.029   1.631   2.582  0.3633  0.4305 -0.2206
 9931TIP3    H151208   0.096   1.673   2.637  0.3630  1.1093 -0.7238
 9931TIP3    H251209   0.004   1.553   2.631  2.2386 -0.3934 -0.4581
 9932TIP3   OH251210   0.194   4.913   1.859  0.2809 -0.3257 -0.2231
 9932TIP3    H151211   0.234   4.908   1.946 -0.4602  1.1538  0.2450
 9932TIP3    H251212   0.253   4.864   1.802 -0.3173 -3.2134  1.4615
 9933TIP3   OH251213   1.068   3.366   4.319  0.6628  0.3696  0.6652
 9933TIP3    H151214   1.154   3.324   4.314  1.9444  2.9679 -1.8790
 9933TIP3    H251215   1.013   3.314   4.260  0.5042 -1.1143  2.0544
 9934TIP3   OH251216   1.144   4.550  15.644  0.0342 -0.3087 -0.4986
 9934TIP3    H151217   1.200   4.518  15.573  1.1738 -0.5944  0.4930
 9934TIP3    H251218   1.063   4.577  15.601  0.2060 -1.6609 -1.7554
 9935TIP3   OH251219   0.439   0.333   4.053  0.0609  0.2938 -0.5360
 9935TIP3    H151220   0.461   0.410   4.105 -1.0698  1.5092 -1.7542
 9935TIP3    H251221   0.377   0.284   4.108  0.8496  0.1821  0.2784
 9936TIP3   OH251222   0.214   0.318   2.678 -0.1015 -1.0286  0.4217
 9936TIP3    H151223   0.262   0.378   2.622 -1.9514  1.3511  1.2214
 9936TIP3    H251224   0.258   0.323   2.763 -0.9897  0.2902  0.8434
 9937TIP3   OH251225   2.279   0.290  12.364 -0.4999 -0.4706 -0.6333
 9937TIP3    H151226   2.317   0.203  12.349  0.4715 -0.0799 -0.4868
 9937TIP3    H251227   2.275   0.329  12.277 -1.0752 -0.7089 -0.7199
 9938TIP3   OH251228   4.531   0.495  13.489 -0.4886  0.5563  0.0149
 9938TIP3    H151229   4.615   0.503  13.536 -0.8454  3.5737  0.3450
 9938TIP3    H251230   4.551   0.443  13.412  1.2735 -0.3051  1.0011
 9939TIP3   OH251231   2.552   4.314  16.402 -0.5638 -0.6854 -0.5438
 9939TIP3    H151232   2.466   4.273  16.398 -0.8755 -0.0488 -0.3848
 9939TIP3    H251233   2.542   4.386  16.464 -0.1751 -0.0065 -1.2560
 9940TIP3   OH251234   0.917   5.700  15.119 -0.3849 -0.1746 -0.7278
 9940TIP3    H151235   0.976   5.648  15.174  0.6622  0.5685 -1.1018
 9940TIP3    H251236   0.911   5.651  15.037 -0.0685 -0.1251 -0.7816
 9941TIP3   OH251237   4.573   1.411  11.698  0.2910  0.2765  0.2159
 9941TIP3    H151238   4.621   1.348  11.645  1.6108  1.3328  0.0935
 9941TIP3    H251239   4.637   1.479  11.717 -0.7944  1.0424  1.2553
 9942TIP3   OH251240   1.922   2.165   2.070 -0.1562 -0.0358  0.3678
 9942TIP3    H151241   1.888   2.078   2.093 -0.5856  0.0275 -0.0059
 9942TIP3    H251242   1.859   2.199   2.007  1.1182 -0.3186 -1.1119
 9943TIP3   OH251243   4.795   1.465  17.116  0.3603 -0.5215  0.5637
 9943TIP3    H151244   4.883   1.502  17.124  0.5007 -0.5990 -0.4602
 9943TIP3    H251245   4.785   1.449  17.022 -0.0541 -2.1958  0.8701
 9944TIP3   OH251246   0.168   2.217  13.576  0.0841  0.1018  0.6271
 9944TIP3    H151247   0.148   2.175  13.660  2.9641  0.6781  1.7008
 9944TIP3    H251248   0.169   2.144  13.514  0.2803 -0.7024  1.5411
 9945TIP3   OH251249   6.279   4.062   0.618  0.1215 -0.2302 -0.7189
 9945TIP3    H151250   6.370   4.051   0.591  0.1215 -1.6802 -0.1874
 9945TIP3    H251251   6.251   3.975   0.644 -0.9502  0.4825  0.6340
 9946TIP3   OH251252   4.521   3.711  15.999  0.4095  0.2260  0.3369
 9946TIP3    H151253   4.592   3.700  15.937 -0.5104  0.4118 -0.7798
 9946TIP3    H251254   4.490   3.801  15.985  0.5916  0.5000  1.5238
 9947TIP3   OH251255   6.770   3.562  13.027  0.1694 -0.1766  0.5843
 9947TIP3    H151256   6.856   3.594  13.052 -0.0261  0.9795 -0.1513
 9947TIP3    H251257   6.720   3.561  13.109  0.3386  0.9339  0.7150
 9948TIP3   OH251258   4.855   3.360  10.811  0.2842 -0.6412 -0.3006
 9948TIP3    H151259   4.836   3.342  10.903 -0.1619  3.8596  0.7279
 9948TIP3    H251260   4.770   3.356  10.767 -0.0020  0.1477  0.1600
 9949TIP3   OH251261   1.691   6.589  16.934 -0.3634 -0.5599  0.1097
 9949TIP3    H151262   1.653   6.666  16.892  0.9209 -0.7147 -1.4240
 9949TIP3    H251263   1.638   6.516  16.901  0.7747 -0.7055 -1.5079
 9950TIP3   OH251264   3.665   0.682  12.059 -0.1906  0.3879  0.0366
 9950TIP3    H151265   3.657   0.587  12.067 -0.2863  0.4188  0.3200
 9950TIP3    H251266   3.750   0.695  12.017  0.0895  0.2003  0.5382
 9951TIP3   OH251267   3.216   2.483   4.890  0.5458 -0.4603 -0.2880
 9951TIP3    H151268   3.296   2.487   4.942  0.3223  0.9445 -0.0179
 9951TIP3    H251269   3.145   2.478   4.954  0.3782 -1.1894 -0.5169
 9952TIP3   OH251270   6.464   4.065  16.007 -0.2931  0.3536  0.1749
 9952TIP3    H151271   6.445   4.159  16.002  0.4546  0.4635 -1.0209
 9952TIP3    H251272   6.387   4.023  15.968  0.0540  0.5723 -0.7749
 9953TIP3   OH251273   2.053   4.878  15.168 -0.2282  0.3980  0.4251
 9953TIP3    H151274   1.981   4.903  15.111  0.3245 -1.1746 -1.0396
 9953TIP3    H251275   2.092   4.961  15.195 -0.4296  1.2061 -1.5926
 9954TIP3   OH251276   1.449   5.326  15.031 -0.0227 -0.2578 -0.1687
 9954TIP3    H151277   1.523   5.387  15.029 -0.2739  0.1112  0.9191
 9954TIP3    H251278   1.435   5.302  14.940  2.1854 -1.2383 -0.3109
 9955TIP3   OH251279   3.649   6.638  12.099  0.0401 -0.1245  0.5207
 9955TIP3    H151280   3.737   6.674  12.092 -0.9852  2.3789 -1.2301
 9955TIP3    H251281   3.594   6.713  12.121 -1.8872 -1.2584 -0.1647
 9956TIP3   OH251282   4.281   2.619  11.616  0.6449 -0.6492 -0.1474
 9956TIP3    H151283   4.355   2.622  11.676  0.9674 -2.4219 -0.3998
 9956TIP3    H251284   4.319   2.636  11.530  0.4817  0.0253 -0.0933
 9957TIP3   OH251285   4.109   0.669   1.330  0.1201  0.0662 -0.2379
 9957TIP3    H151286   4.135   0.577   1.331  2.3064  0.6505  0.7945
 9957TIP3    H251287   4.077   0.686   1.418 -0.5550  0.2552 -0.5104
 9958TIP3   OH251288   1.254   0.063  12.441  0.2422 -0.2255  0.1684
 9958TIP3    H151289   1.175   0.089  12.488  0.8451  3.4329 -0.4893
 9958TIP3    H251290   1.226   0.056  12.350  0.2824 -1.0647  0.2162
 9959TIP3   OH251291   4.376   5.131  11.894 -0.3119 -0.6613  0.2549
 9959TIP3    H151292   4.400   5.059  11.953 -0.0087 -1.2236 -0.5245
 9959TIP3    H251293   4.445   5.196  11.906 -1.6048  0.4244  2.4104
 9960TIP3   OH251294   2.826   4.116  14.372 -0.2238  0.6935 -1.1749
 9960TIP3    H151295   2.892   4.168  14.325  0.2931  0.7264 -0.4198
 9960TIP3    H251296   2.774   4.181  14.419 -0.0858  0.5847 -0.8740
 9961TIP3   OH251297   3.624   1.919  13.126  0.1763  0.5729 -0.0249
 9961TIP3    H151298   3.662   1.844  13.173 -0.6081  0.9359  1.2511
 9961TIP3    H251299   3.598   1.979  13.196 -1.3799  0.9683 -0.9137
 9962TIP3   OH251300   0.416   6.411   3.042  0.2301  0.4415  0.0229
 9962TIP3    H151301   0.494   6.459   3.014  0.2422 -0.4965 -1.6195
 9962TIP3    H251302   0.378   6.377   2.961 -0.4798 -1.2594  1.0245
 9963TIP3   OH251303   6.495   0.939  15.552 -0.1839 -0.1803  0.1931
 9963TIP3    H151304   6.420   0.997  15.542  0.4351  0.4689 -0.9514
 9963TIP3    H251305   6.496   0.887  15.472  0.1546 -0.7058  0.5337
 9964TIP3   OH251306   5.096   2.135   4.260  0.5248 -0.2084  0.3724
 9964TIP3    H151307   5.027   2.115   4.324 -1.2852 -2.4453 -2.0864
 9964TIP3    H251308   5.102   2.057   4.205  2.1950  1.4761 -2.0446
 9965TIP3   OH251309   5.109   2.861  13.491  0.1757  0.1190 -0.2009
 9965TIP3    H151310   5.166   2.785  13.480  0.0329 -0.0074 -0.0796
 9965TIP3    H251311   5.040   2.831  13.551  0.3434  0.4628  0.1687
 9966TIP3   OH251312   0.220   2.802   6.457 -0.2808 -0.5174  0.8064
 9966TIP3    H151313   0.275   2.812   6.380 -1.7708  2.9949 -0.0277
 9966TIP3    H251314   0.249   2.872   6.516 -0.3187 -2.0453  2.7209
 9967TIP3   OH251315   5.727   6.120   0.783  0.3509  0.0830  0.1679
 9967TIP3    H151316   5.791   6.049   0.791 -0.0647 -0.2700  0.4398
 9967TIP3    H251317   5.755   6.185   0.847  2.5131  1.5996 -2.1499
 9968TIP3   OH251318   6.089   2.989   5.198 -0.0006  0.4462 -0.0008
 9968TIP3    H151319   6.058   2.967   5.286  0.0982  0.0801 -0.0556
 9968TIP3    H251320   6.025   3.052   5.165 -0.9888 -0.6893 -0.3091
 9969TIP3   OH251321   6.438   3.223  13.001  0.2311  0.1447  0.1907
 9969TIP3    H151322   6.489   3.196  12.925 -0.3014 -1.4131  0.3453
 9969TIP3    H251323   6.502   3.228  13.072  0.3648 -0.7124  0.1435
 9970TIP3   OH251324   1.593   2.177  16.540  0.3633  0.0574  0.0010
 9970TIP3    H151325   1.563   2.163  16.450 -0.3663 -0.9933  0.3802
 9970TIP3    H251326   1.577   2.269  16.557 -4.5123 -0.6684  0.7621
 9971TIP3   OH251327   3.789   4.587  11.944 -0.7112 -0.3722  0.9173
 9971TIP3    H151328   3.831   4.655  11.892 -1.3472 -0.3088  0.4717
 9971TIP3    H251329   3.795   4.618  12.035 -1.0059  0.2799  0.7127
 9972TIP3   OH251330   1.545   4.370   5.432 -0.4593 -0.5432  0.4780
 9972TIP3    H151331   1.487   4.396   5.504 -0.3743  0.4154  0.2161
 9972TIP3    H251332   1.496   4.303   5.384 -0.7234 -0.8213  1.1328
 9973TIP3   OH251333   4.803   2.534  14.619  0.1469 -0.0712  0.1598
 9973TIP3    H151334   4.729   2.539  14.558 -0.6312  0.2218  1.1178
 9973TIP3    H251335   4.778   2.466  14.681  0.1603  0.8438  1.1788
 9974TIP3   OH251336   2.059   4.164  14.678 -0.6444 -0.0060  0.0262
 9974TIP3    H151337   1.998   4.130  14.612  0.8004 -0.2948 -1.2014
 9974TIP3    H251338   2.118   4.090  14.696  2.4037  1.5806 -2.5001
 9975TIP3   OH251339   2.147   5.268   0.757 -0.0693 -0.0362 -0.3070
 9975TIP3    H151340   2.228   5.297   0.715  0.1897  0.1710  0.3280
 9975TIP3    H251341   2.101   5.349   0.779  2.0750  0.2256  4.3235
 9976TIP3   OH251342   2.242   6.017  15.404  0.5501 -0.1505 -0.0451
 9976TIP3    H151343   2.261   5.972  15.322 -0.4226  0.8633 -0.8650
 9976TIP3    H251344   2.201   6.099  15.377  1.0557  0.6283  1.4346
 9977TIP3   OH251345   5.723   1.783  11.180  0.1183 -0.4266 -0.0442
 9977TIP3    H151346   5.784   1.746  11.117  0.5669  0.4716 -0.1471
 9977TIP3    H251347   5.747   1.875  11.187 -1.9003  0.2352 -0.9083
 9978TIP3   OH251348   5.119   1.847   6.458 -0.3178  0.0333 -0.3729
 9978TIP3    H151349   5.031   1.823   6.486 -1.0023 -1.7484 -3.5013
 9978TIP3    H251350   5.173   1.773   6.485 -0.0387  0.4784  0.3073
 9979TIP3   OH251351   1.220   4.593   1.929 -0.2590  0.4617 -0.1634
 9979TIP3    H151352   1.167   4.621   2.004 -0.6389  1.6760 -0.8621
 9979TIP3    H251353   1.258   4.674   1.895  0.3901 -0.1524 -0.9336
 9980TIP3   OH251354   6.141   0.448  15.658  0.1306 -0.9725  0.1953
 9980TIP3    H151355   6.126   0.496  15.739  1.2810 -0.6936  0.2566
 9980TIP3    H251356   6.054   0.443  15.617  0.0371  1.7825 -0.1655
 9981TIP3   OH251357   1.854   1.347   4.526  0.0762  0.1817  0.2354
 9981TIP3    H151358   1.948   1.331   4.534 -0.2001 -0.7164  2.2210
 9981TIP3    H251359   1.842   1.436   4.559  0.2912  0.5508 -0.6547
 9982TIP3   OH251360   4.047   1.540  12.369 -0.3515 -0.5068  0.2393
 9982TIP3    H151361   4.096   1.622  12.370  0.6496 -1.0805 -0.2144
 9982TIP3    H251362   4.089   1.487  12.437  1.4421 -1.9767 -1.8683
 9983TIP3   OH251363   5.822   0.793   1.552  0.0901 -0.3687 -0.4486
 9983TIP3    H151364   5.818   0.717   1.610 -0.7955  1.0054  1.4002
 9983TIP3    H251365   5.912   0.825   1.560 -0.0335 -0.1794  0.1712
 9984TIP3   OH251366   5.024   5.289   5.306  0.6545 -0.3016 -0.3313
 9984TIP3    H151367   4.987   5.352   5.244  1.1674  0.0408 -0.2941
 9984TIP3    H251368   5.106   5.329   5.334  1.3111 -1.2915 -0.8181
 9985TIP3   OH251369   5.222   1.295   2.057  0.8387 -0.9229  0.1404
 9985TIP3    H151370   5.154   1.234   2.087  0.3242 -0.6478 -0.4567
 9985TIP3    H251371   5.179   1.380   2.055  0.8461 -0.9300 -1.3735
 9986TIP3   OH251372   3.665   3.294  11.898 -0.2836 -0.2203  0.4201
 9986TIP3    H151373   3.711   3.375  11.922 -0.5319  0.0370  0.0345
 9986TIP3    H251374   3.611   3.274  11.975  0.7108 -0.7117  1.0166
 9987TIP3   OH251375   4.971   3.702  13.949 -0.2655  0.4024 -0.4203
 9987TIP3    H151376   5.034   3.746  14.006 -0.0671 -0.0378 -0.2947
 9987TIP3    H251377   4.991   3.733  13.861  0.4611 -0.1137 -0.4506
 9988TIP3   OH251378   5.701   4.999  17.078  0.4110 -0.3681  0.5183
 9988TIP3    H151379   5.758   5.075  17.062 -1.0080  0.3497 -1.5176
 9988TIP3    H251380   5.702   4.951  16.996 -1.0600 -0.9076  0.7844
 9989TIP3   OH251381   1.698   1.574  14.583  0.5841  0.0390 -0.3376
 9989TIP3    H151382   1.789   1.596  14.559  1.1207  0.6282  1.9965
 9989TIP3    H251383   1.673   1.506  14.520  3.1938 -1.2462 -0.1473
 9990TIP3   OH251384   6.685   6.270  13.552  0.0969 -0.3130  0.4567
 9990TIP3    H151385   6.611   6.213  13.533 -0.2989  0.1985  0.4362
 9990TIP3    H251386   6.732   6.226  13.623 -0.5793 -0.3321  0.8979
 9991TIP3   OH251387   2.504   0.185   0.746  0.3621 -0.8834 -0.7316
 9991TIP3    H151388   2.456   0.247   0.800  0.0859 -1.3426 -0.4427
 9991TIP3    H251389   2.572   0.150   0.803  1.1375 -0.1386 -1.1773
 9992TIP3   OH251390   1.557   1.430   4.010 -0.1262 -0.2366 -0.2488
 9992TIP3    H151391   1.616   1.412   4.083  0.4890 -1.6676 -1.0675
 9992TIP3    H251392   1.612   1.424   3.932 -1.1425 -0.5557 -0.9634
 9993TIP3   OH251393   6.497   1.666  12.798  0.2615 -0.0479  0.1528
 9993TIP3    H151394   6.516   1.580  12.761 -2.0963 -1.2212  1.4881
 9993TIP3    H251395   6.439   1.708  12.734 -1.1259 -0.7513  0.9095
 9994TIP3   OH251396   4.769   3.995  13.169 -0.4181 -0.1222 -0.3528
 9994TIP3    H151397   4.712   3.962  13.100 -3.3114  1.7518  0.9345
 9994TIP3    H251398   4.734   3.957  13.249  0.2319  0.9843  0.4878
 9995TIP3   OH251399   6.199   2.033  17.183  0.1326  0.1722  0.4288
 9995TIP3    H151400   6.108   2.009  17.203  0.7102  0.0524  3.2929
 9995TIP3    H251401   6.242   1.949  17.165 -0.1141  0.1302  0.0317
 9996TIP3   OH251402   0.078   4.238   2.808  0.4340  0.3044 -0.3757
 9996TIP3    H151403   0.126   4.184   2.746 -0.5214 -0.4234 -0.4998
 9996TIP3    H251404  -0.012   4.206   2.803 -0.3777  2.5558 -1.1764
 9997TIP3   OH251405   5.291   5.116  16.313  0.2907  0.5495 -0.6874
 9997TIP3    H151406   5.303   5.074  16.228  0.2588 -0.5982 -0.1327
 9997TIP3    H251407   5.371   5.097  16.361 -0.4086 -0.3320  0.1645
 9998TIP3   OH251408   2.270   0.888  13.080  0.0290 -0.0062  0.1461
 9998TIP3    H151409   2.362   0.889  13.108  0.5726 -2.9632 -1.2065
 9998TIP3    H251410   2.229   0.819  13.133 -1.7724  1.9228  1.4468
 9999TIP3   OH251411   6.637   4.932   5.738  0.1233  0.2081 -0.4471
 9999TIP3    H151412   6.645   4.882   5.819 -4.3114  0.8376  0.6417
 9999TIP3    H251413   6.605   4.869   5.674 -1.4954  0.7101 -0.1811
10000TIP3   OH251414   6.501   4.747  13.649  0.0254 -0.0381  0.0803
10000TIP3    H151415   6.573   4.783  13.701 -1.5035  1.8939  0.9892
10000TIP3    H251416   6.544   4.706  13.574  2.0394  1.8773  0.0894
10001TIP3   OH251417   0.309   6.708  15.549 -0.5358  0.5309  0.2968
10001TIP3    H151418   0.227   6.680  15.590 -1.4419  1.9303 -0.5136
10001TIP3    H251419   0.294   6.799  15.524  1.8405  1.3798  1.6152
10002TIP3   OH251420   0.525   0.782  11.113 -0.4082 -0.6466  0.2603
10002TIP3    H151421   0.488   0.748  11.031 -0.3917 -0.7082  0.2778
10002TIP3    H251422   0.517   0.709  11.174  0.2843 -0.8637  0.1007
10003TIP3   OH251423   4.440   1.805  16.491 -0.2721 -0.3665 -0.1188
10003TIP3    H151424   4.426   1.813  16.397 -2.6876  0.3866  0.2402
10003TIP3    H251425   4.395   1.881  16.528  0.3904 -0.8009  1.6717
10004TIP3   OH251426   1.258   3.379   3.566 -0.2928 -0.1148  0.0238
10004TIP3    H151427   1.336   3.432   3.548 -1.2061  1.1259 -0.3768
10004TIP3    H251428   1.212   3.376   3.482 -0.3690 -1.3875  0.0921
10005TIP3   OH251429   4.931   5.350   0.842 -0.2860 -0.6633  0.0844
10005TIP3    H151430   4.862   5.295   0.880  0.7518 -1.6141  0.6501
10005TIP3    H251431   5.008   5.294   0.841  1.1984  1.1626  2.0084
10006TIP3   OH251432   3.385   2.210   0.312 -0.6800  0.3794  0.5481
10006TIP3    H151433   3.359   2.139   0.254  0.0580 -0.2633  0.9906
10006TIP3    H251434   3.341   2.191   0.395  0.3238 -0.1289  0.9756
10007TIP3   OH251435   2.634   3.700  13.400  0.4315 -0.0088  0.7521
10007TIP3    H151436   2.666   3.751  13.325 -0.7616 -0.3560 -0.0239
10007TIP3    H251437   2.613   3.766  13.466  1.8859  0.2772  0.9707
10008TIP3   OH251438   0.623   5.057  14.246  0.0827  0.1069 -0.2234
10008TIP3    H151439   0.548   5.113  14.266  0.2300  0.7999 -1.5210
10008TIP3    H251440   0.698   5.104  14.281 -0.0405 -0.4394  0.8019
10009TIP3   OH251441   1.840   6.015  15.713  0.1660  0.3231  0.0159
10009TIP3    H151442   1.898   6.071  15.661 -0.0770  0.2082 -0.3779
10009TIP3    H251443   1.756   6.018  15.668 -0.0708  0.2860  0.4473
10010TIP3   OH251444   0.077   0.943  13.948 -0.2306  0.4162 -0.3285
10010TIP3    H151445   0.036   0.901  13.873 -1.5927 -0.8238  1.0342
10010TIP3    H251446   0.164   0.966  13.918 -0.9398  0.5356 -2.4663
10011TIP3   OH251447   5.998   1.457   1.126  0.7008  0.5163 -0.1247
10011TIP3    H151448   6.055   1.424   1.056  1.3712 -0.3812  0.8089
10011TIP3    H251449   6.012   1.551   1.127  1.0309  0.4802 -0.8944
10012TIP3   OH251450   0.588   1.455   0.722 -0.4311 -0.3003 -0.3741
10012TIP3    H151451   0.637   1.397   0.780 -0.9944 -1.8072 -1.3279
10012TIP3    H251452   0.606   1.422   0.634 -0.9507  0.8522 -0.9372
10013TIP3   OH251453   1.239   0.947  13.068  0.3276  0.3675 -0.4062
10013TIP3    H151454   1.251   0.948  12.973  0.1570 -4.1924 -0.7393
10013TIP3    H251455   1.146   0.927  13.081 -0.6284  4.6925  1.0549
10014TIP3   OH251456   1.012   0.094  14.061  0.4372 -0.0018  0.4155
10014TIP3    H151457   1.044   0.011  14.024  0.3508  0.8159 -1.6670
10014TIP3    H251458   1.049   0.097  14.149  1.0324 -1.9160  0.2821
10015TIP3   OH251459   0.112   1.220  11.386 -0.4513  0.5716  0.6797
10015TIP3    H151460   0.145   1.290  11.443 -3.2392  2.3191  0.2961
10015TIP3    H251461   0.071   1.265  11.313  1.6071 -1.6024 -2.0705
10016TIP3   OH251462   6.357   2.542  16.612 -0.1066  0.2373  0.1670
10016TIP3    H151463   6.313   2.503  16.688 -0.9813  1.6478  0.4312
10016TIP3    H251464   6.401   2.620  16.647  0.5928  0.1680 -0.5358
10017TIP3   OH251465   1.895   1.460  13.062 -0.3499  0.4084 -0.2460
10017TIP3    H151466   1.940   1.482  13.143 -1.1164  0.8915  0.0477
10017TIP3    H251467   1.814   1.511  13.063  0.2078  1.4192 -1.9117
10018TIP3   OH251468   3.756   0.013   6.598 -0.2928 -0.0741  0.4964
10018TIP3    H151469   3.832   0.071   6.594 -0.9643  0.9042  1.4940
10018TIP3    H251470   3.793  -0.075   6.604  0.7431  0.2603 -0.7179
10019TIP3   OH251471   4.197   3.479   1.722  0.1802  0.1380 -0.1797
10019TIP3    H151472   4.103   3.492   1.710  0.0954  1.8619  1.6873
10019TIP3    H251473   4.214   3.390   1.691 -1.8660  0.1585 -1.4963
10020TIP3   OH251474   1.711   0.121  10.804 -0.3060 -0.3632 -0.3049
10020TIP3    H151475   1.663   0.204  10.801  1.3537  0.7359  1.4612
10020TIP3    H251476   1.667   0.070  10.873  0.4366  0.2641  0.6569
10021TIP3   OH251477   5.480   4.523   4.784  0.9771 -0.3118 -0.1474
10021TIP3    H151478   5.452   4.600   4.832  0.4133 -1.2534  1.0896
10021TIP3    H251479   5.440   4.532   4.698  0.8187  0.7083  0.0236
10022TIP3   OH251480   1.516   6.323   2.589 -0.1583  0.5288 -0.4947
10022TIP3    H151481   1.463   6.251   2.553 -0.5360  1.4597 -1.8670
10022TIP3    H251482   1.603   6.284   2.601 -1.1630 -1.1808  2.3196
10023TIP3   OH251483   0.000   0.195  12.087 -0.0717 -0.4922 -0.6292
10023TIP3    H151484  -0.036   0.132  12.150 -2.2957  1.3094  0.0348
10023TIP3    H251485  -0.074   0.251  12.064  1.3544  0.6494 -2.7278
10024TIP3   OH251486   2.455   5.452   1.954  0.6453  0.0138  0.0715
10024TIP3    H151487   2.402   5.507   1.896  2.2973 -0.0169 -1.5867
10024TIP3    H251488   2.404   5.372   1.964  1.0663 -0.7927 -3.0104
10025TIP3   OH251489   5.916   1.132  11.131 -0.0177  0.3388  0.3766
10025TIP3    H151490   5.945   1.099  11.046  2.2027 -2.7187  2.1142
10025TIP3    H251491   5.862   1.208  11.110 -0.0557 -0.5813 -3.7553
10026TIP3   OH251492   6.122   4.481   0.733 -0.0170  0.1186 -0.9070
10026TIP3    H151493   6.168   4.527   0.803 -0.3937 -1.4076  0.4222
10026TIP3    H251494   6.065   4.547   0.694 -0.2534  0.8823  0.6659
10027TIP3   OH251495   0.563   3.618  16.890 -0.2048  0.2512 -0.2575
10027TIP3    H151496   0.649   3.660  16.885 -0.3402  0.9152  1.9190
10027TIP3    H251497   0.505   3.676  16.841  0.9828 -1.8064 -4.6212
10028TIP3   OH251498   4.010   0.459  15.365  0.4953 -0.3962 -0.1237
10028TIP3    H151499   4.032   0.403  15.291 -0.8608  3.1207 -3.5474
10028TIP3    H251500   3.915   0.465  15.365  0.4910  0.2587  1.5023
10029TIP3   OH251501   0.763   5.332  12.241  0.1314  0.1530  0.2488
10029TIP3    H151502   0.739   5.241  12.223  0.6357  0.2838 -1.1835
10029TIP3    H251503   0.681   5.380  12.240 -0.3861 -0.5052  2.7905
10030TIP3   OH251504   1.741   0.657   0.139 -0.2147 -0.1055 -0.0178
10030TIP3    H151505   1.825   0.626   0.173 -0.0998 -0.3743 -0.5439
10030TIP3    H251506   1.754   0.663   0.045 -1.2010 -1.4535 -0.2694
10031TIP3   OH251507   1.522   6.626   0.294 -0.0457  0.1055  0.3023
10031TIP3    H151508   1.516   6.598   0.385  0.4856 -3.7009 -0.6680
10031TIP3    H251509   1.433   6.656   0.272 -0.0807  1.4821  2.0730
10032TIP3   OH251510   3.840   1.620   4.034  0.1757 -0.0013 -0.5607
10032TIP3    H151511   3.825   1.586   4.122  1.4665  1.4890  0.2901
10032TIP3    H251512   3.764   1.677   4.017 -0.3285 -0.6846 -0.6417
10033TIP3   OH251513   1.878   4.486   0.732  0.0341 -0.8559 -0.3036
10033TIP3    H151514   1.870   4.394   0.705  0.0306 -0.8253 -0.4074
10033TIP3    H251515   1.790   4.511   0.759  0.5828 -1.7668  2.6048
10034TIP3   OH251516   3.467   5.687   0.624  0.0850  0.6758 -0.2344
10034TIP3    H151517   3.464   5.600   0.664 -1.9789  0.3563 -0.9346
10034TIP3    H251518   3.444   5.747   0.695  1.6434  0.7038  0.2826
10035TIP3   OH251519   4.012   6.003  14.332 -0.2837 -0.3553 -0.0888
10035TIP3    H151520   4.042   5.913  14.328 -0.2362 -0.3112 -1.3330
10035TIP3    H251521   4.077   6.052  14.281 -0.3403  0.3728  0.5166
10036TIP3   OH251522   3.184   3.977   0.369 -0.3521 -0.5409 -0.1360
10036TIP3    H151523   3.110   3.951   0.313  0.0009  0.7633 -1.2567
10036TIP3    H251524   3.144   4.029   0.438 -0.7084 -1.5802  0.4651
10037TIP3   OH251525   5.140   4.693  16.557 -0.6425 -0.6802 -0.0150
10037TIP3    H151526   5.185   4.768  16.596 -0.7760 -0.6003 -0.0143
10037TIP3    H251527   5.096   4.650  16.630 -0.2577 -0.9792  0.0456
10038TIP3   OH251528   4.445   3.328   0.992  0.2383  0.1497  0.1111
10038TIP3    H151529   4.505   3.255   0.981  0.2472  0.2473 -0.5691
10038TIP3    H251530   4.415   3.347   0.903 -2.1590 -1.0304  0.5844
10039TIP3   OH251531   2.296   4.877  11.660 -0.0538 -0.4020 -0.1377
10039TIP3    H151532   2.331   4.925  11.735 -0.7751 -0.4904  0.2666
10039TIP3    H251533   2.372   4.832  11.623  0.8778  1.8118 -1.1366
10040TIP3   OH251534   4.594   0.740  11.712  0.4801  0.1269  0.0810
10040TIP3    H151535   4.539   0.801  11.761  0.5424 -0.0965  0.4287
10040TIP3    H251536   4.600   0.778  11.624  1.1628  1.0303  0.5040
10041TIP3   OH251537   0.863   4.994   6.675 -0.1327 -0.4329  0.2536
10041TIP3    H151538   0.931   4.933   6.703 -0.4638 -0.1323  1.7731
10041TIP3    H251539   0.912   5.068   6.638  0.2666 -1.7162 -1.9938
10042TIP3   OH251540   3.337   2.994   1.753 -0.8133  0.0469  0.0659
10042TIP3    H151541   3.242   2.986   1.748 -0.7694 -1.1280  0.8327
10042TIP3    H251542   3.362   2.945   1.831  0.3250  1.3307  0.5598
10043TIP3   OH251543   3.525   4.328   3.695  0.4234 -0.3610  0.1488
10043TIP3    H151544   3.466   4.255   3.714 -0.9627  1.0668  1.6466
10043TIP3    H251545   3.479   4.381   3.630  1.0526 -0.3539 -0.3076
10044TIP3   OH251546   2.392   3.869  15.112 -0.1315 -0.0970 -0.0091
10044TIP3    H151547   2.466   3.840  15.165 -0.2013 -0.7668 -0.2665
10044TIP3    H251548   2.346   3.933  15.166  1.3650  1.3324 -0.3284
10045TIP3   OH251549   3.855   6.596  10.736 -0.1226  0.6540 -0.2235
10045TIP3    H151550   3.797   6.579  10.662  0.7318  2.1225 -1.2847
10045TIP3    H251551   3.937   6.551  10.714 -0.3424 -0.1527  0.5523
10046TIP3   OH251552   3.974   6.522  15.539  0.0015  0.0235 -0.2064
10046TIP3    H151553   3.985   6.433  15.572  0.6467  0.5393  1.0194
10046TIP3    H251554   3.894   6.554  15.580  0.6812  0.5858  0.7061
10047TIP3   OH251555   1.975   6.514   3.528 -0.5209 -0.6062 -0.1295
10047TIP3    H151556   2.067   6.536   3.514 -1.0040  1.8068  0.0879
10047TIP3    H251557   1.974   6.459   3.607  0.6499  0.0259  0.3334
10048TIP3   OH251558   1.780   2.843   3.870 -0.3793  0.4841 -0.2051
10048TIP3    H151559   1.803   2.751   3.855 -1.7306  0.1010 -0.0154
10048TIP3    H251560   1.839   2.871   3.940  0.0104 -0.2497 -0.2316
10049TIP3   OH251561   1.773   0.588  13.308 -0.2690  0.5133 -0.9427
10049TIP3    H151562   1.702   0.542  13.263  1.4428 -0.0243 -3.3118
10049TIP3    H251563   1.809   0.523  13.368 -1.0825  0.4528 -0.5015
10050TIP3   OH251564   5.370   1.571  12.189 -0.0561 -0.0962  0.9627
10050TIP3    H151565   5.298   1.621  12.151 -0.8309 -2.3754 -0.7757
10050TIP3    H251566   5.446   1.595  12.136 -0.6610 -1.5251 -0.6348
10051TIP3   OH251567   6.147   6.756   6.158  0.2473  0.5139  0.0241
10051TIP3    H151568   6.140   6.814   6.082  1.5029  0.6480 -0.0063
10051TIP3    H251569   6.219   6.792   6.210 -0.1191 -0.0000  0.9133
10052TIP3   OH251570   6.417   4.616   2.072 -0.7256 -0.2331 -0.2248
10052TIP3    H151571   6.335   4.614   2.024 -1.0740 -0.2093  0.3616
10052TIP3    H251572   6.425   4.529   2.111  0.1830 -0.6791 -1.3433
10053TIP3   OH251573   0.263   3.916  12.185 -0.1138 -0.1491  0.2918
10053TIP3    H151574   0.308   3.861  12.120 -1.2593  1.5727 -2.1291
10053TIP3    H251575   0.178   3.874  12.196 -0.5102  0.3820 -0.5900
10054TIP3   OH251576   6.071   5.434  16.234  0.1843 -0.2995  0.0436
10054TIP3    H151577   6.087   5.448  16.141  0.8801  2.2602  0.4781
10054TIP3    H251578   5.977   5.449  16.244 -0.1672 -2.0067 -0.4255
10055TIP3   OH251579   2.240   6.186   3.293 -0.3003  0.2141  0.4044
10055TIP3    H151580   2.213   6.262   3.242 -2.1993 -0.5225  0.2439
10055TIP3    H251581   2.187   6.191   3.373 -0.8016 -1.1696  0.1870
10056TIP3   OH251582   5.635   2.964  15.490 -0.1660 -0.7113 -0.8191
10056TIP3    H151583   5.694   2.969  15.565 -1.0336 -0.8808 -0.1174
10056TIP3    H251584   5.607   2.872  15.488 -0.0171 -0.7481 -1.4562
10057TIP3   OH251585   5.583   4.316   5.321 -0.5054  0.2624 -0.0698
10057TIP3    H151586   5.530   4.288   5.396  0.8869 -1.1184  0.4505
10057TIP3    H251587   5.641   4.383   5.357  1.6548 -1.8773  0.7408
10058TIP3   OH251588   6.523   1.686   2.023  0.0628 -0.1635 -0.5762
10058TIP3    H151589   6.478   1.750   1.966 -1.3583 -1.4401 -0.9398
10058TIP3    H251590   6.516   1.603   1.976  1.0810 -0.7834  0.3206
10059TIP3   OH251591   6.449   1.622  12.192 -0.7357  0.2468 -0.4504
10059TIP3    H151592   6.473   1.611  12.284 -0.5160  1.7071 -0.3001
10059TIP3    H251593   6.485   1.545  12.149 -2.5869 -1.5010  0.9619
10060TIP3   OH251594   1.183   3.892   5.617  0.0210  0.4375 -0.0084
10060TIP3    H151595   1.240   3.818   5.595 -0.8690  0.5294 -3.0712
10060TIP3    H251596   1.204   3.959   5.552 -0.8031  2.0339  1.2945
10061TIP3   OH251597   5.568   2.430  15.458  0.0141 -0.5858 -0.0315
10061TIP3    H151598   5.569   2.334  15.456 -2.2594 -0.6789  0.0898
10061TIP3    H251599   5.643   2.453  15.512  1.4996 -2.2103 -1.2890
10062TIP3   OH251600   4.399   2.344  15.661 -0.1541 -0.0706  0.2408
10062TIP3    H151601   4.446   2.324  15.742 -0.1914 -0.1140  0.2525
10062TIP3    H251602   4.307   2.346  15.686 -0.3099 -1.7068 -0.1038
10063TIP3   OH251603   6.584   3.018  15.503  0.3121  0.7095 -0.0717
10063TIP3    H151604   6.522   2.995  15.572  0.1623  1.0990 -0.0722
10063TIP3    H251605   6.567   3.110  15.486  0.8075  0.7886 -0.1588
10064TIP3   OH251606   5.681   1.136   4.586 -0.6667  0.7705 -0.5193
10064TIP3    H151607   5.651   1.087   4.662  1.1560 -2.0695 -1.4341
10064TIP3    H251608   5.753   1.083   4.551  0.1400  3.1702 -2.8428
10065TIP3   OH251609   6.487   3.025  12.458 -0.1704  0.2258  0.3732
10065TIP3    H151610   6.571   2.999  12.496 -1.3212 -0.5157  2.6536
10065TIP3    H251611   6.426   3.019  12.531 -1.8490  2.7837 -0.6927
10066TIP3   OH251612   3.327   3.894   6.096  0.0625 -0.2237  0.1529
10066TIP3    H151613   3.364   3.983   6.097 -0.4245 -0.0021 -0.6503
10066TIP3    H251614   3.370   3.852   6.022  0.6624 -0.8312  0.8349
10067TIP3   OH251615   1.785   5.676  11.989  0.3743 -0.3163  0.4708
10067TIP3    H151616   1.819   5.751  12.037 -0.8720  0.9847 -0.5879
10067TIP3    H251617   1.720   5.713  11.929  1.1349 -1.9740 -1.5048
10068TIP3   OH251618   1.696   1.651  14.847 -0.4149 -0.0362 -0.1016
10068TIP3    H151619   1.676   1.645  14.754 -0.3285  0.8377 -0.1795
10068TIP3    H251620   1.610   1.654  14.890 -0.4754 -1.3753 -0.0655
10069TIP3   OH251621   6.139   6.761   4.087  0.0677 -0.4376 -0.0000
10069TIP3    H151622   6.070   6.785   4.026  0.3711 -0.6307 -0.4184
10069TIP3    H251623   6.170   6.844   4.122  0.4475 -0.2826 -0.7126
10070TIP3   OH251624   1.919   1.710   0.521  0.1155 -0.1716 -0.3914
10070TIP3    H151625   1.903   1.792   0.475 -0.5063  1.5042  2.5220
10070TIP3    H251626   1.837   1.661   0.514 -0.1828  0.3487 -0.5515
10071TIP3   OH251627   5.856   3.798  13.536  0.2584  0.1943 -0.1364
10071TIP3    H151628   5.832   3.742  13.462 -0.4487  0.1616  0.1079
10071TIP3    H251629   5.926   3.751  13.581 -0.4779 -0.6151  0.1939
10072TIP3   OH251630   0.227   5.023   5.796 -0.2317  0.3076  0.6962
10072TIP3    H151631   0.203   4.936   5.827 -0.9417  0.1357 -0.2968
10072TIP3    H251632   0.261   5.009   5.708 -0.9182  1.1011  0.2910
10073TIP3   OH251633   6.322   4.806  17.181 -0.2995  0.2007 -0.0616
10073TIP3    H151634   6.250   4.843  17.232  0.0424 -0.1457  0.6863
10073TIP3    H251635   6.311   4.711  17.191 -0.8117  0.0871 -1.4549
10074TIP3   OH251636   3.524   1.765   2.547  0.9574  0.4767  0.3100
10074TIP3    H151637   3.523   1.672   2.571 -2.8603  0.1823 -0.3558
10074TIP3    H251638   3.513   1.812   2.629 -0.7492  0.0744  0.3473
10075TIP3   OH251639   0.483   1.265   3.071 -0.0604  0.2221  0.2032
10075TIP3    H151640   0.540   1.210   3.018 -0.9101 -0.1561 -0.3371
10075TIP3    H251641   0.517   1.257   3.160 -0.4285 -1.5493  0.2194
10076TIP3   OH251642   1.782   2.322   0.963  0.0389  0.0834 -0.2776
10076TIP3    H151643   1.831   2.400   0.991 -1.6315 -0.0724  3.7606
10076TIP3    H251644   1.821   2.250   1.012 -0.9454 -0.9344 -0.9492
10077TIP3   OH251645   1.337   4.890   4.924  0.0019  0.2101  0.2520
10077TIP3    H151646   1.256   4.888   4.976  0.3960 -0.3286  0.8515
10077TIP3    H251647   1.349   4.800   4.896 -1.0579  0.7342 -2.1527
10078TIP3   OH251648   5.114   1.245  17.219 -0.3794  0.4432 -0.1527
10078TIP3    H151649   5.147   1.285  17.299  0.7487 -1.6197  0.4860
10078TIP3    H251650   5.045   1.186  17.248 -0.3894  0.1391 -0.7625
10079TIP3   OH251651   0.312   2.663  12.982 -0.4285  0.0403  0.1785
10079TIP3    H151652   0.392   2.693  13.025 -0.8846  0.4338  0.7797
10079TIP3    H251653   0.298   2.575  13.016 -0.3237  0.0237  0.1798
10080TIP3   OH251654   0.075   5.311   5.337  0.2836 -0.1201 -0.0611
10080TIP3    H151655   0.141   5.314   5.268  0.3119  0.9704 -0.0088
10080TIP3    H251656  -0.003   5.350   5.298  0.0153 -0.3530  0.2356
10081TIP3   OH251657   1.837   0.753  14.890 -0.3090  0.3594  0.0783
10081TIP3    H151658   1.750   0.780  14.921 -0.5296 -1.9017  1.6952
10081TIP3    H251659   1.819   0.692  14.818 -0.2132 -1.5147  1.5710
10082TIP3   OH251660   2.221   2.407   5.208 -0.5220 -0.2151 -0.4364
10082TIP3    H151661   2.220   2.451   5.293 -1.4532  0.2418 -0.6700
10082TIP3    H251662   2.310   2.420   5.176 -0.8560  1.8421 -0.6451
10083TIP3   OH251663   6.120   4.936  13.687 -0.4902 -0.6031  0.1077
10083TIP3    H151664   6.204   4.954  13.730 -1.4923 -2.1941  3.0569
10083TIP3    H251665   6.133   4.964  13.596  2.2253  1.9460  1.0989
10084TIP3   OH251666   6.718   3.979  12.612 -0.9373 -0.3438 -0.2894
10084TIP3    H151667   6.785   4.019  12.557 -0.8812 -0.7543 -0.5304
10084TIP3    H251668   6.748   3.888  12.623 -0.0581  0.1371  1.8257
10085TIP3   OH251669   4.955   3.576  15.943  0.5521 -0.1573  0.7944
10085TIP3    H151670   4.991   3.523  16.015  2.2459 -0.1701 -0.0193
10085TIP3    H251671   5.027   3.584  15.880 -1.3758 -1.7855 -1.8570
10086TIP3   OH251672   0.998   4.828  16.546 -0.3759 -0.1026  0.2649
10086TIP3    H151673   1.089   4.853  16.528  0.2290 -1.1156  1.7644
10086TIP3    H251674   0.988   4.743  16.502 -1.0726  0.6688 -1.1228
10087TIP3   OH251675   5.034   0.077  14.363  0.7061  0.1385 -0.1686
10087TIP3    H151676   5.028  -0.008  14.320 -1.5486  0.4324 -0.5620
10087TIP3    H251677   5.037   0.140  14.291 -0.2562  0.5011  0.0928
10088TIP3   OH251678   0.268   3.174  11.364  0.3251 -0.5070 -0.3846
10088TIP3    H151679   0.328   3.240  11.331 -0.5503  0.1493 -0.7097
10088TIP3    H251680   0.309   3.091  11.342  2.0240 -0.1041  1.0876
10089TIP3   OH251681   1.127   5.863   0.448 -0.3101  0.3599  0.2560
10089TIP3    H151682   1.215   5.829   0.463 -0.4623 -2.0792 -3.2219
10089TIP3    H251683   1.070   5.809   0.501 -0.1302 -2.3634 -2.0885
10090TIP3   OH251684   1.774   5.280   3.633  0.5914 -0.0390 -0.8362
10090TIP3    H151685   1.845   5.216   3.634  0.1140 -0.5679  0.0942
10090TIP3    H251686   1.789   5.333   3.711 -1.3072 -1.6078  0.6798
10091TIP3   OH251687   3.140   4.016  11.641  0.0834 -0.7848  0.1913
10091TIP3    H151688   3.135   3.939  11.698  0.0861 -0.7169  0.2814
10091TIP3    H251689   3.099   3.987  11.559 -1.6613 -0.2911  0.8506
10092TIP3   OH251690   3.957   1.930   3.892 -0.3608 -0.2710 -0.4366
10092TIP3    H151691   3.862   1.920   3.900 -0.2076 -1.1931  0.5394
10092TIP3    H251692   3.983   1.860   3.832 -0.1726 -0.7791  0.2273
10093TIP3   OH251693   6.451   5.548  13.078  0.0204  0.0453 -0.6603
10093TIP3    H151694   6.460   5.555  13.173  1.3450  0.2435 -0.7774
10093TIP3    H251695   6.541   5.555  13.045 -0.3191 -0.9922 -1.8666
10094TIP3   OH251696   4.609   3.108  15.326 -0.8679 -0.3226  0.0974
10094TIP3    H151697   4.700   3.109  15.296 -1.1206 -1.0967 -0.7485
10094TIP3    H251698   4.588   3.200  15.343  0.1008 -0.1459  0.4127
10095TIP3   OH251699   2.505   2.113  12.366  0.0339  0.0052  0.5065
10095TIP3    H151700   2.419   2.069  12.365 -0.6739  1.3052  1.1845
10095TIP3    H251701   2.490   2.191  12.419  1.7482  0.0694  0.9292
10096TIP3   OH251702   3.201   2.411  15.680  0.2171 -0.0149 -0.1771
10096TIP3    H151703   3.295   2.418  15.663 -0.1986  0.7242 -2.5200
10096TIP3    H251704   3.189   2.451  15.766  2.4064 -2.9869  1.7016
10097TIP3   OH251705   4.146   6.462  15.141  0.0860 -0.0505  0.0190
10097TIP3    H151706   4.195   6.434  15.217 -0.7217 -1.8932 -0.0822
10097TIP3    H251707   4.195   6.428  15.066  0.1462  0.5488 -0.2200
10098TIP3   OH251708   6.703   4.835   4.176 -0.1440 -0.7097 -0.2283
10098TIP3    H151709   6.665   4.923   4.187  0.0691 -0.5355 -0.8284
10098TIP3    H251710   6.634   4.785   4.132  0.7241 -0.0324 -2.5276
10099TIP3   OH251711   5.490   2.616  14.608  0.0135  0.2290 -0.5912
10099TIP3    H151712   5.408   2.635  14.653  0.4847  0.7203  0.0620
10099TIP3    H251713   5.558   2.642  14.669  0.6763 -1.2699 -0.6440
10100TIP3   OH251714   3.079   4.443  15.285 -0.7984 -0.2035  0.0757
10100TIP3    H151715   3.098   4.513  15.223  0.1389  0.7045  1.3339
10100TIP3    H251716   2.985   4.448  15.301 -0.7417  0.7787  0.1380
10101TIP3   OH251717   6.468   3.985  16.282 -0.0647  0.1348  0.0967
10101TIP3    H151718   6.450   3.948  16.195 -2.1567  0.2317  0.4234
10101TIP3    H251719   6.426   3.925  16.343 -2.2967  2.1590  0.7230
10102TIP3   OH251720   0.365   5.520  14.606  0.0544 -0.4306  0.0451
10102TIP3    H151721   0.305   5.547  14.537  0.7908 -0.3493 -0.5880
10102TIP3    H251722   0.311   5.512  14.684 -0.5974  0.5808 -0.2892
10103TIP3   OH251723   4.756   0.230  12.431 -0.3887  0.5990  0.0950
10103TIP3    H151724   4.716   0.148  12.401 -0.6547  0.2018  1.4728
10103TIP3    H251725   4.829   0.202  12.485  0.3694  1.3080 -0.5426
10104TIP3   OH251726   4.867   6.118  16.294  0.2547  0.1778 -0.1306
10104TIP3    H151727   4.884   6.179  16.366  1.2085  0.1654 -0.3352
10104TIP3    H251728   4.859   6.033  16.337  0.0987  0.2762  0.0355
10105TIP3   OH251729   3.536   5.268   1.216 -0.2917  0.2980  0.0171
10105TIP3    H151730   3.619   5.222   1.207 -0.1639  0.8232 -1.9983
10105TIP3    H251731   3.474   5.200   1.245  0.5391 -0.4164  0.1531
10106TIP3   OH251732   3.686   2.732   3.991  0.1079 -0.0081 -0.1888
10106TIP3    H151733   3.712   2.693   3.907  2.5698 -0.5675  0.7435
10106TIP3    H251734   3.723   2.820   3.989 -0.9240  0.4397 -0.1727
10107TIP3   OH251735   3.246   2.458  12.086 -0.3298 -0.2284 -0.6786
10107TIP3    H151736   3.234   2.366  12.113 -0.9720  0.6262  2.3862
10107TIP3    H251737   3.308   2.493  12.149 -0.2692  1.5265 -1.6682
10108TIP3   OH251738   2.036   2.269  17.058 -0.2133  0.1231 -0.1299
10108TIP3    H151739   1.954   2.220  17.070 -1.4442  1.8390 -1.0732
10108TIP3    H251740   2.104   2.203  17.068 -1.7419 -1.5935 -0.3477
10109TIP3   OH251741   0.374   1.454   6.097  0.1335 -0.2526 -0.3669
10109TIP3    H151742   0.295   1.452   6.042  0.9202 -0.8696 -1.5081
10109TIP3    H251743   0.396   1.362   6.112  1.0905 -0.0945 -0.7400
10110TIP3   OH251744   2.609   5.028   3.201 -0.2726 -0.2690 -0.1863
10110TIP3    H151745   2.631   5.120   3.186 -0.1647 -0.2801 -0.1037
10110TIP3    H251746   2.544   5.030   3.271 -0.7027 -0.2232 -0.5894
10111TIP3   OH251747   5.950   4.692  16.164  0.1636 -0.2602 -0.0793
10111TIP3    H151748   5.972   4.605  16.130  1.2424 -0.9197  2.0904
10111TIP3    H251749   6.017   4.750  16.128 -0.4423 -0.3404 -1.3788
10112TIP3   OH251750   2.398   2.847   3.468  0.1948  0.3835 -0.1484
10112TIP3    H151751   2.327   2.907   3.492 -0.9087 -1.4573  1.5215
10112TIP3    H251752   2.383   2.827   3.376 -1.2305  0.3730  0.0659
10113TIP3   OH251753   3.062   1.036  16.215  0.2297  0.0688 -0.0311
10113TIP3    H151754   3.077   1.105  16.279  2.5793 -0.2740 -0.1004
10113TIP3    H251755   3.124   0.967  16.241  0.3203 -0.5999 -1.9064
10114TIP3   OH251756   4.304   1.580  14.320 -0.4096  0.7675  0.0964
10114TIP3    H151757   4.347   1.638  14.383  0.9005  1.8946 -1.7287
10114TIP3    H251758   4.373   1.558  14.257 -1.8197  0.2271 -1.3213
10115TIP3   OH251759   4.911   1.770   1.846  0.2695  0.0919  0.6722
10115TIP3    H151760   4.900   1.686   1.801 -0.3704  0.5621 -0.0519
10115TIP3    H251761   4.996   1.802   1.816  0.6819 -0.4533  1.2257
10116TIP3   OH251762   6.755   4.796   1.748 -0.0786 -0.1809  0.1758
10116TIP3    H151763   6.821   4.857   1.782 -1.1592  0.4091  1.2644
10116TIP3    H251764   6.732   4.831   1.662  0.9018 -0.3068 -0.1537
10117TIP3   OH251765   6.746   5.729  14.234  0.0527  0.2267 -0.2237
10117TIP3    H151766   6.656   5.706  14.256  0.1767 -0.8384 -0.7241
10117TIP3    H251767   6.787   5.751  14.318 -0.4194 -0.2383  0.1327
10118TIP3   OH251768   3.711   0.754  16.369 -0.0430  0.7524  0.6460
10118TIP3    H151769   3.706   0.810  16.446 -2.3445  0.0612  1.0777
10118TIP3    H251770   3.797   0.712  16.374 -0.5041 -0.0033  3.3531
10119TIP3   OH251771   3.342   2.881   6.561  0.2595 -0.0958 -0.1425
10119TIP3    H151772   3.407   2.815   6.584 -1.0810 -1.6047 -0.5429
10119TIP3    H251773   3.271   2.832   6.521 -0.4982  1.6799 -1.0934
10120TIP3   OH251774   2.541   1.667  17.140  0.2120  0.4757  0.2355
10120TIP3    H151775   2.462   1.613  17.129  0.5364 -0.0843  0.6227
10120TIP3    H251776   2.595   1.648  17.064 -0.4792  1.6778 -0.6008
10121TIP3   OH251777   0.421   2.579   0.924 -0.0421  0.5281  0.0485
10121TIP3    H151778   0.474   2.529   0.863  0.7923  1.7214 -0.2424
10121TIP3    H251779   0.468   2.662   0.934 -0.1691  0.3978  2.2651
10122TIP3   OH251780   1.253   2.525   4.845 -0.3159 -0.3830 -0.1689
10122TIP3    H151781   1.212   2.611   4.832  1.9241  0.8121  0.2286
10122TIP3    H251782   1.232   2.502   4.936  0.5884  0.6321  0.3132
10123TIP3   OH251783   3.602   4.996   1.433  0.2797 -0.0913 -0.0214
10123TIP3    H151784   3.584   4.966   1.344 -2.1745  3.6208 -0.9910
10123TIP3    H251785   3.671   5.061   1.423 -0.3546  0.7117  0.7001
10124TIP3   OH251786   0.196   3.182   4.410  0.0132 -0.0241  0.3393
10124TIP3    H151787   0.135   3.200   4.482 -0.3637  2.9724 -0.6144
10124TIP3    H251788   0.234   3.097   4.432 -1.8270 -0.3111  2.8361
10125TIP3   OH251789   5.201   3.072   5.155  0.2205  0.3093 -0.5326
10125TIP3    H151790   5.191   3.120   5.073  0.1608 -1.5276 -1.6383
10125TIP3    H251791   5.281   3.020   5.144 -0.3499 -0.7482  0.1421
10126TIP3   OH251792   5.799   3.929  14.386 -0.3214 -0.0358  0.2827
10126TIP3    H151793   5.754   3.971  14.312 -0.1374  1.8622  1.1852
10126TIP3    H251794   5.890   3.920  14.357  0.0944  2.1212  0.7881
10127TIP3   OH251795   2.327   5.781   4.621  0.4321 -0.2942  0.4923
10127TIP3    H151796   2.339   5.837   4.698 -0.5137  0.0867  0.3729
10127TIP3    H251797   2.273   5.708   4.653  1.4161 -1.0161  0.5772
10128TIP3   OH251798   0.602   5.882  12.644  0.2371  0.2787  0.7470
10128TIP3    H151799   0.544   5.846  12.711 -2.2860  1.0458 -0.8590
10128TIP3    H251800   0.628   5.806  12.592 -1.2404  0.1225  0.1656
10129TIP3   OH251801   1.614   5.438   5.626  0.2063  0.2553  0.5147
10129TIP3    H151802   1.579   5.349   5.634  3.0795 -1.0283  0.0293
10129TIP3    H251803   1.603   5.460   5.534 -1.9383  1.1158  0.9263
10130TIP3   OH251804   5.399   1.396  13.798 -0.6705  0.1358 -0.5572
10130TIP3    H151805   5.361   1.402  13.886 -0.2764  0.0109 -0.3773
10130TIP3    H251806   5.324   1.381  13.740 -0.9480  0.3583 -0.2598
10131TIP3   OH251807   2.917   0.316  14.202  0.0341  0.3537  0.2464
10131TIP3    H151808   2.997   0.359  14.171 -1.1759  1.8375 -1.0406
10131TIP3    H251809   2.858   0.319  14.126 -2.0956  1.5647  1.8609
10132TIP3   OH251810   6.410   3.943   2.690 -0.0986  0.0852  0.0649
10132TIP3    H151811   6.372   4.004   2.752 -1.0813  0.3092 -0.7309
10132TIP3    H251812   6.466   3.887   2.743 -1.9159 -0.5854  1.3926
10133TIP3   OH251813   0.505   4.117   3.075  0.0356 -0.1174  0.2499
10133TIP3    H151814   0.452   4.068   3.011  1.6119 -1.3121 -0.1933
10133TIP3    H251815   0.595   4.093   3.055  0.6967  1.0516  1.6680
10134TIP3   OH251816   4.912   0.932   4.225  0.0762 -0.7223  0.4198
10134TIP3    H151817   4.856   0.977   4.163  1.2899 -0.0353 -0.2267
10134TIP3    H251818   5.000   0.941   4.189  0.6095 -1.8091  1.3626
10135TIP3   OH251819   3.710   1.547  14.603 -0.0999  0.0810  0.2506
10135TIP3    H151820   3.755   1.465  14.622 -1.0513 -0.4135  0.3983
10135TIP3    H251821   3.737   1.569  14.513  0.0606 -0.4446  0.1678
10136TIP3   OH251822   2.539   0.778  14.677  0.2364 -0.1052  0.3337
10136TIP3    H151823   2.568   0.687  14.680 -1.9295 -0.9002 -0.8496
10136TIP3    H251824   2.485   0.788  14.756  1.9142  0.7622  1.4415
10137TIP3   OH251825   3.784   1.150  11.533  0.1652 -0.2485  0.0639
10137TIP3    H151826   3.808   1.132  11.442 -0.9053 -1.8592  0.0627
10137TIP3    H251827   3.740   1.235  11.530  1.2753  0.3317 -0.6873
10138TIP3   OH251828   1.375   4.601  15.256  0.3725  0.5538  0.0411
10138TIP3    H151829   1.436   4.627  15.325  1.1105  0.9276 -0.7371
10138TIP3    H251830   1.371   4.676  15.197 -0.3619  0.2951 -0.2512
10139TIP3   OH251831   5.895   5.993  14.125  0.3583 -1.0143  0.3641
10139TIP3    H151832   5.873   6.077  14.084 -0.2710 -1.6989 -0.7527
10139TIP3    H251833   5.811   5.958  14.154  0.7702 -0.6286  2.1526
10140TIP3   OH251834   2.137   6.075   0.274  0.5550  0.4337  0.3514
10140TIP3    H151835   2.048   6.066   0.309 -0.8202  1.4427 -2.6321
10140TIP3    H251836   2.140   6.014   0.201  2.0356  1.0608 -0.1345
10141TIP3   OH251837   4.686   0.357  11.860 -1.0295  0.3045 -0.2554
10141TIP3    H151838   4.604   0.383  11.902 -0.8042  2.1033 -0.8458
10141TIP3    H251839   4.750   0.422  11.890  0.2724 -1.2104  0.3917
10142TIP3   OH251840   1.391   5.370  13.835  0.1107  0.4488 -0.4574
10142TIP3    H151841   1.392   5.440  13.770 -0.9227  0.4687 -0.4803
10142TIP3    H251842   1.444   5.402  13.907  0.9505  0.5902 -1.1258
10143TIP3   OH251843   4.273   1.063   3.218  0.0452  0.0253  0.7847
10143TIP3    H151844   4.263   1.076   3.313 -1.3647  1.0590  0.5308
10143TIP3    H251845   4.262   1.150   3.181 -2.2247 -0.7154 -0.5046
10144TIP3   OH251846   0.324   2.389  12.753 -0.2382 -0.1184  0.1134
10144TIP3    H151847   0.266   2.460  12.782 -4.5854 -3.4208  0.5315
10144TIP3    H251848   0.348   2.344  12.834  2.4764  0.6764 -0.1487
10145TIP3   OH251849   0.124   1.633  15.167 -0.0285 -0.2944  0.3837
10145TIP3    H151850   0.162   1.599  15.086 -0.3395 -1.0250  0.5367
10145TIP3    H251851   0.059   1.567  15.192 -1.3939  0.9026  0.1374
10146TIP3   OH251852   5.950   1.701  16.612 -0.1760  0.3411 -0.0214
10146TIP3    H151853   5.900   1.731  16.688 -0.7804  0.6473 -0.5283
10146TIP3    H251854   5.950   1.605  16.621  0.6340  0.4117  0.9005
10147TIP3   OH251855   2.627   5.030  13.756  0.6991  0.0872  0.0861
10147TIP3    H151856   2.641   4.961  13.821 -1.0991 -0.3086  0.0974
10147TIP3    H251857   2.534   5.051  13.763  0.1880 -0.6545 -3.0353
10148TIP3   OH251858   4.670   0.582  15.880 -0.2347  0.0961  0.1657
10148TIP3    H151859   4.702   0.672  15.869  0.7165 -0.2425  0.1385
10148TIP3    H251860   4.671   0.544  15.792 -1.0209  0.1722  0.1125
10149TIP3   OH251861   0.774   1.936  16.731  0.6888 -0.6268  0.4358
10149TIP3    H151862   0.791   1.848  16.699  2.4121 -0.6538  1.3117
10149TIP3    H251863   0.685   1.933  16.767 -0.3307 -1.2524 -1.9544
10150TIP3   OH251864   5.722   4.771   1.715  0.5937  0.2806  0.1453
10150TIP3    H151865   5.650   4.716   1.683  0.4654 -0.2923  1.3441
10150TIP3    H251866   5.718   4.761   1.810  1.6263  1.0580  0.2794
10151TIP3   OH251867   5.886   5.180  12.705  0.7913  0.1426  0.1298
10151TIP3    H151868   5.837   5.114  12.656  1.7191 -0.0853 -0.5209
10151TIP3    H251869   5.843   5.263  12.685  0.6616 -0.0547 -0.4115
10152TIP3   OH251870   5.270   0.547  17.024  0.5110  0.6131 -0.0689
10152TIP3    H151871   5.343   0.581  16.972  2.1718 -1.8578  0.4735
10152TIP3    H251872   5.253   0.460  16.988 -1.1231  0.4959  0.8727
10153TIP3   OH251873   4.908   5.265  16.500 -0.3970  0.4656  0.0925
10153TIP3    H151874   4.918   5.202  16.429 -0.9931 -1.2365  1.4475
10153TIP3    H251875   4.880   5.345  16.457 -0.4244 -0.4181 -1.6195
10154TIP3   OH251876   1.800   1.124  10.536 -0.1614 -0.1296  0.0582
10154TIP3    H151877   1.837   1.211  10.518  1.0742 -0.7989 -0.7703
10154TIP3    H251878   1.714   1.125  10.494  0.6547  0.0363 -1.7037
10155TIP3   OH251879   1.706   0.629   2.507 -0.8648 -0.3559  0.3029
10155TIP3    H151880   1.733   0.589   2.590 -1.1744  1.1346  1.1532
10155TIP3    H251881   1.769   0.596   2.443 -0.2763 -1.0926  1.2294
10156TIP3   OH251882   5.628   0.826   0.218 -0.4670 -0.4636  0.3013
10156TIP3    H151883   5.553   0.850   0.272  0.7902 -1.4326  2.5937
10156TIP3    H251884   5.662   0.746   0.258  3.9076  1.7427  1.5875
10157TIP3   OH251885   4.783   5.353  11.100 -0.3225 -0.1675  0.1167
10157TIP3    H151886   4.804   5.440  11.133  0.2040 -0.1258 -0.2947
10157TIP3    H251887   4.733   5.311  11.170 -0.0753  0.2569  0.5517
10158TIP3   OH251888   2.811   0.734  13.303 -0.5755 -0.2061  0.0049
10158TIP3    H151889   2.848   0.696  13.223 -0.7072  0.1354 -0.2202
10158TIP3    H251890   2.888   0.757  13.356 -0.4306  0.9379 -0.6656
10159TIP3   OH251891   3.986   5.096   2.451 -0.6569 -0.0948  0.2342
10159TIP3    H151892   3.953   5.036   2.384  1.4811  0.8699 -1.8433
10159TIP3    H251893   4.062   5.051   2.488  1.5457  1.5096 -1.9983
10160TIP3   OH251894   0.919   1.471   0.740 -0.0009 -0.0925  0.3290
10160TIP3    H151895   0.945   1.399   0.682 -2.1103 -0.8230  0.1966
10160TIP3    H251896   0.942   1.550   0.692  1.2253 -0.6646 -0.0689
10161TIP3   OH251897   6.206   3.850   3.782  0.3719 -0.8865 -0.3051
10161TIP3    H151898   6.260   3.920   3.820  0.9602 -0.7755 -1.3209
10161TIP3    H251899   6.148   3.895   3.720 -1.7678 -0.8313  1.5894
10162TIP3   OH251900   3.663   3.921   0.688 -0.1280 -0.3973 -0.0466
10162TIP3    H151901   3.695   3.924   0.778  0.7696 -1.7593 -0.2969
10162TIP3    H251902   3.677   4.010   0.655  0.9640 -0.2771  0.6829
10163TIP3   OH251903   2.799   6.494  16.866 -0.6396  0.3661 -0.0733
10163TIP3    H151904   2.888   6.460  16.877 -1.2005 -1.6681 -1.2851
10163TIP3    H251905   2.811   6.577  16.820  0.6033 -0.7990 -2.0184
10164TIP3   OH251906   6.161   2.925  13.266 -0.0641 -0.1147  0.4077
10164TIP3    H151907   6.150   2.865  13.340  0.7754  0.2030  0.8060
10164TIP3    H251908   6.110   2.885  13.195 -1.7550  0.1232  1.4382
10165TIP3   OH251909   0.525   0.142  15.524  0.2697 -0.6858  0.2370
10165TIP3    H151910   0.561   0.222  15.487  1.5627 -2.6072 -3.1071
10165TIP3    H251911   0.433   0.142  15.497  0.7390 -1.1694 -1.4356
10166TIP3   OH251912   5.533   2.210  13.264 -0.4864  0.5567 -0.0464
10166TIP3    H151913   5.460   2.181  13.209 -0.0726 -1.4973  0.4092
10166TIP3    H251914   5.608   2.209  13.205 -0.3075 -0.2286  0.1856
10167TIP3   OH251915   2.533   6.047   4.149 -0.0515  0.1992 -1.1675
10167TIP3    H151916   2.623   6.078   4.140  0.3019 -0.8534 -1.4222
10167TIP3    H251917   2.532   6.003   4.234 -0.8846  1.9342 -0.2108
10168TIP3   OH251918   3.302   1.295  16.289 -0.5671  0.0636 -0.7432
10168TIP3    H151919   3.213   1.299  16.323 -0.1882  1.2937  0.1920
10168TIP3    H251920   3.352   1.253  16.358 -0.1269  0.8928 -0.5459
10169TIP3   OH251921   0.539   6.166  12.596  0.3869 -0.1478  0.3860
10169TIP3    H151922   0.592   6.086  12.596  2.4471  1.1067 -0.3643
10169TIP3    H251923   0.509   6.174  12.506  1.0221  0.3982  0.2127
10170TIP3   OH251924   6.480   1.132  11.241  0.5234 -0.3018 -0.2699
10170TIP3    H151925   6.472   1.227  11.237 -2.2383 -0.4032  0.8263
10170TIP3    H251926   6.427   1.100  11.167 -1.1783 -0.9686  1.1606
10171TIP3   OH251927   1.176   0.199   3.846  0.4286  0.2835 -0.0092
10171TIP3    H151928   1.234   0.273   3.864  1.2248  0.5736 -3.1172
10171TIP3    H251929   1.110   0.235   3.787 -0.3354 -1.0561 -0.0069
10172TIP3   OH251930   3.853   1.421  17.220 -0.6135  0.1568 -0.1195
10172TIP3    H151931   3.853   1.387  17.309 -0.8762 -0.5617 -0.3934
10172TIP3    H251932   3.762   1.415  17.191 -0.7357  1.3920 -0.0671
10173TIP3   OH251933   2.087   6.447  17.015  0.0087  0.5735 -0.4357
10173TIP3    H151934   2.040   6.363  17.017 -2.3594  1.7266  3.4251
10173TIP3    H251935   2.018   6.513  17.015  1.6383  2.4293  1.8748
10174TIP3   OH251936   3.552   2.634  15.991 -0.1352  0.8016 -0.2292
10174TIP3    H151937   3.499   2.557  16.014  1.0922  0.0325  0.1255
10174TIP3    H251938   3.604   2.606  15.916 -0.9900  1.9062 -1.2687
10175TIP3   OH251939   2.624   5.201  11.431 -0.1517  0.0136 -0.3951
10175TIP3    H151940   2.551   5.186  11.490 -1.0047  1.2761 -1.0749
10175TIP3    H251941   2.689   5.135  11.456 -0.7838  0.0075  1.4112
10176TIP3   OH251942   1.255   1.917   0.526  0.2279  0.3486 -0.4821
10176TIP3    H151943   1.242   1.968   0.606 -0.8638 -1.4368  0.5704
10176TIP3    H251944   1.346   1.888   0.531  0.3417  0.7455 -0.1956
10177TIP3   OH251945   3.829   1.275  11.086 -0.4129 -0.0085 -0.0695
10177TIP3    H151946   3.850   1.226  11.006  1.2381  0.0295  0.3112
10177TIP3    H251947   3.893   1.346  11.088 -0.2829 -0.1486  1.4145
10178TIP3   OH251948   4.847   5.146  15.224  0.4580 -0.8246  0.1670
10178TIP3    H151949   4.761   5.127  15.263  0.5011  0.3067  0.8636
10178TIP3    H251950   4.854   5.084  15.151 -2.8962  1.8122 -2.7958
10179TIP3   OH251951   0.734   0.907  16.190  0.3846  0.0091  0.3092
10179TIP3    H151952   0.711   0.926  16.281 -0.0891  0.2999  0.1324
10179TIP3    H251953   0.815   0.856  16.196  1.3006  1.4695  0.8342
10180TIP3   OH251954   3.932   2.553   4.824 -0.5255 -0.0071 -0.2961
10180TIP3    H151955   3.989   2.629   4.831 -0.0933 -0.1295 -1.9871
10180TIP3    H251956   3.987   2.479   4.847 -0.6269  0.0843  0.2401
10181TIP3   OH251957   0.547   5.627  15.921  0.1603  0.2978  0.0773
10181TIP3    H151958   0.623   5.572  15.902  1.3586  2.0252 -0.3277
10181TIP3    H251959   0.492   5.620  15.843 -0.0309 -0.7916  0.2896
10182TIP3   OH251960   2.346   6.319   4.938  0.2082  0.3864 -0.0896
10182TIP3    H151961   2.281   6.255   4.966  1.4956 -0.4242  1.1829
10182TIP3    H251962   2.295   6.397   4.917 -1.2403 -0.5044 -0.0139
10183TIP3   OH251963   5.287   4.777  15.490  0.0910  1.0770  0.5551
10183TIP3    H151964   5.200   4.760  15.525  0.9058 -1.1989  1.7242
10183TIP3    H251965   5.302   4.707  15.427  0.2623  2.7474 -1.3343
10184TIP3   OH251966   5.765   6.411  14.769 -0.0771 -0.0712  0.3198
10184TIP3    H151967   5.813   6.490  14.746 -0.8098 -0.4677 -3.2043
10184TIP3    H251968   5.672   6.435  14.759 -0.4244 -0.7629  1.6270
10185TIP3   OH251969   4.365   3.707   1.968 -0.4666  0.3971  0.6940
10185TIP3    H151970   4.305   3.697   1.894  1.0660 -2.4172 -0.3313
10185TIP3    H251971   4.320   3.664   2.041 -0.7542  0.5678  0.6189
10186TIP3   OH251972   3.430   2.740  13.667  0.0207  0.5138 -0.5214
10186TIP3    H151973   3.382   2.813  13.707  2.9021  2.2091  0.1520
10186TIP3    H251974   3.458   2.773  13.582 -0.6792 -0.7457 -1.2694
10187TIP3   OH251975   2.529   3.526  17.040  0.9270 -0.4256 -0.0339
10187TIP3    H151976   2.536   3.528  17.135  1.3824  0.8109 -0.0715
10187TIP3    H251977   2.546   3.435  17.016  0.7600 -0.7565  1.0643
10188TIP3   OH251978   5.680   0.173  15.053 -0.4634  0.2908  0.1099
10188TIP3    H151979   5.680   0.147  15.145 -0.6160  0.6879  0.2252
10188TIP3    H251980   5.760   0.225  15.043 -1.3397  1.7654  0.4670
10189TIP3   OH251981   1.337   4.973  14.185 -0.1454 -0.8688 -0.9436
10189TIP3    H151982   1.340   4.951  14.092  2.3130  1.5352 -1.5738
10189TIP3    H251983   1.294   5.058  14.187 -0.3011 -0.9660  0.1540
10190TIP3   OH251984   3.704   5.387  15.860  0.1541 -0.1890 -0.0523
10190TIP3    H151985   3.620   5.340  15.854  0.0362 -0.5876  3.0833
10190TIP3    H251986   3.696   5.459  15.798 -1.5041 -1.6259 -1.6173
10191TIP3   OH251987   0.234   6.147   3.346 -0.4621 -0.0990 -0.2353
10191TIP3    H151988   0.180   6.092   3.403  0.1745 -0.1251  0.3433
10191TIP3    H251989   0.208   6.236   3.368 -1.1567 -0.1367 -0.8430
10192TIP3   OH251990   2.766   5.380  14.505 -0.1101 -0.7786  0.4966
10192TIP3    H151991   2.820   5.358  14.429 -1.0036  2.8399 -1.4127
10192TIP3    H251992   2.677   5.356  14.478 -0.0260 -3.3120  2.1700
10193TIP3   OH251993   5.516   6.406   1.228 -0.5417 -0.5126  0.6730
10193TIP3    H151994   5.584   6.349   1.193 -1.2447 -1.2568  0.5118
10193TIP3    H251995   5.478   6.449   1.152  0.5409  0.8533  0.8431
10194TIP3   OH251996   1.336   5.492  14.666  0.0806  0.1073  0.7535
10194TIP3    H151997   1.429   5.508  14.684  0.4229 -1.8953  1.0609
10194TIP3    H251998   1.290   5.561  14.713  1.4200  1.7004 -0.1604
10195TIP3   OH251999   3.632   3.164   2.741  0.1318  0.2276 -0.4911
10195TIP3    H152000   3.710   3.151   2.687  1.2763 -0.0403  1.1540
10195TIP3    H252001   3.657   3.231   2.805 -1.2263  0.6541 -0.3612
10196TIP3   OH252002   6.631   3.707  12.824 -0.6279  0.0855  0.3024
10196TIP3    H152003   6.706   3.750  12.781  0.1372 -2.3229 -0.9317
10196TIP3    H252004   6.671   3.653  12.892 -1.7177  2.5512  3.1210
10197TIP3   OH252005   6.288   0.224  16.024 -0.6221  0.3179 -0.5352
10197TIP3    H152006   6.345   0.211  15.948  0.1197  0.0972  0.0464
10197TIP3    H252007   6.339   0.281  16.082 -0.8525 -0.1508  0.1392
10198TIP3   OH252008   5.412   0.336   3.084 -0.3369  0.4393 -0.1337
10198TIP3    H152009   5.338   0.314   3.028  0.6519  1.2650 -1.8459
10198TIP3    H252010   5.487   0.293   3.042  0.5107  1.5042  0.2485
10199TIP3   OH252011   2.032   2.959  11.783  0.0972  0.2712 -0.4551
10199TIP3    H152012   1.986   3.038  11.756  0.2289  0.1068 -1.1780
10199TIP3    H252013   2.058   2.917  11.701  0.8996 -0.0074 -0.0664
10200TIP3   OH252014   1.674   5.553   4.093 -0.0334  0.2074 -0.0193
10200TIP3    H152015   1.730   5.611   4.144  0.1405  0.2178 -0.2204
10200TIP3    H252016   1.603   5.610   4.062 -0.4246  0.0893  0.6432
10201TIP3   OH252017   6.054   2.639   4.919  0.0930 -0.9228  0.3745
10201TIP3    H152018   6.015   2.655   5.005  0.6640 -0.3352  0.5293
10201TIP3    H252019   6.036   2.547   4.901  0.3444 -1.1577  1.3063
10202TIP3   OH252020   4.470   3.124  14.744 -0.1353  0.0215  0.4082
10202TIP3    H152021   4.501   3.043  14.704  0.1820  0.4817 -0.2846
10202TIP3    H252022   4.475   3.107  14.838  1.9558 -0.0206  0.3364
10203TIP3   OH252023   2.564   6.547   2.188  0.7393  0.3620  0.4315
10203TIP3    H152024   2.613   6.558   2.107  1.8224  0.2539  1.0531
10203TIP3    H252025   2.562   6.453   2.203 -2.2716  0.0479 -1.1096
10204TIP3   OH252026   1.122   6.431   4.772 -0.5343 -0.2823  0.2007
10204TIP3    H152027   1.139   6.337   4.784 -2.4764 -0.9137 -1.4446
10204TIP3    H252028   1.027   6.440   4.786 -0.8304  0.9451 -2.1610
10205TIP3   OH252029   6.553   2.894  12.847  0.2354 -0.0144  1.1720
10205TIP3    H152030   6.626   2.855  12.799  1.0717  1.1723  1.4539
10205TIP3    H252031   6.550   2.985  12.818 -1.8996 -0.2961  0.2713
10206TIP3   OH252032   3.688   1.234   2.993 -0.7162 -0.2084  0.3850
10206TIP3    H152033   3.758   1.259   2.933 -2.1524 -1.3851 -1.9238
10206TIP3    H252034   3.726   1.242   3.080  2.3556 -1.0283 -0.7801
10207TIP3   OH252035   5.208   1.456  14.035 -0.0780 -0.5509  0.2727
10207TIP3    H152036   5.134   1.400  14.010  0.0500 -1.1396  1.1670
10207TIP3    H252037   5.172   1.514  14.102  0.1721 -0.5723  0.4239
10208TIP3   OH252038   3.834   4.366   0.443 -0.4234  0.1030  0.2512
10208TIP3    H152039   3.898   4.331   0.380  0.3934  1.6344  0.1836
10208TIP3    H252040   3.887   4.419   0.503 -1.4623  0.2762  1.0381
10209TIP3   OH252041   3.429   2.281  16.329  0.5338 -0.7025  0.2951
10209TIP3    H152042   3.407   2.219  16.259 -1.1905  1.1143 -0.8799
10209TIP3    H252043   3.450   2.226  16.404  3.5558 -2.7743 -1.8667
10210TIP3   OH252044   6.099   5.786   5.094  0.3431  0.3904 -0.6195
10210TIP3    H152045   6.151   5.829   5.162  1.3038  0.5423 -1.4295
10210TIP3    H252046   6.057   5.712   5.139  1.5800  0.0198 -0.0228
10211TIP3   OH252047   1.902   5.678  11.257 -0.2082  0.3185  0.5883
10211TIP3    H152048   1.953   5.599  11.240 -0.0694  0.5479 -0.0803
10211TIP3    H252049   1.961   5.735  11.305 -0.5394 -0.2580  1.7052
10212TIP3   OH252050   5.471   1.590  15.823  0.1849 -1.0258 -0.1675
10212TIP3    H152051   5.410   1.589  15.896  2.4151 -2.7535  1.8511
10212TIP3    H252052   5.530   1.663  15.843  1.3806 -2.0968  0.3346
10213TIP3   OH252053   6.194   3.681  14.117 -0.1668 -0.7143  0.1565
10213TIP3    H152054   6.129   3.612  14.113 -0.3913 -0.5354  0.6397
10213TIP3    H252055   6.272   3.639  14.153  0.1397 -1.0383 -0.8604
10214TIP3   OH252056   1.540   5.719   2.290 -0.1148 -0.4166 -0.0250
10214TIP3    H152057   1.618   5.715   2.234 -0.5368 -1.6142 -0.5775
10214TIP3    H252058   1.500   5.803   2.270  0.4624 -0.2598 -0.5454
10215TIP3   OH252059   0.809   3.392   1.116 -0.0500 -0.4855  0.2337
10215TIP3    H152060   0.852   3.367   1.035  0.0624 -2.0565  0.7254
10215TIP3    H252061   0.735   3.446   1.089  0.6975  0.0609 -0.8001
10216TIP3   OH252062   5.444   4.783   3.069  0.3950 -0.1887 -0.4234
10216TIP3    H152063   5.483   4.869   3.056 -0.7555  0.5606  0.7152
10216TIP3    H252064   5.514   4.721   3.050  1.5195  1.0278 -0.3756
10217TIP3   OH252065   6.074   4.907   1.169 -0.2341  0.1142  0.3552
10217TIP3    H152066   5.990   4.890   1.212 -0.5129  0.1410 -0.1771
10217TIP3    H252067   6.084   5.002   1.172  0.3042  0.0444  1.3957
10218TIP3   OH252068   0.880   5.014  13.178 -0.4551 -0.3068  0.0580
10218TIP3    H152069   0.875   4.946  13.246  0.9231 -0.6294 -0.1285
10218TIP3    H252070   0.863   5.096  13.225  2.6920 -0.2372  1.3675
10219TIP3   OH252071   3.955   2.380   6.328  0.4005 -0.3875 -0.0628
10219TIP3    H152072   3.909   2.349   6.250 -1.8087  1.0559  0.5882
10219TIP3    H252073   3.974   2.300   6.378  0.7652 -1.2122 -1.4639
10220TIP3   OH252074   4.551   6.383   3.861 -0.1426  0.5743  0.0080
10220TIP3    H152075   4.537   6.437   3.783  0.0470  1.4383  0.5631
10220TIP3    H252076   4.463   6.359   3.889 -0.1937 -0.3565 -0.8782
10221TIP3   OH252077   6.418   1.533   0.460  0.3701 -0.0936 -0.2697
10221TIP3    H152078   6.418   1.458   0.400  1.2378 -0.5931  0.3397
10221TIP3    H252079   6.492   1.518   0.518 -0.3147  0.4921  0.7972
10222TIP3   OH252080   3.154   1.676  13.125 -0.5015 -0.1493 -0.1406
10222TIP3    H152081   3.196   1.643  13.205  0.5554 -0.0401 -0.6374
10222TIP3    H252082   3.218   1.738  13.088 -1.4196  0.5991 -0.5238
10223TIP3   OH252083   0.213   1.785   0.382  0.1118 -0.3618 -0.2295
10223TIP3    H152084   0.163   1.761   0.304  0.5752 -0.4904 -0.4939
10223TIP3    H252085   0.266   1.860   0.354 -0.7719  0.5258  0.3741
10224TIP3   OH252086   0.705   4.817  13.768 -0.2654  0.1611  0.3875
10224TIP3    H152087   0.696   4.855  13.855  1.9074  0.6378  0.4656
10224TIP3    H252088   0.788   4.770  13.771 -0.1072  0.2516 -1.4501
10225TIP3   OH252089   1.878   3.179  12.953 -0.6686  0.5829 -0.6101
10225TIP3    H152090   1.864   3.118  12.880  1.1335  1.8830 -2.1416
10225TIP3    H252091   1.973   3.177  12.967 -0.8487  1.3886  0.7980
10226TIP3   OH252092   4.641   0.223   4.254  0.5493 -0.1311 -0.4563
10226TIP3    H152093   4.676   0.219   4.165 -0.8461  0.9930 -1.1078
10226TIP3    H252094   4.547   0.237   4.242  0.6028  2.3451  1.1463
10227TIP3   OH252095   3.319   5.081  14.755  0.0788  0.8661 -0.1630
10227TIP3    H152096   3.322   5.075  14.851  2.0946  0.2557 -0.2243
10227TIP3    H252097   3.270   5.003  14.728  0.4427  0.4550  0.3426
10228TIP3   OH252098   1.852   1.437   3.057  0.5968  0.4688  0.3302
10228TIP3    H152099   1.846   1.477   3.144  0.8068  0.5553  0.3073
10228TIP3    H252100   1.798   1.493   3.002  0.3553  0.3362  0.4319
10229TIP3   OH252101   2.034   1.016  15.910 -0.5076  0.5240 -0.4430
10229TIP3    H152102   2.068   0.930  15.883  0.0104  0.5520  0.0909
10229TIP3    H252103   1.984   0.997  15.990 -0.4639  0.7058 -0.3732
10230TIP3   OH252104   4.029   5.326  15.698  0.5800 -0.5590 -0.0590
10230TIP3    H152105   4.081   5.267  15.644 -1.0854 -2.0425 -0.1001
10230TIP3    H252106   3.988   5.386  15.636  0.3868 -0.8764 -0.2375
10231TIP3   OH252107   2.906   0.985  13.171  0.2249  0.1861  0.1255
10231TIP3    H152108   2.852   0.920  13.216 -1.2001  1.3586  0.1711
10231TIP3    H252109   2.912   1.058  13.231 -0.6230  1.2508 -1.0250
10232TIP3   OH252110   5.209   5.803  15.384  0.5523 -0.3358 -0.0770
10232TIP3    H152111   5.127   5.755  15.366 -0.2020  1.2726 -1.1358
10232TIP3    H252112   5.272   5.734  15.405 -1.4875 -1.5912  2.7566
10233TIP3   OH252113   4.627   2.605   1.395  0.3544 -0.6612  0.2960
10233TIP3    H152114   4.665   2.580   1.480  2.2377  1.1708  0.0783
10233TIP3    H252115   4.672   2.550   1.332 -1.3899 -2.3724  0.4183
10234TIP3   OH252116   5.279   3.040  15.119  0.3128  0.4351 -0.0862
10234TIP3    H152117   5.371   3.020  15.132  0.0743 -0.8959 -0.2021
10234TIP3    H252118   5.278   3.114  15.058  1.2986  1.2742  0.8914
10235TIP3   OH252119   5.714   0.684  13.284  0.2668  0.2162 -0.1074
10235TIP3    H152120   5.700   0.671  13.377 -1.3164 -1.9056 -0.5511
10235TIP3    H252121   5.797   0.641  13.265 -0.2509 -0.8985  0.0737
10236TIP3   OH252122   2.891   2.522  13.571 -0.2065 -0.3716 -0.1450
10236TIP3    H152123   2.799   2.499  13.576 -0.3206  0.0075 -0.4534
10236TIP3    H252124   2.927   2.495  13.656 -1.1343  1.7929  1.0294
10237TIP3   OH252125   2.249   1.966   6.522  0.8295 -0.0895  0.1699
10237TIP3    H152126   2.207   1.945   6.438  0.3841 -1.5410  0.7287
10237TIP3    H252127   2.309   1.893   6.537  0.8154  0.0986  1.1789
10238TIP3   OH252128   0.824   0.783  12.182 -0.1136 -0.0904 -0.5560
10238TIP3    H152129   0.822   0.865  12.133 -0.3535 -0.1563 -0.6566
10238TIP3    H252130   0.772   0.722  12.129  1.2331 -0.7139 -1.2158
10239TIP3   OH252131   0.858   4.241  13.792  0.0261 -0.0021 -0.2431
10239TIP3    H152132   0.919   4.282  13.730  0.1281 -0.1227 -0.2233
10239TIP3    H252133   0.846   4.307  13.860  0.6301 -0.2168  0.0758
10240TIP3   OH252134   0.326   5.987   6.269  0.1945  0.5173 -0.6186
10240TIP3    H152135   0.354   5.897   6.250  0.1231  0.9091 -2.8890
10240TIP3    H252136   0.270   5.978   6.347  2.3238 -0.9806  0.8562
10241TIP3   OH252137   5.565   0.086   1.548  0.2057  0.1590 -0.0589
10241TIP3    H152138   5.647   0.058   1.590  0.5014 -0.9730 -1.3356
10241TIP3    H252139   5.540   0.012   1.493 -0.3345  1.4747 -1.6462
10242TIP3   OH252140   4.604   0.832  13.438  0.1065 -0.3046 -0.7920
10242TIP3    H152141   4.639   0.793  13.358  1.2411  2.5604 -1.8060
10242TIP3    H252142   4.673   0.818  13.503  1.1790  1.2084 -1.5457
10243TIP3   OH252143   0.873   4.935   0.548  0.1129 -0.4254 -0.3706
10243TIP3    H152144   0.969   4.929   0.554  0.0515 -1.0159  0.1741
10243TIP3    H252145   0.853   5.022   0.581  0.3634 -0.8735  1.0525
10244TIP3   OH252146   6.746   1.650  15.950  0.8395  0.1945  0.0223
10244TIP3    H152147   6.717   1.655  16.041  1.1806 -2.5030  0.3596
10244TIP3    H252148   6.815   1.717  15.943  2.0729 -0.7280  2.3049
10245TIP3   OH252149   0.212   1.745  13.306 -0.4237  0.0719  0.3495
10245TIP3    H152150   0.134   1.738  13.251 -0.3902 -0.4644  0.3602
10245TIP3    H252151   0.267   1.811  13.263 -1.0304  0.6950  0.5266
10246TIP3   OH252152   2.117   2.490   0.433  0.2307  0.0607  0.2184
10246TIP3    H152153   2.154   2.402   0.421  0.7455  0.3624 -0.4743
10246TIP3    H252154   2.151   2.540   0.359  0.9196  1.1790  1.2614
10247TIP3   OH252155   0.319   1.071  13.876 -0.0168 -0.9038 -0.5830
10247TIP3    H152156   0.334   1.165  13.885 -2.0570 -0.5561 -0.1746
10247TIP3    H252157   0.324   1.055  13.781  0.8055 -0.4741 -0.6118
10248TIP3   OH252158   5.538   1.147  16.933 -0.0340 -0.2334  0.1213
10248TIP3    H152159   5.516   1.092  17.008  2.0494  1.2202  1.9245
10248TIP3    H252160   5.585   1.222  16.971  0.1325  1.1262 -2.5367
10249TIP3   OH252161   3.716   6.291  15.414  0.5623 -0.6164  0.2709
10249TIP3    H152162   3.795   6.238  15.425  0.9670  0.1421  1.1347
10249TIP3    H252163   3.660   6.266  15.487  0.7476  0.1195  0.6729
10250TIP3   OH252164   3.711   5.844  13.086 -0.4234 -0.1607  0.8229
10250TIP3    H152165   3.695   5.918  13.144 -2.1686  0.0883  0.0800
10250TIP3    H252166   3.636   5.786  13.099  0.3559 -1.2677  0.5556
10251TIP3   OH252167   1.610   0.513  10.136  0.1334 -0.8268  0.2107
10251TIP3    H152168   1.611   0.493  10.229  0.6835 -2.5283 -0.1133
10251TIP3    H252169   1.533   0.568  10.123 -0.1462 -0.8634  1.6107
10252TIP3   OH252170   1.670   4.453   0.372  0.5730  0.3000 -0.4493
10252TIP3    H152171   1.619   4.412   0.303  0.9339  0.0027 -0.5398
10252TIP3    H252172   1.673   4.546   0.348  1.3256  0.0843 -1.2373
10253TIP3   OH252173   3.028   3.064   1.657 -0.5347 -0.0847 -0.2241
10253TIP3    H152174   3.002   3.090   1.569 -2.3195  0.1567  0.3245
10253TIP3    H252175   2.994   3.133   1.714  0.8352 -0.0902  0.6587
10254TIP3   OH252176   5.866   5.917  11.536 -0.0780  0.3303 -0.4181
10254TIP3    H152177   5.775   5.903  11.560  0.0769  1.1731  0.7591
10254TIP3    H252178   5.913   5.842  11.572 -0.3702 -0.3933 -1.5179
10255TIP3   OH252179   5.772   4.539  12.514  0.5655  0.4550  0.5685
10255TIP3    H152180   5.831   4.522  12.587 -0.4228 -0.7497  1.1278
10255TIP3    H252181   5.820   4.511  12.437  0.7445 -0.5164  1.0191
10256TIP3   OH252182   2.457   2.220   4.131 -0.0038 -0.1841 -0.0267
10256TIP3    H152183   2.401   2.298   4.125 -1.2202 -0.6031  3.5049
10256TIP3    H252184   2.540   2.247   4.090 -1.0059  2.2926 -0.6053
10257TIP3   OH252185   4.594   0.376  11.593 -0.2265  0.4404 -0.0813
10257TIP3    H152186   4.667   0.415  11.545 -0.8614  1.1144 -0.5264
10257TIP3    H252187   4.627   0.364  11.682  0.5281  0.4303 -0.3517
10258TIP3   OH252188   2.727   3.381   6.061 -0.5440 -0.1758 -0.0716
10258TIP3    H152189   2.785   3.359   6.134 -1.0485 -2.6214 -0.3064
10258TIP3    H252190   2.640   3.388   6.102 -1.0889 -3.0244 -0.4950
10259TIP3   OH252191   1.711   6.747   1.450 -0.0067  0.0389 -0.1534
10259TIP3    H152192   1.778   6.815   1.461  1.0785 -1.2794  1.9418
10259TIP3    H252193   1.735   6.678   1.512 -2.4052 -1.2303 -0.4891
10260TIP3   OH252194   2.786   5.314   1.553  0.1802  0.2641  0.6405
10260TIP3    H152195   2.809   5.253   1.624  2.4968 -0.1262 -0.3384
10260TIP3    H252196   2.864   5.370   1.544  0.1007  0.0957 -1.7581
10261TIP3   OH252197   4.801   3.825  16.075  0.4149  0.5260  0.1388
10261TIP3    H152198   4.795   3.743  16.123  1.0166 -0.3929 -1.3007
10261TIP3    H252199   4.888   3.824  16.035  0.0619  1.3983 -0.6997
10262TIP3   OH252200   2.004   1.007  14.334 -0.1208 -0.0339  0.0517
10262TIP3    H152201   1.975   1.059  14.409 -1.9261 -1.1444  0.1922
10262TIP3    H252202   1.962   0.922  14.346  1.6935 -1.1288 -0.8467
10263TIP3   OH252203   0.186   5.104   1.620  0.1516 -0.0496  0.2023
10263TIP3    H152204   0.225   5.175   1.570 -2.0767 -0.7111 -2.7352
10263TIP3    H252205   0.240   5.027   1.600  0.2399  0.0176  0.1839
10264TIP3   OH252206   3.946   1.377   0.814  0.3477  0.7763 -0.8477
10264TIP3    H152207   3.898   1.380   0.897  1.9285  2.4169  0.0932
10264TIP3    H252208   3.884   1.342   0.751 -1.2422  0.4532  0.8229
10265TIP3   OH252209   5.286   1.304   3.361 -0.9673  0.0642 -0.3758
10265TIP3    H152210   5.328   1.320   3.445 -1.7331 -1.9398  0.4328
10265TIP3    H252211   5.331   1.363   3.300  0.8148  0.2638  1.0685
10266TIP3   OH252212   2.950   5.089  13.476  0.5675 -0.2096 -0.1291
10266TIP3    H152213   2.953   5.049  13.389  1.2724  0.9918 -0.6808
10266TIP3    H252214   2.998   5.028  13.532  1.5615 -0.1970 -0.9303
10267TIP3   OH252215   5.992   5.652  16.797 -0.2306 -0.1672  0.4739
10267TIP3    H152216   5.990   5.693  16.884 -0.4488  1.6294 -0.3220
10267TIP3    H252217   6.067   5.593  16.800  2.2248  2.7439  0.6923
10268TIP3   OH252218   2.694   6.342   6.091  0.0662 -0.0840 -0.3745
10268TIP3    H152219   2.783   6.337   6.056  0.3223 -3.1846  0.3858
10268TIP3    H252220   2.637   6.342   6.014  0.7113 -0.2712 -0.8578
10269TIP3   OH252221   6.686   2.550  13.074  0.4292 -0.0957  0.1308
10269TIP3    H152222   6.609   2.557  13.018  1.5460  0.9883 -1.3368
10269TIP3    H252223   6.727   2.467  13.049  0.3711 -0.1036  0.0637
10270TIP3   OH252224   4.172   2.458  13.776 -0.3145 -0.0628 -0.3120
10270TIP3    H152225   4.086   2.470  13.816  0.0188  0.8562  0.1669
10270TIP3    H252226   4.232   2.448  13.850 -0.0288 -0.8472 -0.6443
10271TIP3   OH252227   0.838   6.075  14.750 -0.1515 -0.4531  0.0036
10271TIP3    H152228   0.791   6.011  14.804 -0.8781 -0.1018 -0.2058
10271TIP3    H252229   0.807   6.160  14.780  1.4931 -0.1360  0.9139
10272TIP3   OH252230   1.081   0.367  16.209 -0.2656 -0.6083 -0.0204
10272TIP3    H152231   1.139   0.433  16.248  0.7805 -1.7624  0.4440
10272TIP3    H252232   1.078   0.390  16.116  0.1584  0.0297  0.1181
10273TIP3   OH252233   3.237   1.955   0.839 -0.2254  0.1242  0.3242
10273TIP3    H152234   3.240   1.964   0.934  0.1998  1.7879  0.1745
10273TIP3    H252235   3.144   1.940   0.820 -0.4074  0.4024  0.9554
10274TIP3   OH252236   3.533   4.975   1.143 -0.1135  0.5158  0.3047
10274TIP3    H152237   3.497   4.949   1.058  2.0495 -1.1612 -0.1668
10274TIP3    H252238   3.623   5.000   1.125 -0.0635  1.6744  1.9101
10275TIP3   OH252239   4.384   5.776   2.853  0.4040 -0.4319 -0.0624
10275TIP3    H152240   4.383   5.743   2.764  1.0870  1.6881 -0.9187
10275TIP3    H252241   4.296   5.759   2.887  0.0675 -1.0351 -1.2004
10276TIP3   OH252242   1.446   3.693  15.152  0.3687  0.3355 -0.2499
10276TIP3    H152243   1.493   3.683  15.069  1.4972  1.2858  0.2537
10276TIP3    H252244   1.375   3.753  15.132  1.1133  1.2015 -0.3652
10277TIP3   OH252245   0.752   4.615  12.668 -0.3497  0.0901  0.4206
10277TIP3    H152246   0.720   4.631  12.757  1.4466  0.4930  1.0395
10277TIP3    H252247   0.844   4.594  12.680  0.3874  1.9564 -1.4917
10278TIP3   OH252248   3.587   2.588   5.328 -0.0899 -0.1332 -0.1367
10278TIP3    H152249   3.585   2.526   5.401 -1.5923 -2.0719 -1.6938
10278TIP3    H252250   3.667   2.639   5.342 -0.0306 -0.8245  2.5013
10279TIP3   OH252251   3.190   6.009   2.602 -0.4731 -0.1437 -0.6882
10279TIP3    H152252   3.219   6.046   2.519  0.6458  1.8704  0.5286
10279TIP3    H252253   3.188   5.915   2.586 -0.0978  0.1534 -2.9171
10280TIP3   OH252254   3.496   5.908  12.616  0.4652  0.1873 -0.2345
10280TIP3    H152255   3.511   5.846  12.545 -1.7071 -0.6664 -0.0227
10280TIP3    H252256   3.531   5.991  12.582  2.3513 -0.8531 -0.9806
10281TIP3   OH252257   6.726   5.992  16.437 -0.0143  0.2792  0.0605
10281TIP3    H152258   6.661   6.060  16.421 -0.0262 -0.0785 -1.5608
10281TIP3    H252259   6.675   5.911  16.438  0.3978 -0.0163 -1.3496
10282TIP3   OH252260   4.088   1.553   3.590 -0.3820  0.2134  0.0192
10282TIP3    H152261   4.017   1.609   3.620 -0.9880  0.5995 -2.0017
10282TIP3    H252262   4.072   1.541   3.496  1.4239 -0.8630 -0.2061
10283TIP3   OH252263   5.524   5.911  15.641  0.3968  0.0946  0.0576
10283TIP3    H152264   5.467   5.861  15.700 -0.3634 -0.9246 -1.4684
10283TIP3    H252265   5.569   5.845  15.589  2.3075  0.9322  0.5935
10284TIP3   OH252266   5.151   4.583  11.510  0.4378  0.1176 -0.4266
10284TIP3    H152267   5.193   4.519  11.567  1.0068 -1.6886 -2.7334
10284TIP3    H252268   5.218   4.605  11.445 -0.5268  1.2513 -1.0789
10285TIP3   OH252269   1.579   0.083   3.886 -0.5591  0.0329 -0.4697
10285TIP3    H152270   1.631   0.103   3.808 -0.1293  1.5687  0.1791
10285TIP3    H252271   1.578   0.164   3.936 -2.5768 -0.3182  0.1362
10286TIP3   OH252272   1.719   3.465   5.799  0.1984 -0.0523  0.2764
10286TIP3    H152273   1.787   3.397   5.801  0.5643  0.2696 -0.5312
10286TIP3    H252274   1.650   3.432   5.856  0.6088 -0.8534  0.3226
10287TIP3   OH252275   3.546   6.496  14.521  0.3026 -0.1018  0.1495
10287TIP3    H152276   3.580   6.422  14.572 -2.7286 -0.6601  1.5881
10287TIP3    H252277   3.522   6.561  14.587  0.0325  0.8588 -0.8696
10288TIP3   OH252278   2.233   1.504  12.624 -0.1857  0.0946 -0.3371
10288TIP3    H152279   2.165   1.494  12.691  0.3907 -1.5715  0.0443
10288TIP3    H252280   2.315   1.492  12.672  0.3253  0.7431 -1.0339
10289TIP3   OH252281   3.008   6.472  11.229  0.1129 -0.2340 -0.5371
10289TIP3    H152282   3.035   6.444  11.141  1.5767  0.2396 -0.2732
10289TIP3    H252283   3.083   6.522  11.261 -0.2710 -0.6774  1.1111
10290TIP3   OH252284   0.614   1.254  11.074 -0.2581  0.7489 -0.1945
10290TIP3    H152285   0.520   1.250  11.091 -0.3865  1.2892 -0.7565
10290TIP3    H252286   0.635   1.170  11.032 -0.4222  0.4944  0.2272
10291TIP3   OH252287   6.756   2.469  14.213  0.0110  0.0701 -0.3049
10291TIP3    H152288   6.687   2.473  14.278 -1.7459  0.7179 -2.0891
10291TIP3    H252289   6.765   2.376  14.192 -0.6595  0.0219 -0.3834
10292TIP3   OH252290   4.919   5.771  11.861  0.0720  0.5899 -0.1538
10292TIP3    H152291   4.970   5.699  11.899 -0.2421  0.8131  0.7120
10292TIP3    H252292   4.984   5.838  11.842  0.3765  0.0648 -1.0228
10293TIP3   OH252293   6.345   2.945   2.241  0.4706  0.3715 -0.1734
10293TIP3    H152294   6.370   3.023   2.291  1.0824  0.4438 -0.5866
10293TIP3    H252295   6.426   2.915   2.201  0.1675 -0.2627 -0.3284
10294TIP3   OH252296   6.314   5.442   3.149  0.1197  0.0237  0.7249
10294TIP3    H152297   6.320   5.346   3.148  0.0265  0.0200  0.2253
10294TIP3    H252298   6.222   5.459   3.168  0.4126  0.0357  2.2956
10295TIP3   OH252299   1.324   2.683  16.909  0.0549  0.1776 -0.1597
10295TIP3    H152300   1.304   2.756  16.968 -0.4207  0.5851 -0.8131
10295TIP3    H252301   1.294   2.605  16.956  0.4890  0.4038  0.5050
10296TIP3   OH252302   2.079   1.333  15.005 -0.1802  0.0718  0.3746
10296TIP3    H152303   2.149   1.325  15.069  0.5533  0.5047 -0.3428
10296TIP3    H252304   2.062   1.427  15.000 -1.7855 -0.1202  1.5321
10297TIP3   OH252305   3.531   6.180  12.981  0.2254  0.1105 -0.5774
10297TIP3    H152306   3.518   6.242  13.053 -0.3539  0.3323 -0.8725
10297TIP3    H252307   3.510   6.230  12.902 -1.0851 -0.6967 -0.7619
10298TIP3   OH252308   6.541   4.261  14.326  0.0117  0.0255  0.3675
10298TIP3    H152309   6.563   4.316  14.251  0.8000  0.7769  1.1399
10298TIP3    H252310   6.468   4.306  14.369  1.2818  1.0498  1.5614
10299TIP3   OH252311   6.280   0.583  15.873 -0.7338  0.3255  0.1683
10299TIP3    H152312   6.367   0.575  15.834 -1.2752 -0.7880 -0.9213
10299TIP3    H252313   6.232   0.640  15.812 -1.3672 -0.8217 -0.4669
10300TIP3   OH252314   0.268   5.945   0.124  0.0207 -0.0200  0.2573
10300TIP3    H152315   0.177   5.973   0.112 -0.1862 -0.7376  0.1423
10300TIP3    H252316   0.288   5.896   0.044  0.9429  1.2574 -0.3277
10301TIP3   OH252317   6.501   4.675   1.637  0.0203 -0.1545  0.1060
10301TIP3    H152318   6.559   4.722   1.696  1.4041  1.1329 -2.1264
10301TIP3    H252319   6.521   4.582   1.651  1.6548  0.2139  0.3371
10302TIP3   OH252320   2.316   1.465  16.208  0.2842 -0.0243 -0.4223
10302TIP3    H152321   2.363   1.383  16.200  0.4259 -0.0288  0.3443
10302TIP3    H252322   2.228   1.440  16.238  0.7567  0.1676  1.2508
10303TIP3   OH252323   5.153   3.567   1.758 -0.3393  0.0004 -0.3135
10303TIP3    H152324   5.196   3.574   1.673  1.0620 -1.3592  0.2116
10303TIP3    H252325   5.165   3.653   1.799  0.3287  0.1916 -0.8969
10304TIP3   OH252326   2.647   0.048   5.255  0.0030  0.4900  0.9518
10304TIP3    H152327   2.656   0.058   5.160 -2.3546 -1.1595  0.4636
10304TIP3    H252328   2.653  -0.047   5.270 -2.6313  0.3953  1.9892
10305TIP3   OH252329   0.032   4.618  13.730 -0.1139 -0.3663  0.2197
10305TIP3    H152330  -0.012   4.588  13.651 -0.0115  1.1882 -0.4628
10305TIP3    H252331   0.036   4.541  13.786 -1.3403 -1.1814 -0.7634
10306TIP3   OH252332   5.708   5.173   0.674 -0.2435 -0.1962 -0.0892
10306TIP3    H152333   5.761   5.156   0.751 -2.0633 -0.2691  1.2254
10306TIP3    H252334   5.764   5.226   0.617  1.7054 -1.4709  0.5460
10307TIP3   OH252335   6.057   2.315  12.583  0.0438 -0.0363  0.5297
10307TIP3    H152336   6.103   2.271  12.511  1.0551 -0.8508  1.6488
10307TIP3    H252337   6.009   2.245  12.627  2.5748 -0.3963  3.0335
10308TIP3   OH252338   3.516   1.363   1.376 -0.5979 -0.2451  0.7295
10308TIP3    H152339   3.432   1.388   1.336  1.2691  1.6271 -2.5557
10308TIP3    H252340   3.510   1.269   1.387 -2.2981 -0.5501 -1.8055
10309TIP3   OH252341   2.910   2.229  12.043 -0.2108  0.2579  0.4614
10309TIP3    H152342   2.969   2.286  11.994  0.2622  0.2600  1.0171
10309TIP3    H252343   2.913   2.145  11.997 -0.9810  0.6861 -0.4147
10310TIP3   OH252344   0.693   2.704   6.025  0.2776  0.1960 -0.2612
10310TIP3    H152345   0.657   2.623   6.062  1.6449 -0.7146 -0.8550
10310TIP3    H252346   0.634   2.773   6.057  0.6552 -0.6661  2.5607
10311TIP3   OH252347   2.422   1.427   0.224 -0.3308 -0.3060  0.3673
10311TIP3    H152348   2.334   1.411   0.257 -1.6258 -0.1380 -2.6344
10311TIP3    H252349   2.409   1.445   0.130  2.6757  1.7897  0.2118
10312TIP3   OH252350   2.947   2.177  12.734  0.2469 -0.1134  0.2281
10312TIP3    H152351   3.027   2.193  12.683 -0.6936 -0.7200 -1.5557
10312TIP3    H252352   2.915   2.093  12.701 -1.1132  0.1201  0.8942
10313TIP3   OH252353   1.899   3.997   6.041 -0.0964  0.6014 -0.0966
10313TIP3    H152354   1.955   3.978   5.966 -0.8786 -0.7287 -0.3724
10313TIP3    H252355   1.946   3.961   6.116 -0.7492 -0.9573 -0.3894
10314TIP3   OH252356   0.500   0.934  15.823 -0.5789 -0.1380  0.2016
10314TIP3    H152357   0.512   0.876  15.898 -1.4496  0.5748  0.9257
10314TIP3    H252358   0.588   0.963  15.800 -0.3341  0.0908  1.3428
10315TIP3   OH252359   0.265   1.848  11.184 -0.1236 -0.5806 -0.3978
10315TIP3    H152360   0.257   1.935  11.144  1.7188  0.4595  1.2811
10315TIP3    H252361   0.333   1.804  11.132 -0.6681 -0.8200 -0.9138
10316TIP3   OH252362   3.535   4.847  15.328  0.2437  0.3225  0.0329
10316TIP3    H152363   3.527   4.864  15.422 -0.5842 -1.8301  0.4225
10316TIP3    H252364   3.626   4.868  15.307  0.5284  0.5383  1.4004
10317TIP3   OH252365   1.470   2.651   3.560  0.8694  0.1177 -0.3278
10317TIP3    H152366   1.411   2.668   3.487  0.3217  1.5316  0.4061
10317TIP3    H252367   1.417   2.603   3.623  0.5616  1.1198  0.2000
10318TIP3   OH252368   3.549   3.351  12.877  0.2888 -0.3839 -0.5574
10318TIP3    H152369   3.536   3.423  12.939  1.9692  1.1631 -1.8797
10318TIP3    H252370   3.561   3.273  12.932 -0.9269  0.4346  0.9390
10319TIP3   OH252371   2.489   3.689   0.588  0.7863 -0.7267 -0.9655
10319TIP3    H152372   2.407   3.721   0.627  1.2404  0.5692 -1.0080
10319TIP3    H252373   2.499   3.600   0.621  0.7554  0.0433  1.2741
10320TIP3   OH252374   6.037   1.290   2.149 -0.2291  0.2636 -0.2242
10320TIP3    H152375   6.101   1.300   2.220  0.1541 -2.2351 -0.1104
10320TIP3    H252376   6.079   1.330   2.073  2.5385 -2.9755 -0.6632
10321TIP3   OH252377   0.998   0.424  12.717 -0.0787  0.0895 -0.0210
10321TIP3    H152378   1.089   0.430  12.690  0.1134  0.6812  0.7346
10321TIP3    H252379   0.969   0.514  12.728 -0.8435 -0.0819 -0.5182
10322TIP3   OH252380   6.667   3.577   0.941  0.0842  0.0758  0.2720
10322TIP3    H152381   6.753   3.537   0.935  1.2274  1.9911  2.3298
10322TIP3    H252382   6.652   3.587   1.035 -0.3139  3.8319 -0.0410
10323TIP3   OH252383   5.324   4.136  14.910  0.0612 -0.2153  0.3539
10323TIP3    H152384   5.262   4.125  14.981  0.0359 -3.5487 -0.0298
10323TIP3    H252385   5.271   4.130  14.830  0.4661  0.4971  0.0172
10324TIP3   OH252386   1.819   4.094   5.497  0.3280  0.4006 -0.0668
10324TIP3    H152387   1.749   4.049   5.545  0.5610  0.9460  0.8001
10324TIP3    H252388   1.865   4.023   5.451 -1.0018  0.0674 -0.9603
10325TIP3   OH252389   5.639   4.576   2.199  0.3263 -0.2231  0.4576
10325TIP3    H152390   5.644   4.646   2.264  2.3789  0.5872 -0.4804
10325TIP3    H252391   5.725   4.535   2.202 -0.0035 -1.0548 -0.8110
10326TIP3   OH252392   3.357   3.773   1.401  0.3684 -0.2482  0.7125
10326TIP3    H152393   3.403   3.757   1.483 -0.4180  0.6817  1.3600
10326TIP3    H252394   3.317   3.860   1.412  0.0283 -0.2196 -0.5510
10327TIP3   OH252395   1.823   0.258  12.094 -0.6691  0.0982 -0.0781
10327TIP3    H152396   1.830   0.187  12.158  0.7735  0.6945  0.4653
10327TIP3    H252397   1.740   0.241  12.049 -0.1405 -2.1952 -0.3140
10328TIP3   OH252398   5.838   5.329   6.243  0.6163  0.1372 -0.2468
10328TIP3    H152399   5.765   5.353   6.301  0.4400  2.4508 -1.2986
10328TIP3    H252400   5.899   5.282   6.300 -0.6591  0.1462  1.2079
10329TIP3   OH252401   5.610   0.707   4.512 -0.1863  0.2844 -0.1303
10329TIP3    H152402   5.521   0.731   4.488  0.1733  0.6505 -1.1618
10329TIP3    H252403   5.602   0.620   4.551 -0.5540 -1.9126 -4.4212
10330TIP3   OH252404   6.133   5.750   4.326 -0.7357  0.9127 -0.5622
10330TIP3    H152405   6.104   5.661   4.345  1.4167 -0.0685 -1.5453
10330TIP3    H252406   6.201   5.767   4.391  0.4605  0.9258 -1.7775
10331TIP3   OH252407   5.180   3.847   0.307  0.1332 -0.3562 -0.0085
10331TIP3    H152408   5.173   3.917   0.371 -1.0246 -0.4762  0.0259
10331TIP3    H252409   5.261   3.865   0.259 -0.0578  0.8983  0.1189
10332TIP3   OH252410   1.772   6.432   5.693 -1.2602  0.4387 -0.0236
10332TIP3    H152411   1.859   6.430   5.731 -1.1985  0.4054 -0.1658
10332TIP3    H252412   1.719   6.479   5.757 -1.0469  0.8195 -0.1244
10333TIP3   OH252413   1.822   0.151   6.031 -0.2517 -0.2591  0.5082
10333TIP3    H152414   1.868   0.204   6.097 -1.3130  0.5481  0.6237
10333TIP3    H252415   1.729   0.166   6.048 -0.5875  1.1244 -2.0154
10334TIP3   OH252416   2.918   5.475  12.502 -0.1527  0.1122 -0.8065
10334TIP3    H152417   2.831   5.515  12.508 -0.1013  0.0382  0.7135
10334TIP3    H252418   2.969   5.520  12.569  0.5123 -1.0348 -0.5332
10335TIP3   OH252419   2.686   0.644   0.997  0.1852  0.5988 -0.0716
10335TIP3    H152420   2.724   0.728   1.021 -1.9629  1.3694  0.8789
10335TIP3    H252421   2.747   0.579   1.033  0.1994  1.7540  2.2060
10336TIP3   OH252422   0.619   5.212   4.322 -0.3407  0.5322  0.0849
10336TIP3    H152423   0.582   5.299   4.330  0.5602  1.0026 -0.5757
10336TIP3    H252424   0.714   5.226   4.329 -0.2360 -0.5495  1.1842
10337TIP3   OH252425   2.235   3.050   1.850 -0.2968 -0.0630 -0.2952
10337TIP3    H152426   2.253   3.124   1.793  0.4450  0.6686  0.8386
10337TIP3    H252427   2.174   2.995   1.801  0.9221  0.1248 -2.1074
10338TIP3   OH252428   3.605   6.774   1.820 -0.5191  0.4386  0.2802
10338TIP3    H152429   3.587   6.837   1.890  0.3790 -0.8411  1.7166
10338TIP3    H252430   3.688   6.803   1.782 -0.6080  0.6829  0.2705
10339TIP3   OH252431   1.163   1.439  15.789 -0.6864  0.1517  0.2854
10339TIP3    H152432   1.229   1.505  15.771  1.5317 -1.7166  1.0795
10339TIP3    H252433   1.155   1.390  15.707 -0.1875 -0.3360  0.5189
10340TIP3   OH252434   4.639   0.046  11.595  0.0948 -0.5417  0.4043
10340TIP3    H152435   4.575   0.005  11.654 -0.2390  0.6455  0.8976
10340TIP3    H252436   4.587   0.107  11.543  0.7846  0.2949  0.6762
10341TIP3   OH252437   5.822   1.208   5.855 -0.5967 -0.0442 -0.1361
10341TIP3    H152438   5.782   1.289   5.823  1.2778  1.3069  0.7280
10341TIP3    H252439   5.772   1.187   5.934 -0.3241  1.0393  0.3589
10342TIP3   OH252440   0.409   1.456   2.807 -0.8285  0.3683  1.1802
10342TIP3    H152441   0.470   1.383   2.807 -1.6465 -0.3463  0.4137
10342TIP3    H252442   0.456   1.528   2.850  0.2715 -0.3673  1.2301
10343TIP3   OH252443   0.502   3.329   1.786 -0.0744  0.0047  0.1026
10343TIP3    H152444   0.539   3.252   1.830 -0.4940 -1.0857 -1.3894
10343TIP3    H252445   0.575   3.363   1.734  0.1295  0.6802  0.8140
10344TIP3   OH252446   3.113   1.881   4.234  0.3195 -0.3333  0.2893
10344TIP3    H152447   3.155   1.906   4.316  0.9155 -1.3935  0.3243
10344TIP3    H252448   3.098   1.964   4.188  1.7455  0.1290  0.6232
10345TIP3   OH252449   0.616   4.259  11.893  0.2454 -0.2851 -0.7353
10345TIP3    H152450   0.631   4.316  11.969  0.7297 -0.5949 -0.5882
10345TIP3    H252451   0.681   4.190  11.903 -0.4832 -0.9844 -0.7911
10346TIP3   OH252452   5.783   2.395   3.658  0.3144 -0.0407  0.6062
10346TIP3    H152453   5.752   2.424   3.572 -0.5725  1.0963  1.2887
10346TIP3    H252454   5.742   2.309   3.671 -2.0072  1.0777  1.1461
10347TIP3   OH252455   2.612   4.824  12.411  0.0699  0.7865  0.7589
10347TIP3    H152456   2.665   4.896  12.377 -1.3665  1.4766 -0.1295
10347TIP3    H252457   2.654   4.745  12.377  0.4057  1.3243 -0.1151
10348TIP3   OH252458   2.633   1.877   0.029 -0.6857  0.0601  0.1380
10348TIP3    H152459   2.609   1.815   0.099 -0.4939 -0.2411 -0.0614
10348TIP3    H252460   2.617   1.829  -0.052 -0.6429  0.3139 -0.0208
10349TIP3   OH252461   6.063   1.949   2.288 -0.0442  0.1883 -0.0361
10349TIP3    H152462   5.968   1.950   2.295 -0.0489 -0.5879  0.0616
10349TIP3    H252463   6.082   1.993   2.205 -0.4754  0.4227 -0.0132
10350TIP3   OH252464   2.084   4.824   2.981 -0.0211  0.2497 -0.3915
10350TIP3    H152465   2.010   4.774   3.017 -0.7273  0.1703 -1.8793
10350TIP3    H252466   2.117   4.771   2.909 -0.2830  1.5366 -1.5034
10351TIP3   OH252467   0.232   0.992  11.449  0.0533 -0.1075 -0.2930
10351TIP3    H152468   0.245   0.951  11.364  1.9559  1.1493 -0.6956
10351TIP3    H252469   0.169   1.062  11.432 -0.3455 -0.4992 -0.4381
10352TIP3   OH252470   3.206   1.963   3.258  0.5093 -0.3726 -0.0416
10352TIP3    H152471   3.147   2.003   3.322  2.6423  1.5228  0.8448
10352TIP3    H252472   3.175   1.994   3.174 -1.2613 -1.4770  0.1517
10353TIP3   OH252473   3.416   0.939   0.374 -0.1572 -0.4318 -0.5406
10353TIP3    H152474   3.501   0.896   0.361  0.7207  0.5784  1.5332
10353TIP3    H252475   3.429   1.028   0.343  0.0368  0.1640  1.1791
10354TIP3   OH252476   0.729   5.156  10.666 -0.6170 -0.2762  0.2292
10354TIP3    H152477   0.670   5.101  10.614 -1.0080 -1.0357  1.4405
10354TIP3    H252478   0.672   5.199  10.730 -0.0103 -0.2122  0.7431
10355TIP3   OH252479   3.269   3.275  11.237 -0.1324 -0.5355 -0.2636
10355TIP3    H152480   3.250   3.243  11.326  0.5389  0.7673  0.3840
10355TIP3    H252481   3.353   3.236  11.215 -0.0168 -0.3977 -0.0752
10356TIP3   OH252482   0.246   2.555  11.146  0.3851  0.3267  0.1954
10356TIP3    H152483   0.284   2.470  11.124 -2.3962 -1.0666  0.2709
10356TIP3    H252484   0.253   2.606  11.065 -0.1642 -0.9286 -0.6887
10357TIP3   OH252485   3.794   1.015   5.340  0.1691 -0.4561  0.4143
10357TIP3    H152486   3.701   1.017   5.360  0.0151 -1.3667 -0.1632
10357TIP3    H252487   3.836   1.044   5.421 -0.6537  1.6028  0.1724
10358TIP3   OH252488   0.561   2.444   3.832  0.2888 -0.4327  0.1190
10358TIP3    H152489   0.599   2.380   3.772  0.3749 -1.2989  1.0630
10358TIP3    H252490   0.631   2.507   3.848  0.9452 -1.3353  0.8855
10359TIP3   OH252491   6.154   3.951   2.589 -0.2372  0.1064  0.3565
10359TIP3    H152492   6.104   3.992   2.659 -0.6714 -1.7297  1.1721
10359TIP3    H252493   6.245   3.953   2.620 -0.2412  0.4987  0.3495
10360TIP3   OH252494   4.788   1.077   2.286 -0.0604  0.8536  0.2409
10360TIP3    H152495   4.786   1.009   2.218 -1.5860  0.5041  0.5965
10360TIP3    H252496   4.879   1.106   2.288 -0.0600  1.3150 -2.3800
10361TIP3   OH252497   0.015   3.371   3.257  0.3959  0.1649 -0.1973
10361TIP3    H152498   0.035   3.433   3.326  1.0490  0.2640 -0.4610
10361TIP3    H252499  -0.075   3.391   3.230 -0.1393 -0.3768  1.1255
10362TIP3   OH252500   1.747   6.558  12.805  0.5873 -0.1473 -0.1904
10362TIP3    H152501   1.661   6.574  12.767  1.0981 -0.0426 -1.3171
10362TIP3    H252502   1.776   6.477  12.765  0.0465 -1.4572  1.9323
10363TIP3   OH252503   6.252   6.068   0.149  0.2518  0.1566 -0.0273
10363TIP3    H152504   6.193   6.035   0.217 -0.2514  2.1477  0.5699
10363TIP3    H252505   6.285   6.151   0.184  3.1255 -0.6647 -0.5260
10364TIP3   OH252506   1.202   2.379  13.540  0.0324  0.0115  0.1238
10364TIP3    H152507   1.218   2.298  13.491 -1.5623 -0.2295 -0.0632
10364TIP3    H252508   1.233   2.449  13.482 -0.2128 -0.3719 -0.4782
10365TIP3   OH252509   3.214   1.902  16.732 -0.3977 -0.2916  1.1745
10365TIP3    H152510   3.180   1.974  16.679 -0.3840 -0.4292  0.9789
10365TIP3    H252511   3.232   1.832  16.669  0.1353 -0.2640  1.2935
10366TIP3   OH252512   3.849   5.841   1.159  0.0818  0.3273  0.3130
10366TIP3    H152513   3.828   5.793   1.239  0.8224  0.2123  0.4484
10366TIP3    H252514   3.935   5.880   1.176  0.3147  0.1823 -0.4817
10367TIP3   OH252515   5.084   1.161   3.714 -0.2303 -0.0604  0.3623
10367TIP3    H152516   5.082   1.078   3.762 -0.1287 -1.0757 -1.3279
10367TIP3    H252517   5.175   1.170   3.685 -0.3341  0.4366  0.1780
10368TIP3   OH252518   5.497   2.608  11.761  0.6511 -0.1359 -0.2415
10368TIP3    H152519   5.426   2.547  11.741  0.9364 -0.3130 -0.7285
10368TIP3    H252520   5.505   2.605  11.857 -0.8086  0.8075 -0.0566
10369TIP3   OH252521   4.758   4.406  11.228 -0.5568  0.2592 -0.1619
10369TIP3    H152522   4.803   4.403  11.144 -1.2733  0.6785 -0.5614
10369TIP3    H252523   4.812   4.465  11.282 -0.6282  0.7706 -0.6422
10370TIP3   OH252524   6.525   2.780   4.048 -0.5060 -0.0556  0.4814
10370TIP3    H152525   6.493   2.725   3.977 -0.3210  0.8496 -0.3212
10370TIP3    H252526   6.605   2.820   4.014 -0.0838 -0.0595  1.4181
10371TIP3   OH252527   2.994   2.955  11.651 -0.7829 -0.5140 -0.2791
10371TIP3    H152528   3.003   2.957  11.746 -1.3425 -0.2341 -0.2314
10371TIP3    H252529   2.990   3.047  11.625 -0.8723 -0.5927 -0.5501
10372TIP3   OH252530   3.938   3.671  14.086  0.1532 -0.4257 -0.1094
10372TIP3    H152531   3.977   3.597  14.038 -0.6460  0.1412 -1.7382
10372TIP3    H252532   3.884   3.715  14.020 -0.0456  1.1300  1.0544
10373TIP3   OH252533   0.249   0.725  14.232 -0.3907  0.3547 -0.0212
10373TIP3    H152534   0.247   0.633  14.260  0.5554  0.6795  1.1780
10373TIP3    H252535   0.235   0.775  14.312 -4.3395  1.2823 -1.0733
10374TIP3   OH252536   1.004   6.533   2.719 -0.6176  0.1689 -0.3869
10374TIP3    H152537   1.034   6.459   2.666  0.4170  1.2469 -1.3664
10374TIP3    H252538   0.930   6.498   2.769 -1.3841 -1.0054 -2.2378
10375TIP3   OH252539   1.787   4.700   1.643  0.5597 -0.6370 -0.1553
10375TIP3    H152540   1.735   4.780   1.652  1.7597 -0.0108  1.6479
10375TIP3    H252541   1.840   4.715   1.565 -1.2311 -0.9131 -1.5071
10376TIP3   OH252542   2.832   1.493  15.635  0.4949 -0.3093 -0.6489
10376TIP3    H152543   2.893   1.450  15.695  1.1936  0.5846 -0.6921
10376TIP3    H252544   2.757   1.517  15.689  1.7709  1.8860  0.2940
10377TIP3   OH252545   1.889   2.735  15.702 -0.3456  0.2307  0.1880
10377TIP3    H152546   1.964   2.735  15.643  0.3923  0.7164  1.1192
10377TIP3    H252547   1.813   2.723  15.644  0.5322 -2.0425 -0.6214
10378TIP3   OH252548   2.839   2.507  13.936 -0.5345  0.1775 -0.1476
10378TIP3    H152549   2.804   2.596  13.944  2.5133  1.3549  2.2431
10378TIP3    H252550   2.885   2.492  14.019  0.8798 -2.7850 -1.3308
10379TIP3   OH252551   1.011   5.174   1.689  0.1085 -0.0492 -0.3481
10379TIP3    H152552   0.922   5.151   1.662  0.0101 -0.2348  0.1335
10379TIP3    H252553   1.009   5.268   1.704  0.0506 -0.0179 -0.5461
10380TIP3   OH252554   4.856   1.837   2.103 -1.1746 -0.3160 -0.1628
10380TIP3    H152555   4.840   1.790   2.022 -2.7674 -0.6058  0.2727
10380TIP3    H252556   4.778   1.893   2.114 -0.2996  0.8400  0.4054
10381TIP3   OH252557   0.510   1.276  14.162 -0.6097 -0.0854  0.4717
10381TIP3    H152558   0.430   1.232  14.191 -0.9844  1.0832  1.3097
10381TIP3    H252559   0.574   1.253  14.230  0.0579 -1.7523 -0.6609
10382TIP3   OH252560   5.319   2.240   2.174 -0.0715 -1.1725 -0.1124
10382TIP3    H152561   5.266   2.230   2.253  0.3794 -0.9448  0.2245
10382TIP3    H252562   5.255   2.248   2.103 -0.5297  0.7943  0.4773
10383TIP3   OH252563   1.577   3.220  11.930 -0.4088  0.3169  0.4739
10383TIP3    H152564   1.626   3.148  11.889 -0.7720 -0.8058  1.9160
10383TIP3    H252565   1.549   3.184  12.014 -2.1045  1.5879  0.4847
10384TIP3   OH252566   4.780   6.280  12.605 -0.2529  0.3967  0.6091
10384TIP3    H152567   4.692   6.313  12.586 -1.2195 -2.5200 -0.4471
10384TIP3    H252568   4.805   6.232  12.526  2.5007  1.4117  0.7570
10385TIP3   OH252569   0.202   4.078  12.476  0.5512  0.7302 -0.2963
10385TIP3    H152570   0.176   4.021  12.403 -0.5301  0.6523  0.1309
10385TIP3    H252571   0.239   4.155  12.434 -0.6793  0.9862 -0.9595
10386TIP3   OH252572   2.224   1.092   2.594  0.7341  0.1204 -0.4751
10386TIP3    H152573   2.230   1.165   2.534 -0.8355  0.2064 -0.5847
10386TIP3    H252574   2.141   1.049   2.571  0.5197 -0.3505  1.0501
10387TIP3   OH252575   4.396   5.555  11.628 -0.6478 -0.4967  0.3138
10387TIP3    H152576   4.335   5.530  11.559  0.5929 -3.4841  0.1632
10387TIP3    H252577   4.374   5.498  11.702 -1.1380  1.7732  2.0170
10388TIP3   OH252578   1.304   4.500  10.657  0.4245  0.3449  0.0947
10388TIP3    H152579   1.274   4.482  10.746  0.5987 -0.5454 -0.0159
10388TIP3    H252580   1.385   4.550  10.667 -0.8214  2.3990  0.4031
10389TIP3   OH252581   0.874   1.108   3.588 -0.2280  0.1850 -0.3647
10389TIP3    H152582   0.787   1.122   3.626 -0.9461  0.1814 -1.9489
10389TIP3    H252583   0.930   1.170   3.634 -1.1217  0.3862  0.4877
10390TIP3   OH252584   6.520   6.391  11.857 -0.2882 -0.2198  0.1000
10390TIP3    H152585   6.458   6.445  11.907 -1.2291  0.2894 -1.5316
10390TIP3    H252586   6.474   6.308  11.844 -0.0164 -0.3793  0.1520
10391TIP3   OH252587   0.412   1.639   1.017 -0.4487 -0.0431  0.3406
10391TIP3    H152588   0.487   1.694   0.993 -0.3664  0.2268  1.1970
10391TIP3    H252589   0.405   1.576   0.945  0.7474 -0.2337  0.3702
10392TIP3   OH252590   2.839   4.693  13.476  0.5221 -0.3513 -0.1132
10392TIP3    H152591   2.831   4.611  13.526 -0.8775 -1.3742 -1.9112
10392TIP3    H252592   2.764   4.745  13.505  1.4711  0.4149  1.1101
10393TIP3   OH252593   1.632   4.216   5.097 -0.3732  0.1054 -0.2665
10393TIP3    H152594   1.615   4.122   5.083  0.7064 -0.0940 -0.3685
10393TIP3    H252595   1.708   4.217   5.156 -2.2051  0.9239  2.2653
10394TIP3   OH252596   5.554   2.274  16.091 -0.0005  0.4012 -0.1666
10394TIP3    H152597   5.526   2.235  16.174 -0.6913  2.6917  0.7627
10394TIP3    H252598   5.480   2.262  16.032 -0.7528  1.4510  0.5334
10395TIP3   OH252599   4.655   5.847   3.338 -0.2707 -0.1226 -0.1394
10395TIP3    H152600   4.731   5.849   3.397  0.2361  0.7958 -0.8044
10395TIP3    H252601   4.580   5.852   3.396  0.1964 -0.0858  0.4779
10396TIP3   OH252602   3.113   1.017   3.968  0.2004  0.3265 -0.1819
10396TIP3    H152603   3.176   0.949   3.941  0.2935  0.2371  0.2531
10396TIP3    H252604   3.165   1.097   3.970  0.5476  0.1029  1.0805
10397TIP3   OH252605   4.812   3.353  12.422  0.1899  0.3602 -0.0191
10397TIP3    H152606   4.771   3.429  12.380  0.2116 -0.2086 -1.1305
10397TIP3    H252607   4.741   3.310  12.469  0.0576  0.7525  0.1406
10398TIP3   OH252608   6.393   0.556  14.213 -0.0893 -0.1148  0.2131
10398TIP3    H152609   6.300   0.577  14.208 -0.0306 -0.1080 -2.8948
10398TIP3    H252610   6.438   0.636  14.186  0.6436 -0.8723 -0.9204
10399TIP3   OH252611   0.918   2.209  12.367  0.0292  0.1695 -0.0134
10399TIP3    H152612   1.006   2.191  12.398  0.6069  0.2831 -1.5224
10399TIP3    H252613   0.873   2.124  12.372  0.8356 -0.3439 -1.1113
10400TIP3   OH252614   5.041   0.235  14.739  0.2443 -0.2474  0.5063
10400TIP3    H152615   5.107   0.230  14.670 -0.2342 -0.3793  0.0462
10400TIP3    H252616   4.979   0.301  14.708 -0.3245 -0.7738  0.4910
10401TIP3   OH252617   0.885   5.242   4.345  0.1249  0.0225  0.3814
10401TIP3    H152618   0.926   5.158   4.361 -0.7565 -1.2187 -3.0423
10401TIP3    H252619   0.956   5.306   4.351  1.5263 -1.4198 -0.3723
10402TIP3   OH252620   2.657   0.662  16.814  0.8320  0.1880 -0.2446
10402TIP3    H152621   2.611   0.651  16.898  3.2248 -0.3871  1.0815
10402TIP3    H252622   2.631   0.749  16.785 -1.7482 -0.4258 -0.0677
10403TIP3   OH252623   3.598   0.374   3.368  0.9093  0.5019 -0.4363
10403TIP3    H152624   3.643   0.338   3.291  0.5508 -2.1644  0.5047
10403TIP3    H252625   3.520   0.319   3.378 -0.5652  2.6079  0.2043
10404TIP3   OH252626   5.245   6.018   2.417 -0.3323  0.0100 -0.0458
10404TIP3    H152627   5.321   5.975   2.377  0.5899  2.0763 -0.6689
10404TIP3    H252628   5.274   6.038   2.507 -0.4995 -0.0608  0.0236
10405TIP3   OH252629   0.242   2.249   6.095  0.0969  0.1537  0.0806
10405TIP3    H152630   0.221   2.324   6.151 -1.4255 -0.5660  0.5192
10405TIP3    H252631   0.318   2.209   6.137 -0.2185  0.3923  0.8949
10406TIP3   OH252632   0.741   1.862   4.320 -0.3808 -0.8561 -0.9087
10406TIP3    H152633   0.728   1.833   4.410 -0.4709 -0.6256 -0.8463
10406TIP3    H252634   0.661   1.912   4.299  0.5743  0.9947 -0.3640
10407TIP3   OH252635   6.416   3.605   2.590 -0.2551 -0.0087  0.2681
10407TIP3    H152636   6.324   3.577   2.586  0.2093 -1.6888  0.4733
10407TIP3    H252637   6.413   3.700   2.579 -1.9910 -0.0680 -0.0337
10408TIP3   OH252638   5.814   6.121  14.793 -0.7291  0.5414 -0.6154
10408TIP3    H152639   5.775   6.100  14.877 -0.0663  1.9201  0.0712
10408TIP3    H252640   5.797   6.214  14.780  1.4723  1.0085 -0.6925
10409TIP3   OH252641   5.601   1.696  13.470 -0.1759  0.1388  0.0412
10409TIP3    H152642   5.528   1.695  13.532  0.4885  1.8144  0.9429
10409TIP3    H252643   5.578   1.764  13.407  0.6243  0.7814  0.4133
10410TIP3   OH252644   5.668   4.443  11.169  0.3684 -0.0897  0.1385
10410TIP3    H152645   5.700   4.492  11.093  0.4020 -3.4031 -2.1837
10410TIP3    H252646   5.746   4.401  11.205  0.1333  0.3722  1.2322
10411TIP3   OH252647   4.219   2.685   3.832  0.6332 -0.4920  0.8469
10411TIP3    H152648   4.308   2.681   3.866  1.4753  0.7183 -1.0109
10411TIP3    H252649   4.229   2.667   3.738 -0.9123  0.6526  0.4277
10412TIP3   OH252650   3.826   0.351   2.179 -0.4340 -0.2128 -0.3108
10412TIP3    H152651   3.897   0.410   2.203  0.5548 -0.7960 -1.6890
10412TIP3    H252652   3.754   0.410   2.154  0.5969  0.4754 -1.8455
10413TIP3   OH252653   3.291   0.741  12.913 -0.3395 -0.0090  0.0548
10413TIP3    H152654   3.203   0.705  12.915 -0.3009 -0.0918  0.7993
10413TIP3    H252655   3.302   0.776  12.825 -0.2293 -2.1731 -0.8419
10414TIP3   OH252656   3.676   2.165  14.231 -0.1586 -0.3961 -0.1107
10414TIP3    H152657   3.714   2.252  14.244  0.2454 -0.8286  1.9792
10414TIP3    H252658   3.677   2.152  14.136  1.1236  1.2738 -0.3655
10415TIP3   OH252659   3.103   0.021  15.204  0.2499  0.5629  0.5140
10415TIP3    H152660   3.119   0.031  15.298 -0.9313 -0.4556  0.8475
10415TIP3    H252661   3.094  -0.073  15.191  3.9038  0.2583 -1.2749
10416TIP3   OH252662   4.547   3.441  10.461  0.1422  0.3069  0.0551
10416TIP3    H152663   4.636   3.415  10.439  0.0496  0.2724 -0.2843
10416TIP3    H252664   4.553   3.535  10.477  0.3820  0.1717  0.7839
10417TIP3   OH252665   6.667   5.828   3.883 -0.6468 -0.6085  0.1431
10417TIP3    H152666   6.588   5.780   3.857 -1.7850  1.6575 -0.8973
10417TIP3    H252667   6.635   5.894   3.945  0.9319 -1.3882  1.8670
10418TIP3   OH252668   1.581   1.346   1.098 -0.3017  0.6584  0.1531
10418TIP3    H152669   1.545   1.299   1.022 -0.4236  0.0393  0.5867
10418TIP3    H252670   1.520   1.418   1.112  0.3576  1.4789 -1.0543
10419TIP3   OH252671   1.487   6.505  12.618 -0.4748 -0.7012 -0.4642
10419TIP3    H152672   1.484   6.428  12.676  1.4782 -1.3315 -1.1319
10419TIP3    H252673   1.399   6.510  12.581 -1.2062 -1.4319  1.0759
10420TIP3   OH252674   4.387   4.947  12.306 -0.6416 -0.2148  0.1623
10420TIP3    H152675   4.442   4.895  12.366 -1.2872  0.7107  1.6157
10420TIP3    H252676   4.422   5.036  12.313 -1.6141  0.1664  0.2512
10421TIP3   OH252677   4.339   2.693  15.831 -0.0771 -0.7136  0.0879
10421TIP3    H152678   4.326   2.782  15.799  1.0097 -0.4325  0.3888
10421TIP3    H252679   4.268   2.679  15.894  0.3875  0.3618  0.8851
10422TIP3   OH252680   6.428   3.588  10.978 -0.3958  0.0653 -0.6409
10422TIP3    H152681   6.435   3.641  10.899 -0.8118 -0.9034 -1.3475
10422TIP3    H252682   6.478   3.509  10.959  0.0240  0.0816  0.3049
10423TIP3   OH252683   4.349   0.416  14.525 -0.0984  0.1682 -0.0239
10423TIP3    H152684   4.306   0.501  14.517  0.2479  0.3243 -0.2353
10423TIP3    H252685   4.442   0.437  14.533 -0.1023 -0.1320  1.0004
10424TIP3   OH252686   1.757   1.525   3.304  0.5023  0.3729  0.3892
10424TIP3    H152687   1.780   1.515   3.396 -2.6492 -2.2395  1.0931
10424TIP3    H252688   1.681   1.583   3.304  0.0914 -0.1387 -0.4311
10425TIP3   OH252689   5.874   3.350   1.582  0.0065 -0.2681 -0.2928
10425TIP3    H152690   5.816   3.385   1.650  0.0400 -1.2678  0.2650
10425TIP3    H252691   5.854   3.403   1.504 -1.8135 -0.7365 -0.1815
10426TIP3   OH252692   2.131   4.579   0.135  0.3990  0.3556  0.2991
10426TIP3    H152693   2.054   4.607   0.184 -1.4299 -1.2319 -1.4696
10426TIP3    H252694   2.123   4.483   0.130  1.1925  0.3477 -1.8956
10427TIP3   OH252695   5.506   3.532  12.226 -0.3147 -0.1267  0.3251
10427TIP3    H152696   5.456   3.613  12.229 -0.8423 -0.3254 -1.5975
10427TIP3    H252697   5.470   3.479  12.297 -0.5730  0.9773  1.0350
10428TIP3   OH252698   5.745   5.502   2.301 -0.5547 -0.0151 -0.0116
10428TIP3    H152699   5.713   5.505   2.391 -0.8378 -1.0060 -0.0647
10428TIP3    H252700   5.824   5.449   2.305 -0.4248  0.1509 -0.3079
10429TIP3   OH252701   6.323   3.175   5.301  0.0437  0.0377 -0.7754
10429TIP3    H152702   6.348   3.234   5.230  0.8776 -1.1383 -1.4836
10429TIP3    H252703   6.302   3.093   5.258  0.9097 -0.8119  0.3604
10430TIP3   OH252704   1.076   3.620   0.397  0.1454  0.0566 -0.1824
10430TIP3    H152705   1.127   3.667   0.331  0.0431  0.0925 -0.2366
10430TIP3    H252706   1.014   3.568   0.347  0.0855  0.0626 -0.1156
10431TIP3   OH252707   2.255   1.095   3.805 -0.2623  0.2891  0.3568
10431TIP3    H152708   2.288   1.136   3.724  0.9767  0.9245  1.1474
10431TIP3    H252709   2.261   1.164   3.871 -1.3082 -0.2125  0.9896
10432TIP3   OH252710   1.278   4.549   0.784  0.6396 -0.2472 -0.1373
10432TIP3    H152711   1.291   4.459   0.753 -0.7424  0.1534 -2.0746
10432TIP3    H252712   1.336   4.602   0.730  0.9467  0.1014  0.5275
10433TIP3   OH252713   2.175   5.190   3.459  0.0139 -0.0720 -0.7476
10433TIP3    H152714   2.160   5.170   3.551  0.4364  0.4864 -0.5535
10433TIP3    H252715   2.182   5.286   3.456  0.9034 -0.1374 -1.2173
10434TIP3   OH252716   1.399   4.984   2.477 -0.3468  0.4347 -0.2702
10434TIP3    H152717   1.476   4.930   2.495 -1.5461 -1.3046 -0.1514
10434TIP3    H252718   1.417   5.022   2.390  0.8400  0.4791 -0.0277
10435TIP3   OH252719   6.609   4.813   0.455  0.4850  0.2571  0.0237
10435TIP3    H152720   6.668   4.797   0.381  0.5736 -2.4328  0.5883
10435TIP3    H252721   6.668   4.834   0.528  0.7788 -1.8531  0.4450
10436TIP3   OH252722   5.415   1.263   1.838 -0.1916 -0.0478 -0.2332
10436TIP3    H152723   5.432   1.352   1.806  1.7653 -0.1812  0.3606
10436TIP3    H252724   5.362   1.276   1.917  2.8003  0.8682  1.7610
10437TIP3   OH252725   4.925   5.364   4.457 -0.5708  0.4506 -0.0946
10437TIP3    H152726   4.877   5.384   4.537  2.9585  2.4715  1.7937
10437TIP3    H252727   5.002   5.316   4.487 -0.2956 -0.8671 -2.6440
10438TIP3   OH252728   5.124   0.332  16.652  0.2860  0.3305  0.4190
10438TIP3    H152729   5.185   0.403  16.631 -0.4091  0.6962 -0.4196
10438TIP3    H252730   5.180   0.256  16.666  0.8958  0.3550 -1.5457
10439TIP3   OH252731   2.555   2.482   4.742  0.0265  0.1148 -0.3692
10439TIP3    H152732   2.467   2.449   4.722  0.2309 -0.6984  0.0026
10439TIP3    H252733   2.592   2.415   4.800  0.7628  0.6256 -0.2422
10440TIP3   OH252734   0.039   1.887   4.593  0.0427 -0.4752  0.2161
10440TIP3    H152735   0.027   1.896   4.688  1.0764 -0.8707  0.3964
10440TIP3    H252736   0.133   1.897   4.580 -0.0403 -0.8713 -0.7186
10441TIP3   OH252737   3.382   5.217   4.603 -0.2840 -0.5842  0.0088
10441TIP3    H152738   3.339   5.162   4.669 -1.2176 -0.4427 -0.4599
10441TIP3    H252739   3.459   5.167   4.576 -1.2405 -1.7942 -0.5840
10442TIP3   OH252740   3.056   2.677  15.619  0.3681  0.1495 -0.5312
10442TIP3    H152741   3.122   2.660  15.552  1.1001 -0.0056  0.2145
10442TIP3    H252742   2.975   2.692  15.570  1.1504  1.3523 -1.5319
10443TIP3   OH252743   2.885   4.013  11.912 -0.1185  0.1211  0.5551
10443TIP3    H152744   2.875   4.025  11.817 -1.7667  0.7751  0.7757
10443TIP3    H252745   2.975   4.038  11.929  1.3144 -3.1756 -1.2548
10444TIP3   OH252746   3.540   0.370  11.121  0.2246 -0.4030  0.5966
10444TIP3    H152747   3.604   0.420  11.172  0.1897 -0.2827  0.5233
10444TIP3    H252748   3.458   0.380  11.170 -0.1121  0.8216 -0.1789
10445TIP3   OH252749   5.179   0.584  15.529  0.2692  0.3927  0.1979
10445TIP3    H152750   5.153   0.501  15.490  0.2768  0.2430  0.5069
10445TIP3    H252751   5.142   0.651  15.472 -0.7246  0.1823  0.5791
10446TIP3   OH252752   1.473   5.963  13.716  0.1913  0.3313 -0.1051
10446TIP3    H152753   1.462   6.036  13.654 -1.5083 -0.2807 -0.5913
10446TIP3    H252754   1.526   5.899  13.670 -1.2180 -0.2013 -1.0651
10447TIP3   OH252755   2.109   2.141  15.652  0.1334  0.5579 -0.0197
10447TIP3    H152756   2.109   2.045  15.651 -1.0271  0.5422 -0.3105
10447TIP3    H252757   2.201   2.165  15.642  0.6841 -0.5116  2.0344
10448TIP3   OH252758   0.040   2.833   2.677 -0.0411  0.1088  0.0799
10448TIP3    H152759   0.035   2.927   2.690 -0.1849  0.2159 -0.7188
10448TIP3    H252760  -0.049   2.806   2.653  0.4907  0.1731 -2.1699
10449TIP3   OH252761   1.059   3.758   3.797  0.2557  0.3279 -0.9542
10449TIP3    H152762   0.974   3.777   3.836  0.6683  0.7703 -0.2535
10449TIP3    H252763   1.118   3.744   3.871  0.7423 -0.2505 -1.4313
10450TIP3   OH252764   0.315   1.118  10.849 -0.4612  0.2786 -0.0741
10450TIP3    H152765   0.290   1.169  10.772 -0.5507 -1.2171 -1.0798
10450TIP3    H252766   0.264   1.037  10.842  0.3326 -0.3482  0.9803
10451TIP3   OH252767   2.507   4.272  13.372  0.2205  0.1901 -0.1504
10451TIP3    H152768   2.527   4.264  13.279 -0.9227  1.3331 -0.5148
10451TIP3    H252769   2.513   4.366  13.389 -1.2071  0.1697  0.5494
10452TIP3   OH252770   0.189   6.315   0.829  0.5098 -0.2150 -0.2602
10452TIP3    H152771   0.267   6.362   0.800  0.7820 -0.5556 -0.0853
10452TIP3    H252772   0.219   6.226   0.847  0.4232  0.0467  1.3543
10453TIP3   OH252773   1.825   2.316  15.090 -0.6386 -0.1119 -0.3883
10453TIP3    H152774   1.886   2.387  15.069  0.4740 -1.1242 -0.7080
10453TIP3    H252775   1.829   2.258  15.013  1.2753 -2.3993  1.3023
10454TIP3   OH252776   3.326   0.000   1.839 -0.6939 -0.1998 -0.0512
10454TIP3    H152777   3.410  -0.004   1.793 -1.1245 -2.0278 -0.7715
10454TIP3    H252778   3.280  -0.079   1.812 -1.9385 -0.1437  1.7183
10455TIP3   OH252779   0.682   3.254   0.420 -0.3125 -0.6277 -0.2208
10455TIP3    H152780   0.699   3.162   0.441  0.9723 -0.3005  0.2233
10455TIP3    H252781   0.720   3.303   0.493 -0.8452  0.2809 -0.5311
10456TIP3   OH252782   3.198   4.055   1.693  0.6890 -0.2752 -0.0484
10456TIP3    H152783   3.164   4.106   1.619 -0.5046  0.0465  0.6892
10456TIP3    H252784   3.129   3.993   1.713  0.1218  0.9442  2.0234
10457TIP3   OH252785   2.884   1.910  12.960  0.1284 -0.4962  0.5226
10457TIP3    H152786   2.827   1.848  13.005 -1.7787  0.6967 -0.1051
10457TIP3    H252787   2.842   1.923  12.875  0.5396  1.5156  0.5866
10458TIP3   OH252788   0.165   2.562   2.016 -0.7014  0.4524 -0.4756
10458TIP3    H152789   0.200   2.531   1.933  0.2597  1.5328 -0.5000
10458TIP3    H252790   0.238   2.554   2.078 -1.2827  0.0366  0.1806
10459TIP3   OH252791   5.527   2.465   0.569  0.1556 -0.0936 -0.3092
10459TIP3    H152792   5.474   2.511   0.504 -0.3210 -1.0591 -0.6306
10459TIP3    H252793   5.509   2.372   0.553 -0.9822 -0.3465  2.0401
10460TIP3   OH252794   2.706   0.400   2.887  0.0749 -0.6207 -0.3761
10460TIP3    H152795   2.632   0.362   2.839  0.1149 -0.4992 -0.5317
10460TIP3    H252796   2.681   0.391   2.979 -0.0667 -0.7191 -0.4242
10461TIP3   OH252797   5.206   2.263   2.429 -0.0480  0.0603  0.0366
10461TIP3    H152798   5.226   2.207   2.505  2.1748 -2.8637 -2.4425
10461TIP3    H252799   5.115   2.244   2.408  0.0297 -0.9585  0.5747
10462TIP3   OH252800   3.234   5.269  15.616 -0.1688  0.2069 -0.3006
10462TIP3    H152801   3.214   5.348  15.566  1.1305  1.0090  0.3849
10462TIP3    H252802   3.262   5.205  15.549  1.6111  1.2877 -0.6580
10463TIP3   OH252803   6.135   1.150   4.127  0.6116 -0.2527 -0.2019
10463TIP3    H152804   6.121   1.226   4.071 -1.9044 -1.1990 -0.9572
10463TIP3    H252805   6.128   1.075   4.068 -3.6555 -1.3933  1.3899
10464TIP3   OH252806   3.900   1.696  11.158 -0.7873 -0.2038 -0.2231
10464TIP3    H152807   3.943   1.631  11.103  0.3981  0.1567  0.2480
10464TIP3    H252808   3.970   1.756  11.185 -1.6353  0.5722  0.3305
10465TIP3   OH252809   1.620   0.046  14.988  0.4976 -0.0634  0.2668
10465TIP3    H152810   1.665  -0.015  14.930 -0.3763  0.3596 -0.9209
10465TIP3    H252811   1.622   0.129  14.940 -0.4431  0.2443  0.7349
10466TIP3   OH252812   6.677   3.756   5.001  0.1172  0.1811 -0.7244
10466TIP3    H152813   6.696   3.794   4.915  1.7649  1.6736  0.2294
10466TIP3    H252814   6.756   3.707   5.024 -0.7340 -1.1334 -0.5064
10467TIP3   OH252815   2.259   2.302   3.528  0.0244  0.2542  0.0528
10467TIP3    H152816   2.256   2.277   3.435 -3.1653  0.7253 -0.0983
10467TIP3    H252817   2.304   2.386   3.529  1.7417 -0.5978 -0.7658
10468TIP3   OH252818   5.349   0.643   3.195 -0.2567  0.4646 -0.0773
10468TIP3    H152819   5.356   0.718   3.136 -0.4288 -0.8587 -1.8485
10468TIP3    H252820   5.403   0.575   3.155 -1.1075 -0.7795  0.8034
10469TIP3   OH252821   2.940   2.858  11.154  0.0382  0.2631 -0.1689
10469TIP3    H152822   2.862   2.836  11.104 -0.4428 -2.7325  1.6786
10469TIP3    H252823   2.909   2.920  11.221 -0.8183 -0.9083  0.5559
10470TIP3   OH252824   1.289   5.546  13.428  0.0750  0.3263 -0.1303
10470TIP3    H152825   1.360   5.557  13.491  0.5637 -2.1140 -0.1529
10470TIP3    H252826   1.317   5.473  13.373 -1.9215  0.0938 -0.9186
10471TIP3   OH252827   0.131   4.308  11.736  0.1626 -0.1046 -0.5375
10471TIP3    H152828   0.176   4.271  11.812  0.2803  0.2004 -0.4543
10471TIP3    H252829   0.184   4.281  11.661  0.0012 -0.4757 -0.5201
10472TIP3   OH252830   2.988   3.284   0.280 -0.3885  0.1414 -0.0640
10472TIP3    H152831   3.004   3.219   0.211  1.0836  1.8927 -1.4915
10472TIP3    H252832   3.061   3.345   0.271 -1.4506  1.7189  1.5515
10473TIP3   OH252833   5.178   3.370   0.755 -0.2131 -0.1981  0.9017
10473TIP3    H152834   5.100   3.353   0.808 -1.7941  0.6654 -1.0420
10473TIP3    H252835   5.219   3.445   0.796 -2.6348  1.8933 -0.2155
10474TIP3   OH252836   4.999   5.905   0.324  0.7168  0.1343 -0.3152
10474TIP3    H152837   5.028   5.961   0.252 -2.3805  2.8226  0.3292
10474TIP3    H252838   5.035   5.946   0.403 -1.7517  1.5544  0.1805
10475TIP3   OH252839   4.386   2.999   4.745 -0.5510 -0.3419  0.1928
10475TIP3    H152840   4.293   2.980   4.731 -1.2099  2.2148  0.6105
10475TIP3    H252841   4.417   3.028   4.659 -0.1118 -1.1545  0.0635
10476TIP3   OH252842   1.274   4.649  16.682  0.3599  0.6608 -0.1563
10476TIP3    H152843   1.289   4.730  16.632  0.8874  0.4395 -0.3673
10476TIP3    H252844   1.190   4.616  16.650 -0.5351  1.8341  0.9063
10477TIP3   OH252845   6.314   5.346   4.440  0.4275 -0.2907 -0.0760
10477TIP3    H152846   6.353   5.319   4.523  1.1481  0.7018 -0.0686
10477TIP3    H252847   6.220   5.338   4.454  0.4459  1.3214  1.4037
10478TIP3   OH252848   1.954   4.089   4.820  0.5880  0.1606  0.2296
10478TIP3    H152849   1.963   4.180   4.848  0.0045  0.5540 -0.8017
10478TIP3    H252850   1.862   4.067   4.837  0.1255  0.5206 -1.6106
10479TIP3   OH252851   0.298   1.502   0.287 -0.6696 -0.3861 -0.2925
10479TIP3    H152852   0.296   1.583   0.237  1.0111  0.8152  1.4520
10479TIP3    H252853   0.212   1.497   0.328 -1.2157 -0.1440 -1.3866
10480TIP3   OH252854   3.687   2.513   0.607  0.2103  0.1074 -0.1593
10480TIP3    H152855   3.657   2.588   0.556 -0.2220  0.0692  0.0369
10480TIP3    H252856   3.674   2.438   0.549  0.3047  0.1388 -0.2216
10481TIP3   OH252857   3.385   0.869  13.259  0.3747  0.0457 -0.1354
10481TIP3    H152858   3.475   0.837  13.264  0.0595 -0.9745 -0.7331
10481TIP3    H252859   3.352   0.835  13.176 -0.3463  0.9977 -0.2584
10482TIP3   OH252860   0.551   0.034   0.969 -0.1638  0.4370  0.0064
10482TIP3    H152861   0.615  -0.026   1.006 -0.1281 -0.5597 -1.5743
10482TIP3    H252862   0.575   0.041   0.877 -1.1584  1.5867 -0.1873
10483TIP3   OH252863   6.587   6.127   2.839  0.0429 -0.3371  0.0776
10483TIP3    H152864   6.534   6.048   2.853 -0.4345 -0.7015 -3.0057
10483TIP3    H252865   6.523   6.195   2.820  0.4677  0.8131  2.4568
10484TIP3   OH252866   0.289   5.364  16.020  0.6339 -0.2726  0.1544
10484TIP3    H152867   0.220   5.426  15.998  2.0964  1.4292  0.2009
10484TIP3    H252868   0.314   5.326  15.936 -0.1749 -0.7414  0.1093
10485TIP3   OH252869   3.138   2.179   5.350 -0.0842 -0.7267  0.2549
10485TIP3    H152870   3.054   2.212   5.380  0.3609 -0.8282  1.6925
10485TIP3    H252871   3.123   2.086   5.330 -0.4995 -0.5357 -0.3523
10486TIP3   OH252872   4.568   4.921  11.751  0.5647 -0.3479 -0.5851
10486TIP3    H152873   4.608   4.993  11.702  0.8376  0.2998  0.5683
10486TIP3    H252874   4.618   4.916  11.832  0.1811 -1.4738 -0.4011
10487TIP3   OH252875   3.344   5.607  11.366  0.3005  0.4063 -0.5406
10487TIP3    H152876   3.345   5.697  11.333  0.3188  0.4391 -0.4493
10487TIP3    H252877   3.411   5.606  11.434  0.6375  0.2015 -0.8701
10488TIP3   OH252878   3.459   4.649  16.576  0.3559  0.5197 -0.0847
10488TIP3    H152879   3.542   4.654  16.624 -0.0201 -0.5876  0.7117
10488TIP3    H252880   3.438   4.741  16.556  1.1906  0.9053  0.7171
10489TIP3   OH252881   0.968   6.436  13.108 -0.5057 -0.6964 -0.1383
10489TIP3    H152882   1.027   6.511  13.117 -1.0047  0.1436 -2.7737
10489TIP3    H252883   0.950   6.408  13.197  3.0301 -0.3686  0.8089
10490TIP3   OH252884   5.963   5.686   0.656 -0.5526  0.2709  0.2363
10490TIP3    H152885   5.931   5.699   0.567 -0.5676  0.3995  0.2599
10490TIP3    H252886   6.023   5.612   0.649 -1.0833 -0.1607  0.2488
10491TIP3   OH252887   5.474   3.836   6.509 -0.7548  0.0231  1.4255
10491TIP3    H152888   5.506   3.789   6.432 -0.0922  1.1455  0.9862
10491TIP3    H252889   5.548   3.838   6.568 -0.4604  1.2994  1.0467
10492TIP3   OH252890   3.970   0.464   4.208  0.3770 -0.3811 -0.9740
10492TIP3    H152891   3.966   0.557   4.231  0.5904 -0.8670  1.2746
10492TIP3    H252892   3.992   0.420   4.290 -0.6986 -2.5282 -1.7511
10493TIP3   OH252893   6.318   2.647   5.132 -0.3560 -0.1368  0.3943
10493TIP3    H152894   6.239   2.656   5.187  0.1032  0.9657  0.9109
10493TIP3    H252895   6.376   2.590   5.182  0.0532  0.8501  1.0816
10494TIP3   OH252896   2.617   1.606  15.752  0.1322  0.3527  0.2272
10494TIP3    H152897   2.675   1.657  15.808  0.1670  1.0247 -0.4112
10494TIP3    H252898   2.535   1.655  15.751  0.2175  0.4958 -0.5171
10495TIP3   OH252899   0.892   5.534   4.171 -0.1652 -0.0039  0.0471
10495TIP3    H152900   0.953   5.460   4.179  0.9235  0.8918  0.3876
10495TIP3    H252901   0.900   5.561   4.079  0.3420  0.4265  0.2140
10496TIP3   OH252902   4.288   6.671  12.335  0.2289  0.1998  0.2508
10496TIP3    H152903   4.329   6.587  12.312 -1.8571 -0.2296 -2.4269
10496TIP3    H252904   4.306   6.728  12.260 -0.2291  1.4636  1.0619
10497TIP3   OH252905   1.324   5.057   0.259  0.3546 -0.0828  0.6014
10497TIP3    H152906   1.362   5.131   0.308  0.4974 -0.1484  0.5907
10497TIP3    H252907   1.341   5.079   0.167  0.5009 -0.1843  0.6035
10498TIP3   OH252908   3.969   5.105  15.193  0.0900  0.4274 -0.3163
10498TIP3    H152909   3.985   5.198  15.180  2.5206  0.4741  2.0526
10498TIP3    H252910   4.055   5.064  15.188 -0.7538 -1.5132 -0.0815
10499TIP3   OH252911   6.702   2.382   1.296  0.2233 -0.2274  0.8092
10499TIP3    H152912   6.654   2.300   1.287  0.4679 -0.4520  1.4573
10499TIP3    H252913   6.792   2.360   1.272  0.0943  0.0990 -0.0106
10500TIP3   OH252914   5.753   6.349   0.246 -0.1503 -0.7414 -0.1985
10500TIP3    H152915   5.799   6.283   0.298 -2.0515  0.0563  2.7543
10500TIP3    H252916   5.661   6.323   0.249 -0.5359  0.2314 -1.9198
10501TIP3   OH252917   4.066   2.783   0.019 -0.6217 -0.4320 -0.1363
10501TIP3    H152918   4.142   2.725   0.008  0.2551  0.4380  1.0776
10501TIP3    H252919   4.086   2.859  -0.036 -0.5920 -0.1967  0.1961
10502TIP3   OH252920   5.821   4.056   6.534 -0.4356  0.6028  0.3463
10502TIP3    H152921   5.787   3.968   6.551  0.7970  0.4136  2.2245
10502TIP3    H252922   5.916   4.047   6.540 -0.2201  1.8581 -0.6390
10503TIP3   OH252923   5.306   5.551  16.556 -0.1851  0.3279 -0.3114
10503TIP3    H152924   5.272   5.502  16.631  2.0650 -0.6871  0.1073
10503TIP3    H252925   5.316   5.485  16.487  0.3738  0.7074 -0.5993
10504TIP3   OH252926   4.124   6.610  11.832 -0.0019  0.2105 -0.0998
10504TIP3    H152927   4.184   6.681  11.810  0.1389 -0.1759 -0.9986
10504TIP3    H252928   4.163   6.569  11.909  0.3672  0.5618 -0.0977
10505TIP3   OH252929   6.254   3.753  11.111  0.4086 -0.0500  0.5994
10505TIP3    H152930   6.166   3.724  11.090  0.9818 -0.0301 -2.2060
10505TIP3    H252931   6.312   3.695  11.062  1.8412  1.5478  0.2550
10506TIP3   OH252932   2.744   5.354  13.417 -0.0574 -0.3079 -0.0994
10506TIP3    H152933   2.779   5.314  13.337 -0.5951 -0.0563 -0.4678
10506TIP3    H252934   2.788   5.308  13.488  0.1920 -0.7553 -0.5365
10507TIP3   OH252935   6.625   0.303   3.520  0.2849  0.4809  0.6604
10507TIP3    H152936   6.597   0.297   3.429  0.0260  0.3314  0.7477
10507TIP3    H252937   6.566   0.368   3.559  1.3876  1.7173  0.3564
10508TIP3   OH252938   0.016   2.128  14.677 -0.9020 -0.3665 -0.4925
10508TIP3    H152939  -0.021   2.186  14.743  1.3762  0.0174  0.5545
10508TIP3    H252940   0.013   2.041  14.716 -0.6419 -0.3205 -0.3663
10509TIP3   OH252941   5.128   5.033   2.839 -0.4745 -0.3357 -0.1236
10509TIP3    H152942   5.091   4.977   2.907 -0.1356 -1.5734 -0.9267
10509TIP3    H252943   5.053   5.081   2.803 -0.9241 -1.0057 -0.0868
10510TIP3   OH252944   5.421   5.330   4.459 -0.1601 -0.3263  0.2228
10510TIP3    H152945   5.483   5.284   4.403 -0.1644  0.3224 -0.3296
10510TIP3    H252946   5.470   5.349   4.539  0.2404 -0.1490 -0.0609
10511TIP3   OH252947   6.693   1.099   3.379 -0.2046 -0.3405 -0.1387
10511TIP3    H152948   6.633   1.096   3.454  0.0630 -3.4231  0.1039
10511TIP3    H252949   6.641   1.065   3.306  0.1804  0.5522 -0.8414
10512TIP3   OH252950   6.449   4.829  12.990  0.0326  0.1725 -0.4870
10512TIP3    H152951   6.392   4.822  13.067  0.4817 -0.0386 -0.1703
10512TIP3    H252952   6.460   4.738  12.962  0.9503  0.1277 -0.0022
10513TIP3   OH252953   3.653   1.075  14.502  0.0892  0.6416 -0.3027
10513TIP3    H152954   3.691   0.995  14.538  1.2378  0.9770 -0.7064
10513TIP3    H252955   3.600   1.111  14.572  1.9813  1.0918  0.9717
10514TIP3   OH252956   2.995   3.296  11.256  0.6698  0.2422  0.8112
10514TIP3    H152957   2.980   3.388  11.279  2.6299  0.1817  2.5664
10514TIP3    H252958   3.089   3.290  11.238  0.2191 -0.9884 -1.6551
10515TIP3   OH252959   2.265   4.983  15.821 -0.3858 -0.2310 -0.0391
10515TIP3    H152960   2.219   4.902  15.799 -0.9017  0.2688 -0.8346
10515TIP3    H252961   2.197   5.041  15.857  0.1505 -0.4607  1.4383
10516TIP3   OH252962   0.528   5.365   1.973 -0.9333  0.2600  0.4036
10516TIP3    H152963   0.528   5.450   1.929 -0.9295 -0.1538 -0.3974
10516TIP3    H252964   0.475   5.308   1.917 -0.6324 -0.3685  0.7438
10517TIP3   OH252965   4.951   4.286   3.540  0.1151 -0.5700 -0.0580
10517TIP3    H152966   4.906   4.328   3.467 -0.3890 -1.3911 -0.2272
10517TIP3    H252967   5.040   4.323   3.537 -0.4570  0.9015  0.1520
10518TIP3   OH252968   3.352   2.293   5.836 -0.6599 -0.5474  0.2509
10518TIP3    H152969   3.339   2.285   5.742  0.0789  1.1923 -0.0412
10518TIP3    H252970   3.391   2.210   5.862 -2.6289 -1.8135 -0.6081
10519TIP3   OH252971   1.057   2.283   0.705  0.8933  0.3788  0.0861
10519TIP3    H152972   1.108   2.355   0.741  1.0196 -0.5784  1.9648
10519TIP3    H252973   1.116   2.208   0.707  0.3583 -0.0738 -0.5990
10520TIP3   OH252974   4.252   2.221  10.183  0.2180  0.0720 -0.5653
10520TIP3    H152975   4.257   2.132  10.148 -1.0477 -0.0791 -0.4244
10520TIP3    H252976   4.234   2.209  10.276  1.2373  0.4836 -0.2987
10521TIP3   OH252977   2.477   3.432   2.931  0.3137  0.0019 -0.3044
10521TIP3    H152978   2.564   3.473   2.930  0.9757 -1.2224  1.3913
10521TIP3    H252979   2.417   3.503   2.910  1.6069  1.2667  0.0833
10522TIP3   OH252980   0.543   3.465  12.595  0.1746 -0.0879 -0.0863
10522TIP3    H152981   0.616   3.479  12.536  0.2379  1.1327  0.2451
10522TIP3    H252982   0.584   3.450  12.681  0.0558  0.6907  0.1178
10523TIP3   OH252983   0.817   5.296   2.768  0.2446  0.8492  0.3877
10523TIP3    H152984   0.786   5.216   2.811 -0.6077  1.5791  1.1727
10523TIP3    H252985   0.912   5.284   2.760  0.2850  0.2711  1.6016
10524TIP3   OH252986   4.469   2.374   6.059 -0.3986  0.0660 -0.2183
10524TIP3    H152987   4.493   2.281   6.063  1.3669  0.4917  0.0401
10524TIP3    H252988   4.472   2.404   6.150  1.0962  0.8107 -0.4748
10525TIP3   OH252989   3.322   2.762  11.570  0.2550  0.0654 -0.7865
10525TIP3    H152990   3.278   2.779  11.486 -1.5891 -0.1066  0.0871
10525TIP3    H252991   3.267   2.807  11.635  1.4147 -0.1542  0.3803
10526TIP3   OH252992   3.457   6.434  11.511 -0.1625  0.4120  0.9297
10526TIP3    H152993   3.532   6.374  11.504 -0.6979 -0.2388  0.6689
10526TIP3    H252994   3.468   6.494  11.438 -1.2374 -1.2460 -0.6701
10527TIP3   OH252995   5.684   1.195  13.427  0.1519  0.4566  0.2050
10527TIP3    H152996   5.695   1.201  13.332  1.3476  2.4776  0.4093
10527TIP3    H252997   5.643   1.109  13.441 -0.7206  0.4080 -2.1649
10528TIP3   OH252998   4.140   6.182  14.177  0.6027 -0.3259 -0.6721
10528TIP3    H152999   4.196   6.208  14.103  0.0874  0.7885 -0.6873
10528TIP3    H253000   4.060   6.233  14.166  0.4683 -0.2317  0.5873
10529TIP3   OH253001   3.624   6.647   3.045  0.6268 -0.2884 -0.2554
10529TIP3    H153002   3.543   6.597   3.058  0.1569  0.7565  0.9998
10529TIP3    H253003   3.609   6.695   2.963  0.1443 -0.4125 -0.2451
10530TIP3   OH253004   2.413   5.704  17.209 -0.0506  0.0889 -0.2427
10530TIP3    H153005   2.457   5.654  17.278 -0.9414 -1.4216 -0.7158
10530TIP3    H253006   2.481   5.761  17.173  0.5942  0.4134  1.4153
10531TIP3   OH253007   1.295   6.742  14.039 -0.3282  0.1209 -0.5687
10531TIP3    H153008   1.250   6.692  14.107 -0.5342  0.1794 -0.6623
10531TIP3    H253009   1.378   6.767  14.080 -0.4530  0.1616 -0.3362
10532TIP3   OH253010   2.025   4.204   4.389 -0.3398 -0.9465  0.6647
10532TIP3    H153011   1.953   4.210   4.326 -2.0045  0.3028  2.5842
10532TIP3    H253012   2.104   4.217   4.336 -1.5098 -1.7815 -1.4128
10533TIP3   OH253013   6.287   1.595  11.745  0.4680  0.4491  0.3031
10533TIP3    H153014   6.296   1.640  11.829  0.5300  0.7275  0.1464
10533TIP3    H253015   6.346   1.642  11.686  1.3460 -0.4828  0.4051
10534TIP3   OH253016   0.119   4.047   5.479 -0.1386 -0.3057 -0.3136
10534TIP3    H153017   0.181   3.986   5.519  0.7986  0.0358 -1.2077
10534TIP3    H253018   0.055   3.990   5.435 -0.4615 -0.6563  0.5684
10535TIP3   OH253019   2.458   5.515   5.835 -0.0515  0.3663  0.1469
10535TIP3    H153020   2.532   5.544   5.888  0.4147  0.6972 -0.6656
10535TIP3    H253021   2.472   5.421   5.824 -0.3539  0.2247  0.9094
10536TIP3   OH253022   2.030   3.609   4.079  0.0945  0.4886  0.8093
10536TIP3    H153023   1.940   3.639   4.091 -0.8476 -1.4835 -0.7284
10536TIP3    H253024   2.069   3.674   4.019 -0.9291  0.3410 -0.0480
10537TIP3   OH253025   0.693   6.018  11.689  0.9462  0.5902 -0.3155
10537TIP3    H153026   0.663   6.032  11.778 -0.3939 -0.9413 -0.4819
10537TIP3    H253027   0.614   6.024  11.635  1.0859 -1.9639 -0.9488
10538TIP3   OH253028   2.918   4.777   3.379 -0.3959  0.5027 -0.1659
10538TIP3    H153029   2.842   4.743   3.425 -0.7131 -1.5942 -2.0812
10538TIP3    H253030   2.969   4.699   3.355  1.5338  1.7388 -0.3375
10539TIP3   OH253031   4.275   6.724   5.104  0.8452 -0.1779 -0.3528
10539TIP3    H153032   4.211   6.755   5.168  0.1641 -1.0056 -0.6177
10539TIP3    H253033   4.317   6.803   5.071 -0.6365  0.4417 -0.7922
10540TIP3   OH253034   0.899   6.115   5.257 -0.1926  0.2617 -0.0589
10540TIP3    H153035   0.971   6.074   5.305  0.0013  0.4558 -0.1804
10540TIP3    H253036   0.911   6.209   5.272  0.0553  0.3461 -0.7328
10541TIP3   OH253037   0.195   0.909   3.070  0.7593  0.1625 -0.2887
10541TIP3    H153038   0.168   0.829   3.114 -1.8030  1.0156 -0.1036
10541TIP3    H253039   0.180   0.891   2.977 -0.0351  0.4607 -0.2292
10542TIP3   OH253040   2.878   1.790   1.315 -0.2558  0.5055 -0.1311
10542TIP3    H153041   2.897   1.812   1.223  1.1053  0.6516  0.1588
10542TIP3    H253042   2.912   1.701   1.325 -1.2973  0.1132 -0.0150
10543TIP3   OH253043   6.517   5.729   4.698  0.5499 -0.6074 -0.0134
10543TIP3    H153044   6.573   5.760   4.626  3.1743 -0.0361  2.1153
10543TIP3    H253045   6.575   5.728   4.774 -1.9277 -1.8548  1.9836
10544TIP3   OH253046   2.522   1.686  12.330  0.0536  0.1194 -0.5450
10544TIP3    H153047   2.472   1.611  12.301  0.1460 -0.3052  0.3645
10544TIP3    H253048   2.562   1.659  12.412  1.1045  0.7297 -0.8228
10545TIP3   OH253049   6.728   0.016   1.271  0.5118 -1.0526  0.6384
10545TIP3    H153050   6.686  -0.004   1.188 -0.6256  0.5827  0.7541
10545TIP3    H253051   6.820   0.029   1.250  0.4427 -1.7915 -0.1481
10546TIP3   OH253052   5.697   3.172   3.231 -0.3244 -0.9050  0.2365
10546TIP3    H153053   5.719   3.266   3.231  0.7475 -1.1378  0.7792
10546TIP3    H253054   5.625   3.165   3.168  0.9588 -0.0160 -1.4272
10547TIP3   OH253055   1.340   2.530  11.568  0.1820  0.7670  0.4660
10547TIP3    H153056   1.421   2.570  11.603 -0.2551  1.1875  1.0174
10547TIP3    H253057   1.334   2.563  11.479  3.0639 -2.8601 -1.3492
10548TIP3   OH253058   5.421   4.749   5.404 -0.4181 -0.0184  0.3101
10548TIP3    H153059   5.457   4.712   5.484  0.8863 -0.2940 -0.3768
10548TIP3    H253060   5.466   4.833   5.393 -0.4897 -0.0434 -0.2022
10549TIP3   OH253061   6.313   2.165   2.215  0.6729 -0.3731 -0.5222
10549TIP3    H153062   6.290   2.124   2.131  0.3369 -2.9531  0.7249
10549TIP3    H253063   6.232   2.204   2.246  0.1652 -1.5722 -0.2900
10550TIP3   OH253064   1.127   3.638   1.930 -0.4116  0.2623  0.2517
10550TIP3    H153065   1.199   3.575   1.920 -0.2596  0.3433  0.7955
10550TIP3    H253066   1.048   3.585   1.928 -0.2660 -0.0114  1.1551
10551TIP3   OH253067   0.844   4.561   5.629 -0.7249  0.0458 -0.0209
10551TIP3    H153068   0.819   4.506   5.703  1.9086 -0.4173  0.6141
10551TIP3    H253069   0.864   4.646   5.669 -0.4289  0.1415 -0.3759
10552TIP3   OH253070   6.536   1.480  13.217 -0.0119  0.1584  0.0768
10552TIP3    H153071   6.529   1.567  13.177 -1.6410  0.5463  1.1464
10552TIP3    H253072   6.500   1.421  13.151 -0.9893  0.5760  0.2269
10553TIP3   OH253073   6.651   3.614  11.523 -0.3546 -0.7472  0.4783
10553TIP3    H153074   6.729   3.565  11.497 -0.1558  0.9328 -2.5504
10553TIP3    H253075   6.581   3.576  11.469 -1.1752 -0.6865  1.4728
10554TIP3   OH253076   6.667   5.063   6.239 -0.3519  0.7521  0.2869
10554TIP3    H153077   6.633   4.983   6.279 -1.6218  0.9017 -0.4365
10554TIP3    H253078   6.609   5.078   6.164  0.3919  1.8876 -0.0764
10555TIP3   OH253079   2.018   5.373  12.933 -0.0337 -0.1978  0.1162
10555TIP3    H153080   1.932   5.351  12.968 -0.2519  1.4146  0.6920
10555TIP3    H253081   2.063   5.415  13.006 -0.1208  2.3496 -1.2032
10556TIP3   OH253082   6.180   3.307  14.517  0.7937  0.4238  0.4909
10556TIP3    H153083   6.227   3.226  14.498  0.5078  0.0675  1.2892
10556TIP3    H253084   6.090   3.279  14.534  1.0056  0.7249  2.2801
10557TIP3   OH253085   3.211   2.185  13.763  0.0520 -0.1755  0.0330
10557TIP3    H153086   3.209   2.153  13.853 -0.1803  1.1944  0.5382
10557TIP3    H253087   3.249   2.273  13.769 -1.1379  0.4508 -1.0285
10558TIP3   OH253088   4.555   3.125   1.678 -0.1765 -0.0061  0.1612
10558TIP3    H153089   4.605   3.043   1.676 -0.5968 -0.3589  2.0934
10558TIP3    H253090   4.610   3.188   1.633 -0.5638 -1.6872 -2.9626
10559TIP3   OH253091   6.780   1.827  12.840 -0.0637  0.0242 -0.1910
10559TIP3    H153092   6.853   1.788  12.793 -0.0378 -0.0843 -0.0602
10559TIP3    H253093   6.702   1.788  12.800 -0.0152 -1.1323  0.7756
10560TIP3   OH253094   0.106   2.650  15.949  0.0285  0.1448 -0.7599
10560TIP3    H153095   0.037   2.620  16.008  0.1765 -0.4066 -0.8593
10560TIP3    H253096   0.185   2.603  15.978 -0.3341 -1.8428 -2.7068
10561TIP3   OH253097   4.128   3.578   2.873 -0.0060  0.1788  0.4389
10561TIP3    H153098   4.191   3.626   2.927 -0.3648  2.6516 -1.1661
10561TIP3    H253099   4.181   3.515   2.824  0.7075 -0.0912  1.5357
10562TIP3   OH253100   1.898   1.436   6.073 -0.2090  0.3190 -0.4917
10562TIP3    H153101   1.937   1.396   6.150 -0.5043 -2.0546 -1.4810
10562TIP3    H253102   1.972   1.449   6.013 -0.1080  1.3366 -0.1580
10563TIP3   OH253103   1.081   6.262  16.507  0.5063 -0.5351 -0.0547
10563TIP3    H153104   1.030   6.190  16.544  1.0010 -1.2683 -0.7521
10563TIP3    H253105   1.172   6.233  16.513  0.8282  0.5842  0.8034
10564TIP3   OH253106   4.370   0.076   5.992 -0.1839  0.0151  0.3067
10564TIP3    H153107   4.464   0.080   6.010  0.0039  2.2795 -0.8553
10564TIP3    H253108   4.362   0.023   5.913  0.0816 -0.2090  0.4261
10565TIP3   OH253109   3.228   3.324   2.934  0.6998 -0.1513 -0.5649
10565TIP3    H153110   3.195   3.271   2.862  0.5980 -0.6135 -0.1806
10565TIP3    H253111   3.304   3.369   2.898 -0.2156  0.7780 -1.4078
10566TIP3   OH253112   5.166   4.336  14.405 -0.3864  0.1658 -0.3662
10566TIP3    H153113   5.129   4.279  14.338  0.3321  2.9798 -3.4210
10566TIP3    H253114   5.091   4.387  14.437 -0.2919  0.9278 -1.3240
10567TIP3   OH253115   1.060   2.437   2.543  0.6495 -0.0028  0.6185
10567TIP3    H153116   1.095   2.520   2.575 -0.4257  0.1129  1.5254
10567TIP3    H253117   0.967   2.440   2.562 -0.0913  0.0191 -2.4294
10568TIP3   OH253118   4.693   1.497   3.296 -0.0944  0.0006 -0.4278
10568TIP3    H153119   4.664   1.482   3.386 -0.1034 -1.1255 -0.6085
10568TIP3    H253120   4.737   1.582   3.299 -0.0537 -0.0443  0.6427
10569TIP3   OH253121   3.458   5.437  14.139  0.0726  0.0764  0.5211
10569TIP3    H153122   3.411   5.445  14.222  0.5421 -0.4546  0.8465
10569TIP3    H253123   3.519   5.511  14.140 -1.0103  1.0108 -0.0906
10570TIP3   OH253124   4.756   6.679  12.793  0.1189 -0.0153  0.2584
10570TIP3    H153125   4.662   6.697  12.795  0.0827  0.3989 -2.0445
10570TIP3    H253126   4.793   6.736  12.860 -1.1788  0.3347  0.7206
10571TIP3   OH253127   3.717   0.208   0.647 -0.5494 -0.0240  0.0703
10571TIP3    H153128   3.788   0.150   0.675  0.2154  0.6084 -0.5174
10571TIP3    H253129   3.641   0.150   0.635 -0.0667 -0.7459  0.4321
10572TIP3   OH253130   3.357   5.480   5.311 -0.3947  0.1468 -0.2634
10572TIP3    H153131   3.442   5.517   5.287 -1.2921  1.1521 -2.1754
10572TIP3    H253132   3.316   5.547   5.365  0.5995 -1.0403  2.1412
10573TIP3   OH253133   4.536   6.698  12.129 -0.6095 -0.3166  1.1363
10573TIP3    H153134   4.444   6.705  12.105 -0.6606 -0.6454  1.2257
10573TIP3    H253135   4.575   6.780  12.101 -0.6258 -0.7592 -0.2421
10574TIP3   OH253136   0.590   4.520   3.946  0.0265  0.5545 -0.2025
10574TIP3    H153137   0.504   4.507   3.905 -0.9094  0.4023  1.6497
10574TIP3    H253138   0.640   4.570   3.882 -0.7163 -1.1025 -2.2073
10575TIP3   OH253139   0.793   5.361   0.117  0.3116 -0.0398 -0.0814
10575TIP3    H153140   0.818   5.415   0.042  0.9625 -0.9220 -0.5217
10575TIP3    H253141   0.876   5.325   0.149  0.4056  2.2460  2.6278
10576TIP3   OH253142   4.030   5.918  10.582  0.2139  0.1580 -0.1140
10576TIP3    H153143   3.941   5.892  10.561 -0.0819  1.0181  0.0579
10576TIP3    H253144   4.021   6.000  10.631  1.1604  1.6203 -2.1957
10577TIP3   OH253145   5.527   5.303  11.997  0.4503  0.1377 -0.3160
10577TIP3    H153146   5.547   5.264  11.912 -3.4230 -1.2276 -0.8301
10577TIP3    H253147   5.452   5.360  11.980 -0.4846 -0.2170  2.1199
10578TIP3   OH253148   5.055   0.700  12.510 -0.4938  0.6732  0.6461
10578TIP3    H153149   4.999   0.769  12.477 -1.8361  0.1909  1.8170
10578TIP3    H253150   5.092   0.735  12.591  0.9953  1.0097 -0.1391
10579TIP3   OH253151   2.136   4.492  12.156  0.1638  0.3184  0.1424
10579TIP3    H153152   2.053   4.482  12.202 -0.6489 -1.7878 -1.6151
10579TIP3    H253153   2.193   4.536  12.219 -1.7947  0.4084  1.9649
10580TIP3   OH253154   4.913   1.925   0.577 -1.2147 -0.0805 -0.0495
10580TIP3    H153155   4.877   2.005   0.616 -1.8067  0.2058 -1.1371
10580TIP3    H253156   4.839   1.887   0.529 -0.6024 -0.5934 -0.6023
10581TIP3   OH253157   4.017   0.044  12.790  0.2746  0.0146  0.0520
10581TIP3    H153158   4.045   0.016  12.703  2.2281  0.5445  0.4554
10581TIP3    H253159   4.049   0.134  12.798 -1.2391  0.5239  0.7526
10582TIP3   OH253160   2.894   6.049   5.023 -0.3305  0.2838  0.6281
10582TIP3    H153161   2.930   5.960   5.018 -2.1603 -0.4858  0.1222
10582TIP3    H253162   2.857   6.055   5.111 -0.3503  0.4714  0.6065
10583TIP3   OH253163   2.911   5.617   0.913 -0.2540 -0.4167  0.0639
10583TIP3    H153164   2.906   5.656   1.000 -1.3522 -1.3685  0.4608
10583TIP3    H253165   2.898   5.524   0.928 -1.2131 -0.5097 -1.1777
10584TIP3   OH253166   5.473   1.442   1.276 -0.6265 -0.3541 -0.1221
10584TIP3    H153167   5.544   1.502   1.256  0.9095 -1.9484  0.2270
10584TIP3    H253168   5.397   1.475   1.228  0.3243  1.4460 -0.4292
10585TIP3   OH253169   0.949   4.991   4.416 -0.5845 -0.1548 -0.7713
10585TIP3    H153170   0.886   4.969   4.347  0.1956  1.1077 -1.9412
10585TIP3    H253171   1.008   4.916   4.419 -2.2300 -1.4849  0.5350
10586TIP3   OH253172   6.545   4.240   3.211 -0.0941  0.3317  0.0749
10586TIP3    H153173   6.521   4.225   3.303 -0.8769  0.7607 -0.0529
10586TIP3    H253174   6.559   4.153   3.175 -0.3920  0.1300  0.4434
10587TIP3   OH253175   6.247   0.307   5.582  0.0035 -0.9941  0.1911
10587TIP3    H153176   6.298   0.385   5.605 -0.6492 -0.3559 -0.4416
10587TIP3    H253177   6.287   0.274   5.502 -0.0538 -0.9829  0.1570
10588TIP3   OH253178   4.461   4.672  14.983  0.6817  0.0031  0.4298
10588TIP3    H153179   4.374   4.700  15.012  1.3908  1.0362  1.6764
10588TIP3    H253180   4.471   4.711  14.896 -1.1175 -2.3649 -0.9669
10589TIP3   OH253181   6.510   3.333  12.182 -0.0060  0.1957 -0.8118
10589TIP3    H153182   6.541   3.362  12.268  0.1979  1.8314 -1.3973
10589TIP3    H253183   6.505   3.414  12.130 -2.9153 -0.3368 -1.5055
10590TIP3   OH253184   1.592   1.482  10.376  0.1593 -0.0328 -0.2292
10590TIP3    H153185   1.596   1.510  10.468 -0.7272 -0.9520  0.1087
10590TIP3    H253186   1.561   1.560  10.329  0.7601  0.4910  0.2188
10591TIP3   OH253187   4.905   4.968  10.749  0.2135  0.0019  0.1963
10591TIP3    H153188   4.986   4.975  10.799  1.0833  1.2756 -1.2896
10591TIP3    H253189   4.846   5.032  10.788  0.0287 -0.6701  1.0475
10592TIP3   OH253190   6.067   5.846   5.714  0.2951  0.0137  0.0539
10592TIP3    H153191   6.085   5.940   5.704  2.0504 -0.4395 -1.5165
10592TIP3    H253192   5.971   5.840   5.707  0.2125  1.5994 -0.6994
10593TIP3   OH253193   3.944   0.557   0.465  0.0543 -0.4074  0.0536
10593TIP3    H153194   3.872   0.504   0.432 -2.0752  0.9042  2.1996
10593TIP3    H253195   4.013   0.494   0.487 -0.7218 -1.7938 -1.3208
10594TIP3   OH253196   4.815   1.744   5.559  0.0555  0.1504 -0.0579
10594TIP3    H153197   4.774   1.661   5.534  0.2130 -0.7309  2.3795
10594TIP3    H253198   4.768   1.810   5.508 -0.5451 -1.3455 -1.5409
10595TIP3   OH253199   3.247   2.219   3.794 -0.7305  0.2227  0.3546
10595TIP3    H153200   3.283   2.153   3.734  0.2183 -0.1900  1.3257
10595TIP3    H253201   3.154   2.198   3.800 -0.8058  0.1558 -0.8076
10596TIP3   OH253202   0.461   1.601  11.090 -0.5572  0.5543 -0.2786
10596TIP3    H153203   0.398   1.648  11.035  1.0024  2.7719 -0.2892
10596TIP3    H253204   0.520   1.558  11.028 -0.9274  0.0134 -0.2697
10597TIP3   OH253205   1.073   6.761   3.636  0.8621  0.4167 -0.9427
10597TIP3    H153206   1.006   6.764   3.568 -0.7654 -1.5859  0.4339
10597TIP3    H253207   1.049   6.832   3.696  0.9235  0.7145 -1.2699
10598TIP3   OH253208   5.644   2.043   1.363  0.9774 -0.0637  0.3655
10598TIP3    H153209   5.631   2.102   1.289 -0.4697 -0.6553  0.1164
10598TIP3    H253210   5.597   2.084   1.435 -0.3953 -1.0693  0.0832
10599TIP3   OH253211   3.549   2.243  16.868  0.2454 -0.0743  0.5148
10599TIP3    H153212   3.637   2.252  16.833  0.3015  0.7518  0.8631
10599TIP3    H253213   3.519   2.332  16.884 -0.2027 -0.3914  1.5262
10600TIP3   OH253214   4.028   2.584  12.559  0.3206  0.8736 -0.2999
10600TIP3    H153215   4.022   2.645  12.485 -0.7016  0.0571 -0.9119
10600TIP3    H253216   3.938   2.572  12.588  0.4241 -0.8430 -0.5965
10601TIP3   OH253217   4.520   6.729  16.870  0.1051 -0.1066  0.6571
10601TIP3    H153218   4.449   6.730  16.935  0.7501  2.0781  1.4015
10601TIP3    H253219   4.595   6.693  16.917  0.3860  0.8151  0.9248
10602TIP3   OH253220   2.958   4.114   3.365 -0.4013  0.3415 -0.0311
10602TIP3    H153221   2.923   4.191   3.321 -0.1057 -0.1953 -1.2467
10602TIP3    H253222   2.885   4.080   3.417 -0.7630  0.9803 -0.1158
10603TIP3   OH253223   4.919   4.726  14.874  0.7806 -0.1296 -0.1548
10603TIP3    H153224   4.986   4.667  14.839  1.8235  0.6677  0.4384
10603TIP3    H253225   4.886   4.773  14.797  0.3471 -1.0640 -0.5531
10604TIP3   OH253226   0.275   2.299  15.765 -0.0995  0.2059 -0.8872
10604TIP3    H153227   0.316   2.371  15.814 -1.6416 -0.5785  1.7876
10604TIP3    H253228   0.345   2.237  15.750  0.8972  1.4976 -1.7195
10605TIP3   OH253229   2.882   0.028  13.873 -0.5409  0.0490 -0.3644
10605TIP3    H153230   2.794  -0.006  13.892 -0.4679 -0.5497 -1.0772
10605TIP3    H253231   2.887   0.029  13.778  0.5657 -0.8051 -0.3260
10606TIP3   OH253232   4.977   3.609   0.720 -0.2240  0.1308 -0.0886
10606TIP3    H153233   5.065   3.594   0.685 -1.0430  0.2206 -2.3527
10606TIP3    H253234   4.940   3.522   0.733  0.4833  0.0588  1.8353
10607TIP3   OH253235   3.929   5.950   5.713  0.1766  0.4199 -0.1454
10607TIP3    H153236   4.008   6.003   5.704  0.4293  0.4008  1.6012
10607TIP3    H253237   3.867   6.006   5.760  0.3001 -0.6318  1.3517
10608TIP3   OH253238   3.044   5.405  10.965  0.0781 -0.8506  0.1163
10608TIP3    H153239   2.972   5.421  11.026 -0.1122 -0.0318 -0.3184
10608TIP3    H253240   3.028   5.465  10.892  0.2951 -1.8242 -0.7510
10609TIP3   OH253241   2.075   1.543   0.916 -0.5623 -0.4226 -0.0517
10609TIP3    H153242   2.167   1.529   0.892 -0.3411  0.0615  0.5048
10609TIP3    H253243   2.064   1.638   0.911 -0.7034 -0.3743  1.0574
10610TIP3   OH253244   3.666   2.044   0.013  0.0605 -0.1267  0.1096
10610TIP3    H153245   3.665   2.133   0.046  0.9137  0.5229 -1.5109
10610TIP3    H253246   3.741   2.003   0.057 -0.2266 -0.0172  0.7177
10611TIP3   OH253247   6.143   2.769   1.996  0.6651  0.4608  0.2795
10611TIP3    H153248   6.055   2.797   2.021 -0.0561  1.3803 -2.8854
10611TIP3    H253249   6.134   2.675   1.978  0.1406  0.6710 -0.6258
10612TIP3   OH253250   3.017   0.364  16.032  0.6764  0.1854  0.0191
10612TIP3    H153251   3.016   0.396  16.123  0.3070  0.6520 -0.1481
10612TIP3    H253252   3.092   0.409  15.992 -1.2515  2.8288 -0.9008
10613TIP3   OH253253   2.586   4.675  13.739 -0.3900  0.6105  0.7903
10613TIP3    H153254   2.561   4.754  13.691 -0.7043  0.1867  0.2435
10613TIP3    H253255   2.521   4.609  13.713  2.0621 -0.9894 -1.8741
10614TIP3   OH253256   6.266   4.272   1.755  0.0947  0.5062  0.0146
10614TIP3    H153257   6.264   4.188   1.801 -2.1951  0.2840 -0.3594
10614TIP3    H253258   6.199   4.263   1.687  1.2489  1.9326 -1.3756
10615TIP3   OH253259   0.904   2.264   6.400 -0.2198  0.5301  0.0342
10615TIP3    H153260   0.918   2.339   6.458 -1.4292 -0.4179  1.6360
10615TIP3    H253261   0.809   2.257   6.392 -0.0886  0.4170 -1.8286
10616TIP3   OH253262   4.141   2.245  14.266  0.2008  0.0118 -0.5554
10616TIP3    H153263   4.194   2.174  14.303  0.0637  0.3791  0.3682
10616TIP3    H253264   4.058   2.203  14.244  0.2503 -0.1929 -0.3630
10617TIP3   OH253265   3.115   1.995   3.598  0.1293 -0.0296  0.1766
10617TIP3    H153266   3.199   1.971   3.637 -0.0231 -0.5207  0.2097
10617TIP3    H253267   3.061   1.916   3.607 -0.7196  0.6331  1.2225
10618TIP3   OH253268   1.929   4.964   2.044 -0.2270 -0.2158  0.1355
10618TIP3    H153269   1.865   5.035   2.050 -0.3886 -0.2722 -0.7041
10618TIP3    H253270   1.918   4.914   2.124  0.7578  1.4281  1.3445
10619TIP3   OH253271   0.043   4.087   2.276 -0.0302  0.3154  0.1906
10619TIP3    H153272   0.028   4.026   2.349  1.0954 -0.1140  0.0858
10619TIP3    H253273   0.014   4.172   2.309 -0.4237 -0.0500  0.8018
10620TIP3   OH253274   1.127   5.535   4.802 -0.1737 -0.0520  0.4930
10620TIP3    H153275   1.108   5.628   4.793  0.3206  0.1741  1.6575
10620TIP3    H253276   1.093   5.512   4.889  0.5784 -0.7337  0.6150
10621TIP3   OH253277   5.258   6.158   4.798 -0.1266 -0.1123  0.5916
10621TIP3    H153278   5.227   6.068   4.800 -0.0095 -0.1509  0.9284
10621TIP3    H253279   5.246   6.189   4.888  0.1027  0.1110  0.5480
10622TIP3   OH253280   2.172   5.569   4.754 -0.5391 -0.1190  0.1657
10622TIP3    H153281   2.209   5.494   4.801  0.4786 -0.6526 -1.3969
10622TIP3    H253282   2.086   5.582   4.794 -0.2098 -1.3001  1.3382
10623TIP3   OH253283   1.533   1.946   0.356 -1.1462  0.6482 -0.7348
10623TIP3    H153284   1.481   1.866   0.365 -2.3660  1.3972 -0.9054
10623TIP3    H253285   1.554   1.950   0.262  1.8691 -1.2084 -0.2989
10624TIP3   OH253286   3.966   2.438  15.686 -0.3450  0.0454 -0.1107
10624TIP3    H153287   4.013   2.456  15.605 -0.8552 -0.0227 -0.4242
10624TIP3    H253288   3.899   2.373  15.662 -0.1484 -0.3823  0.4784
10625TIP3   OH253289   5.992   1.728   1.147 -0.0801 -0.3250 -0.5843
10625TIP3    H153290   5.986   1.788   1.072 -1.4183  0.3089 -0.0155
10625TIP3    H253291   5.959   1.780   1.220 -0.4531 -1.5043  0.0926
10626TIP3   OH253292   6.024   3.339  14.837  0.8572  0.4982 -0.1114
10626TIP3    H153293   5.969   3.389  14.777  1.0036  1.6489  0.6698
10626TIP3    H253294   5.969   3.267  14.867  0.6353  0.1806 -1.2538
10627TIP3   OH253295   2.857   2.273  17.109 -0.0359 -0.3157 -0.0136
10627TIP3    H153296   2.928   2.279  17.044 -0.5377 -1.6388 -0.7091
10627TIP3    H253297   2.862   2.184  17.142 -0.6118 -0.0420  0.8322
10628TIP3   OH253298   2.753   6.740  15.631  0.1210 -0.2269  0.4070
10628TIP3    H153299   2.823   6.676  15.620 -0.3463 -0.8267  0.8878
10628TIP3    H253300   2.686   6.716  15.567 -0.5903 -0.9709  1.4035
10629TIP3   OH253301   2.863   0.325   2.165  0.2920 -0.3387  0.6226
10629TIP3    H153302   2.912   0.246   2.189  0.9669 -0.1801 -0.1973
10629TIP3    H253303   2.922   0.397   2.186  1.0382 -0.2054 -1.7268
10630TIP3   OH253304   3.577   0.176  14.040  0.1785 -0.1211 -0.3638
10630TIP3    H153305   3.559   0.235  13.967  2.2752  0.7354 -0.2873
10630TIP3    H253306   3.547   0.224  14.117  0.4559  0.1902 -0.4445
10631TIP3   OH253307   0.042   6.165   5.483  0.1074 -0.6778 -0.5669
10631TIP3    H153308   0.015   6.211   5.404  1.8083 -1.8650 -1.9197
10631TIP3    H253309  -0.035   6.166   5.539 -0.6442  1.6755 -1.5053
10632TIP3   OH253310   2.503   1.264   5.589  0.3628  0.0352  0.4157
10632TIP3    H153311   2.538   1.329   5.649  0.4990  1.2721 -0.9486
10632TIP3    H253312   2.572   1.251   5.524 -0.6377  0.4996 -0.7830
10633TIP3   OH253313   3.420   2.590  12.254  0.4100 -0.2069  0.7675
10633TIP3    H153314   3.512   2.575  12.275  0.2418 -1.7157  0.5359
10633TIP3    H253315   3.397   2.671  12.300  2.0553  0.6426  0.1585
10634TIP3   OH253316   3.421   3.160  17.203  0.0230 -0.4977  0.1896
10634TIP3    H153317   3.466   3.079  17.178  1.9713  0.8541 -0.9470
10634TIP3    H253318   3.434   3.219  17.129  0.0658  1.3909  1.6169
10635TIP3   OH253319   6.425   4.900   5.173 -0.4694  0.7472  0.0780
10635TIP3    H153320   6.508   4.856   5.190 -1.4206 -1.4353 -0.5920
10635TIP3    H253321   6.431   4.982   5.222  1.7471  0.2889  0.6740
10636TIP3   OH253322   4.688   1.547  12.939  0.6042  0.3842 -0.2668
10636TIP3    H153323   4.755   1.484  12.964 -0.5285 -1.2972 -1.2347
10636TIP3    H253324   4.704   1.623  12.995  0.8746 -1.4480  2.3178
10637TIP3   OH253325   4.978   0.945  16.366 -0.1180  0.3506  0.2416
10637TIP3    H153326   4.930   0.992  16.434 -0.4948 -1.3270  1.1964
10637TIP3    H253327   4.967   0.852  16.389  2.3425 -0.1620 -0.3378
10638TIP3   OH253328   0.936   4.785  15.841 -0.2573 -0.1026 -0.4012
10638TIP3    H153329   0.934   4.808  15.748  1.3610 -0.1705 -0.4662
10638TIP3    H253330   0.863   4.723  15.850  0.9286 -1.8761 -2.1289
10639TIP3   OH253331   3.761   0.345  11.455 -0.2582 -0.5112  0.5367
10639TIP3    H153332   3.814   0.339  11.535  0.9006  2.1657  0.0844
10639TIP3    H253333   3.671   0.358  11.487  0.0688 -0.2921  1.4149
10640TIP3   OH253334   0.999   4.120  13.371 -0.7770 -0.2736 -0.5701
10640TIP3    H153335   1.031   4.084  13.454 -1.4111 -0.8339 -0.5573
10640TIP3    H253336   1.069   4.177  13.341  0.6240 -2.1151 -0.9777
10641TIP3   OH253337   3.965   6.428  11.718 -0.6567  0.3427 -0.4637
10641TIP3    H153338   3.889   6.476  11.687 -0.9331  0.6813  0.6938
10641TIP3    H253339   4.019   6.493  11.763 -0.7937 -0.2996  0.6845
10642TIP3   OH253340   2.789   6.647  14.245 -0.9509  0.1519 -0.0866
10642TIP3    H153341   2.765   6.704  14.172 -0.3791  0.1452 -0.2884
10642TIP3    H253342   2.845   6.581  14.205 -0.6982  0.1060  0.3443
10643TIP3   OH253343   2.651   1.388  11.227  0.3421  0.2415 -0.0584
10643TIP3    H153344   2.673   1.417  11.316  0.4143 -1.3379  0.4710
10643TIP3    H253345   2.736   1.378  11.184  0.2897  1.4578 -0.4780
10644TIP3   OH253346   3.751   4.087  13.675 -0.5401  0.0765 -0.0584
10644TIP3    H153347   3.778   4.151  13.610 -1.9480  0.0455 -0.7127
10644TIP3    H253348   3.779   4.003  13.639  0.8732  0.2418  0.5721
10645TIP3   OH253349   0.627   5.074  12.231 -0.9303  0.3674  0.1780
10645TIP3    H153350   0.583   5.057  12.315 -0.9757 -0.8039 -0.0670
10645TIP3    H253351   0.692   5.004  12.223 -1.2145  0.2100 -0.9565
10646TIP3   OH253352   4.182   4.930  15.222  0.1893 -0.2298 -0.4926
10646TIP3    H153353   4.221   4.968  15.301  1.0486 -1.1795 -0.4409
10646TIP3    H253354   4.118   4.867  15.255 -0.6627  0.5648 -0.5776
10647TIP3   OH253355   4.484   5.277  13.005  0.1656  0.2675  0.3958
10647TIP3    H153356   4.492   5.235  12.919  0.8441 -0.9826  1.0408
10647TIP3    H253357   4.409   5.336  12.996 -0.4395 -0.6278 -0.7443
10648TIP3   OH253358   5.351   2.764   1.745  0.0784  0.5097 -0.6537
10648TIP3    H153359   5.395   2.795   1.665  0.6403 -0.4224 -0.7130
10648TIP3    H253360   5.267   2.809   1.744  0.9129  2.1414 -0.6674
10649TIP3   OH253361   1.674   2.108   0.104 -0.5509  0.3630 -0.2353
10649TIP3    H153362   1.585   2.138   0.085 -0.0558  1.9238 -0.1993
10649TIP3    H253363   1.690   2.037   0.042 -0.9136  1.7663 -2.0081
10650TIP3   OH253364   2.824   3.985   1.147 -0.3232  0.2439 -0.0072
10650TIP3    H153365   2.834   3.965   1.241  0.6554 -0.3127 -0.2148
10650TIP3    H253366   2.909   4.023   1.123  0.0220 -1.0992 -1.0208
10651TIP3   OH253367   5.705   3.253   2.194  0.0857 -0.5142  0.2000
10651TIP3    H153368   5.697   3.295   2.280 -1.9029  0.7962 -0.5646
10651TIP3    H253369   5.731   3.163   2.214 -3.3613 -1.2158  2.4724
10652TIP3   OH253370   1.277   1.425  14.325  0.0223  0.0672  0.2798
10652TIP3    H153371   1.208   1.488  14.347 -0.0828 -0.2173  0.7731
10652TIP3    H253372   1.332   1.471  14.261 -0.2516  0.5324  0.3761
10653TIP3   OH253373   3.400   5.729   4.433  0.4258 -0.4903 -0.3700
10653TIP3    H153374   3.462   5.686   4.374 -2.1378 -3.0101 -1.4053
10653TIP3    H253375   3.366   5.659   4.488 -1.4789  0.8214  0.2173
10654TIP3   OH253376   1.738   3.058  16.164 -0.2937 -0.1719  0.1829
10654TIP3    H153377   1.688   3.026  16.088 -2.0972  0.9190  0.8410
10654TIP3    H253378   1.830   3.053  16.136 -0.8888  0.0107 -2.0142
10655TIP3   OH253379   4.770   5.766  15.616  0.3476 -0.0049  0.0315
10655TIP3    H153380   4.695   5.824  15.626 -0.1404 -0.7826  0.9736
10655TIP3    H253381   4.748   5.710  15.541  1.0763  1.3641 -1.2689
10656TIP3   OH253382   5.215   0.890   0.780  0.3619 -0.2436  0.0559
10656TIP3    H153383   5.302   0.866   0.749  0.2209 -1.5173  0.5653
10656TIP3    H253384   5.160   0.888   0.702  0.2444 -2.2603  0.1312
10657TIP3   OH253385   0.915   1.864  14.376 -0.0620 -0.5916 -0.3845
10657TIP3    H153386   0.916   1.851  14.281 -0.4645 -1.1743 -0.3161
10657TIP3    H253387   0.838   1.816  14.406 -0.9807  1.0846  0.0336
10658TIP3   OH253388   1.482   6.684  11.594  0.1131  0.5750  0.2081
10658TIP3    H153389   1.472   6.749  11.524 -0.7179  0.8681  0.5826
10658TIP3    H253390   1.552   6.719  11.649  0.0308  0.8870  0.1162
10659TIP3   OH253391   2.221   0.706  12.005  0.1972  0.3999 -0.0304
10659TIP3    H153392   2.156   0.737  12.067 -0.5046  0.9108 -0.9977
10659TIP3    H253393   2.247   0.620  12.039  0.3564  0.9774  1.3364
10660TIP3   OH253394   6.286   4.527  12.514  0.6165 -0.4333  0.1198
10660TIP3    H153395   6.352   4.569  12.459  0.2943 -1.8815 -1.4792
10660TIP3    H253396   6.222   4.596  12.532  0.6084  0.0655 -1.5837
10661TIP3   OH253397   3.201   3.851  13.440 -0.1257 -0.3658  0.3256
10661TIP3    H153398   3.114   3.871  13.405  0.3409 -2.8273 -2.6162
10661TIP3    H253399   3.185   3.830  13.532 -2.5770 -0.3605 -0.0211
10662TIP3   OH253400   0.402   2.543   6.200  0.0356  0.0998 -0.1773
10662TIP3    H153401   0.402   2.638   6.214  0.2423 -0.2879  3.2810
10662TIP3    H253402   0.309   2.519   6.198 -0.0140  0.2204  0.4900
10663TIP3   OH253403   3.903   5.793  15.800 -0.0721 -0.1696 -0.6408
10663TIP3    H153404   3.920   5.825  15.889 -0.1374 -0.5638 -0.4889
10663TIP3    H253405   3.872   5.871  15.753 -0.3130 -0.0244 -0.2473
10664TIP3   OH253406   2.601   2.613   4.466  0.1641  0.5930 -0.8216
10664TIP3    H153407   2.507   2.594   4.468 -0.1949  2.2529 -0.5827
10664TIP3    H253408   2.627   2.613   4.558  0.0033  1.8760 -0.7639
10665TIP3   OH253409   3.945   0.443  16.147 -0.3931 -0.0873 -0.1340
10665TIP3    H153410   3.853   0.445  16.173  0.2736 -0.9128  2.5975
10665TIP3    H253411   3.958   0.526  16.101 -2.6209 -0.2232 -1.1533
10666TIP3   OH253412   1.526   4.746  15.686 -0.3503  0.3322  0.3949
10666TIP3    H153413   1.525   4.738  15.781  1.7215  1.3230  0.5571
10666TIP3    H253414   1.528   4.656  15.654  0.5236 -0.0035  1.3505
10667TIP3   OH253415   2.583   6.094   5.751 -0.5053 -0.3334 -0.5639
10667TIP3    H153416   2.600   6.048   5.833  1.3181  0.2898 -0.5559
10667TIP3    H253417   2.598   6.186   5.771 -0.9728 -0.0630 -1.3756
10668TIP3   OH253418   1.057   0.574   0.137  0.3461 -0.2894 -0.4002
10668TIP3    H153419   1.104   0.494   0.113  1.2278 -0.3981  1.5354
10668TIP3    H253420   1.121   0.644   0.125 -0.1509  0.0373 -1.2377
10669TIP3   OH253421   6.564   5.944   6.261  0.0964  0.0159 -0.6367
10669TIP3    H153422   6.639   5.888   6.240  1.3782  1.7568 -0.9843
10669TIP3    H253423   6.594   6.032   6.238 -1.6089  0.9235  0.4662
10670TIP3   OH253424   4.017   4.991   4.871 -0.2506 -0.5189 -0.1189
10670TIP3    H153425   4.022   4.914   4.814 -0.2876 -0.7413  0.1751
10670TIP3    H253426   4.069   5.058   4.825  2.4566 -1.6530  1.0660
10671TIP3   OH253427   2.061   3.725  16.034 -0.0245 -0.0524  0.2485
10671TIP3    H153428   2.134   3.670  16.006 -0.5551 -1.5908  1.7173
10671TIP3    H253429   1.983   3.671  16.019 -0.6900  0.7976  0.5436
10672TIP3   OH253430   6.582   0.331   3.233 -0.1199  0.1617 -0.3909
10672TIP3    H153431   6.676   0.335   3.217 -0.0931  1.7863  0.0051
10672TIP3    H253432   6.546   0.405   3.184 -0.8350  1.2406  1.6750
10673TIP3   OH253433   1.235   2.487  12.828  0.3138 -0.2110 -0.0531
10673TIP3    H153434   1.251   2.562  12.771 -2.1893  0.5680  0.1467
10673TIP3    H253435   1.257   2.411  12.774  0.1653  0.5777 -1.2678
10674TIP3   OH253436   1.177   0.507   4.492 -0.7002  0.7889  0.2126
10674TIP3    H153437   1.255   0.558   4.471 -0.1939  0.1056  0.4199
10674TIP3    H253438   1.200   0.417   4.471 -1.6252  0.6444 -0.2535
10675TIP3   OH253439   0.470   1.236   3.950  0.0242  0.2257  0.8678
10675TIP3    H153440   0.505   1.228   4.038  0.2346 -0.8458  0.6966
10675TIP3    H253441   0.547   1.242   3.893 -0.0947 -0.0699  0.6730
10676TIP3   OH253442   2.098   5.276   5.059  0.2555 -0.0394  0.3651
10676TIP3    H153443   2.157   5.326   5.002 -0.3246  0.4849  0.2080
10676TIP3    H253444   2.124   5.300   5.148 -0.6045  1.2927  0.2937
10677TIP3   OH253445   3.316   3.482   1.041 -0.5463 -0.2175  0.1649
10677TIP3    H153446   3.238   3.526   1.008 -0.9154  0.1904  1.4885
10677TIP3    H253447   3.388   3.542   1.022 -0.2734 -1.2114 -2.3435
10678TIP3   OH253448   5.474   4.256  11.961 -1.0079  1.0463  0.7944
10678TIP3    H153449   5.427   4.193  11.906 -1.4186  0.6312  1.6008
10678TIP3    H253450   5.534   4.202  12.012 -0.9361  1.3778  1.0644
10679TIP3   OH253451   0.079   0.706  16.823 -0.0990  0.8056  0.3810
10679TIP3    H153452   0.065   0.791  16.783 -1.7187  0.5462  0.3187
10679TIP3    H253453   0.059   0.643  16.754 -2.1719  0.3674  1.3008
10680TIP3   OH253454   2.897   3.312   1.096 -0.0512 -0.1793 -0.5088
10680TIP3    H153455   2.904   3.264   1.179 -2.2553 -0.3152 -0.3538
10680TIP3    H253456   2.962   3.270   1.039 -0.0871 -1.5995  0.4424
10681TIP3   OH253457   5.254   4.408   0.331  0.4409  0.3763  0.1000
10681TIP3    H153458   5.181   4.377   0.277  1.4553 -2.8059  0.3682
10681TIP3    H253459   5.231   4.381   0.420  2.4657 -1.9656  0.0032
10682TIP3   OH253460   1.088   6.358   4.198 -0.3823 -0.4812  0.5646
10682TIP3    H153461   1.004   6.351   4.154  0.1877 -1.9568 -0.3631
10682TIP3    H253462   1.119   6.268   4.205  1.1804  0.0370  0.7627
10683TIP3   OH253463   1.265   5.084   4.023  0.5018 -0.1624 -0.2165
10683TIP3    H153464   1.258   5.027   4.099  3.0664 -1.1300 -0.5969
10683TIP3    H253465   1.248   5.026   3.948  0.2703  0.2500 -0.4862
10684TIP3   OH253466   6.275   2.608   0.490 -0.2088  0.3378  0.5625
10684TIP3    H153467   6.349   2.593   0.550  0.0963  0.8054  0.3085
10684TIP3    H253468   6.308   2.672   0.427 -0.9054  0.7044  0.5694
10685TIP3   OH253469   5.822   6.742  13.232 -0.2563 -0.2942 -0.0779
10685TIP3    H153470   5.785   6.655  13.213 -0.7763 -0.2619  0.7402
10685TIP3    H253471   5.805   6.755  13.325  1.2092  0.0289  0.1686
10686TIP3   OH253472   3.142   3.946  16.611  0.8244 -0.4122  0.0134
10686TIP3    H153473   3.215   3.961  16.551  0.8888 -2.9893 -0.6886
10686TIP3    H253474   3.185   3.923  16.694  0.7545  0.9642  0.4449
10687TIP3   OH253475   0.960   1.105  12.862 -0.6954 -0.3073  0.1130
10687TIP3    H153476   1.007   1.188  12.874 -2.0299  0.9302 -2.5076
10687TIP3    H253477   0.962   1.089  12.768  0.4234 -3.8925  0.5885
10688TIP3   OH253478   3.312   3.961   2.254  0.3459  0.1934 -0.1576
10688TIP3    H153479   3.382   3.984   2.193  0.9726 -0.6467  0.2335
10688TIP3    H253480   3.288   3.871   2.230 -0.1130  0.2284  0.1628
10689TIP3   OH253481   5.175   5.559  13.338  0.2439 -0.5313  0.0832
10689TIP3    H153482   5.219   5.579  13.420 -0.1384 -1.2724  0.4828
10689TIP3    H253483   5.184   5.638  13.285  2.3064 -0.7492  0.0271
10690TIP3   OH253484   3.231   0.727   5.088  0.1148  0.0539  0.1656
10690TIP3    H153485   3.301   0.781   5.124  1.2172 -0.1779 -1.5140
10690TIP3    H253486   3.192   0.684   5.164  0.9170  1.2154  1.2635
10691TIP3   OH253487   5.042   2.672  15.804  0.3139 -0.2978 -0.0758
10691TIP3    H153488   5.020   2.641  15.716  1.0892 -0.3629 -0.2599
10691TIP3    H253489   5.099   2.604  15.839  1.0661  0.3439 -0.0292
10692TIP3   OH253490   5.656   3.572   4.418 -0.3548  0.2175  0.0866
10692TIP3    H153491   5.571   3.531   4.399 -0.7559  0.5146  1.1345
10692TIP3    H253492   5.656   3.582   4.513  0.6115  0.7670  0.0338
10693TIP3   OH253493   6.655   4.855   3.145 -0.3456 -0.2866 -0.5252
10693TIP3    H153494   6.677   4.768   3.177 -1.0096 -0.7679 -1.3287
10693TIP3    H253495   6.734   4.886   3.101  0.0730 -0.2386  0.2398
10694TIP3   OH253496   4.681   2.517   5.456 -0.1106  0.2601  0.0699
10694TIP3    H153497   4.695   2.465   5.536 -0.8534 -1.0596 -0.6229
10694TIP3    H253498   4.749   2.584   5.459  0.8984 -0.7584  1.0094
10695TIP3   OH253499   3.581   6.224   5.075 -0.2027 -0.1981 -0.9014
10695TIP3    H153500   3.647   6.184   5.131 -0.8407 -1.3469 -0.9496
10695TIP3    H253501   3.538   6.151   5.031 -3.0521  0.2389  0.8180
10696TIP3   OH253502   2.878   5.868   5.958  0.4983 -0.1579  0.2159
10696TIP3    H153503   2.924   5.887   6.039 -0.0785  1.7347  0.1327
10696TIP3    H253504   2.787   5.894   5.975  0.3689  0.2498 -1.0241
10697TIP3   OH253505   0.180   2.389  16.496 -0.0075 -1.0889 -0.1840
10697TIP3    H153506   0.135   2.473  16.504 -0.1291 -1.1646 -0.0726
10697TIP3    H253507   0.217   2.390  16.408  0.9059 -0.4635  0.1858
10698TIP3   OH253508   2.274   2.409   2.257  0.1113 -0.2591 -0.2539
10698TIP3    H153509   2.230   2.387   2.175 -0.8436  0.7343 -0.0361
10698TIP3    H253510   2.329   2.484   2.235 -1.0022  0.7306  0.2315
10699TIP3   OH253511   1.500   0.452   2.157 -0.4209 -0.2717  0.2674
10699TIP3    H153512   1.495   0.545   2.179  1.2432 -0.3157  0.9599
10699TIP3    H253513   1.535   0.411   2.236 -0.6814 -1.4285 -0.2020
10700TIP3   OH253514   0.656   3.662   0.242 -0.3212 -0.0038 -0.2595
10700TIP3    H153515   0.567   3.646   0.210 -0.9378 -1.8603  2.1128
10700TIP3    H253516   0.663   3.758   0.243 -1.3296  0.1841 -2.7951
10701TIP3   OH253517   5.931   2.513   0.251  0.2318 -0.1606 -0.1979
10701TIP3    H153518   5.990   2.439   0.265  0.5930  0.2961  0.8481
10701TIP3    H253519   5.889   2.525   0.337 -2.8145 -1.6529 -1.3278
10702TIP3   OH253520   0.269   0.185  15.377 -0.3854 -0.5800  0.2193
10702TIP3    H153521   0.213   0.261  15.391 -0.5274 -0.0390 -2.5680
10702TIP3    H253522   0.216   0.126  15.324  0.2796 -1.9283  1.0089
10703TIP3   OH253523   1.618   3.008   5.576  0.3733 -0.4786 -0.1919
10703TIP3    H153524   1.529   2.999   5.544  0.3936 -2.6636  0.1667
10703TIP3    H253525   1.673   2.985   5.501  0.6629  0.8842 -0.4192
10704TIP3   OH253526   1.822   1.940  16.300 -0.0741 -0.0263  0.3221
10704TIP3    H153527   1.759   1.901  16.240  1.0547 -0.5690 -0.5440
10704TIP3    H253528   1.893   1.971  16.244 -1.0855  3.8001  0.8648
10705TIP3   OH253529   5.097   5.006  16.599  0.4077  0.4157 -0.3579
10705TIP3    H153530   5.080   5.056  16.678 -2.6958 -2.0280  0.7619
10705TIP3    H253531   5.039   5.045  16.533  0.0421  0.0264 -0.2713
10706TIP3   OH253532   4.353   1.510   3.688  0.3966  0.1466 -0.5322
10706TIP3    H153533   4.271   1.554   3.667 -0.3320 -1.2673 -0.7403
10706TIP3    H253534   4.378   1.545   3.773 -1.5456 -0.9241  0.5455
10707TIP3   OH253535   1.663   6.056   5.422 -0.1622 -0.3667 -0.4745
10707TIP3    H153536   1.725   6.117   5.461 -0.5775 -0.3138  0.1235
10707TIP3    H253537   1.663   5.981   5.481 -0.7153 -0.3344 -0.4279
10708TIP3   OH253538   2.157   0.332  14.152 -0.3841 -0.1260 -0.1987
10708TIP3    H153539   2.184   0.257  14.100  1.3112 -0.2894  0.8314
10708TIP3    H253540   2.173   0.306  14.243 -1.1668  0.9561  0.2856
10709TIP3   OH253541   1.082   5.252   0.188 -0.2469  0.2541  0.6982
10709TIP3    H153542   1.164   5.300   0.175 -0.9436  1.1424 -0.7176
10709TIP3    H253543   1.076   5.193   0.113 -1.0577  0.4424  0.5995
10710TIP3   OH253544   3.015   6.085   2.217  0.0925 -0.3327  0.1594
10710TIP3    H153545   2.920   6.085   2.207 -0.1927 -5.2762  0.3790
10710TIP3    H253546   3.049   6.082   2.128  0.1119  1.0102  0.0945
10711TIP3   OH253547   1.148   1.967  14.313  0.1566 -0.0127 -0.2819
10711TIP3    H153548   1.076   1.932  14.366  0.4607 -0.1194  0.0606
10711TIP3    H253549   1.109   2.040  14.266 -0.2118 -0.1501 -0.1924
10712TIP3   OH253550   2.435   5.132   2.655 -0.2347  0.6000 -0.1576
10712TIP3    H153551   2.464   5.202   2.597 -0.9631 -0.5504 -1.9974
10712TIP3    H253552   2.509   5.118   2.714  0.3392  2.1517 -0.4533
10713TIP3   OH253553   1.756   0.112  11.409  0.2101 -0.4127 -0.2678
10713TIP3    H153554   1.701   0.037  11.387 -0.9711  0.5987 -0.8226
10713TIP3    H253555   1.718   0.186  11.361  1.6033  0.4675 -0.0762
10714TIP3   OH253556   2.671   5.340  13.008  0.1913  0.5488 -0.6345
10714TIP3    H153557   2.720   5.417  12.979  2.6297 -1.0022 -0.8913
10714TIP3    H253558   2.730   5.293  13.067 -0.3579 -2.1564 -2.0407
10715TIP3   OH253559   5.342   1.891  11.344 -0.0409 -0.6274  0.8109
10715TIP3    H153560   5.307   1.803  11.329 -1.8687  0.2329 -0.4799
10715TIP3    H253561   5.312   1.941  11.268  0.3253  1.2742  1.8617
10716TIP3   OH253562   1.609   0.707   3.094  0.0253  0.0765 -0.0993
10716TIP3    H153563   1.662   0.754   3.030 -0.9456  0.5719 -0.5568
10716TIP3    H253564   1.521   0.741   3.082 -0.7108 -1.8192 -0.4118
10717TIP3   OH253565   5.471   0.318  14.252  0.0576 -0.0578  0.0542
10717TIP3    H153566   5.566   0.316  14.264 -0.0589 -1.3455  0.9692
10717TIP3    H253567   5.436   0.300  14.339 -0.9897 -1.7240 -0.6744
10718TIP3   OH253568   6.362   2.253  15.030  0.0979 -0.1974  0.2315
10718TIP3    H153569   6.416   2.246  14.951  2.4220 -1.3868  1.8222
10718TIP3    H253570   6.352   2.348  15.043  0.8597  0.0342 -0.7300
10719TIP3   OH253571   5.764   3.276  12.437  0.3125  0.0949 -0.3231
10719TIP3    H153572   5.717   3.339  12.490 -0.2757 -0.9913  0.4829
10719TIP3    H253573   5.823   3.232  12.498  0.4744 -0.3607 -0.7949
10720TIP3   OH253574   4.649   0.331   4.724  0.5431 -0.3750 -0.8198
10720TIP3    H153575   4.571   0.279   4.708  0.6151 -0.3148 -1.3707
10720TIP3    H253576   4.677   0.361   4.638  1.8721 -1.3969 -0.7788
10721TIP3   OH253577   2.643   6.251  11.729  0.3790 -0.3475 -0.3670
10721TIP3    H153578   2.660   6.334  11.772  1.0327 -1.0335  0.7603
10721TIP3    H253579   2.618   6.274  11.640  1.4057  1.0066 -0.3289
10722TIP3   OH253580   4.209   4.852   5.105 -0.8943  0.1184 -0.2245
10722TIP3    H153581   4.226   4.930   5.053 -1.7569  0.3790 -0.1218
10722TIP3    H253582   4.230   4.779   5.046  2.5928  0.3364  0.5150
10723TIP3   OH253583   0.510   6.138   3.565  0.2643 -0.6479 -0.4521
10723TIP3    H153584   0.581   6.078   3.540  0.1206 -0.0634 -2.4090
10723TIP3    H253585   0.480   6.176   3.483 -0.3952  1.3099  0.6188
10724TIP3   OH253586   2.633   5.342  10.774  0.3736 -0.6447 -0.2589
10724TIP3    H153587   2.682   5.421  10.799  1.0979 -0.4866 -2.0297
10724TIP3    H253588   2.681   5.270  10.816  0.3580 -0.2492  0.4576
10725TIP3   OH253589   5.411   1.576   3.535  0.0326  0.6720 -0.1335
10725TIP3    H153590   5.492   1.561   3.585  0.3762 -1.7365 -1.2823
10725TIP3    H253591   5.417   1.668   3.508  3.0780  0.2438 -1.2845
10726TIP3   OH253592   1.787   5.711   6.214  0.1251  0.2018 -0.0549
10726TIP3    H153593   1.837   5.646   6.164  0.8695 -0.5144  1.5242
10726TIP3    H253594   1.696   5.682   6.207 -0.1506  1.4628 -2.8829
10727TIP3   OH253595   3.621   3.543   2.092  0.2817  0.4676 -0.4178
10727TIP3    H153596   3.587   3.461   2.057 -0.3912  0.1023  1.0355
10727TIP3    H253597   3.587   3.610   2.033  1.4673 -0.3118 -2.0769
10728TIP3   OH253598   1.044   2.926   4.156  0.8259  0.6557  0.5494
10728TIP3    H153599   1.087   2.887   4.080  0.2580  0.5362  0.2905
10728TIP3    H253600   0.963   2.876   4.166  1.2093  0.2047  1.6477
10729TIP3   OH253601   6.173   3.086   3.280 -0.3595  0.2296 -0.0243
10729TIP3    H153602   6.095   3.117   3.327 -0.1666 -0.6708  0.9167
10729TIP3    H253603   6.139   3.058   3.195 -1.5101 -2.2819  1.1533
10730TIP3   OH253604   6.263   3.008   1.901  0.8111 -0.6486 -0.1375
10730TIP3    H153605   6.230   2.923   1.930 -1.6134  0.1677 -0.3036
10730TIP3    H253606   6.206   3.033   1.829  0.7235  1.6132  0.6433
10731TIP3   OH253607   4.136   6.026  11.756 -0.0264  0.2019 -0.0333
10731TIP3    H153608   4.137   5.930  11.756 -0.7436  0.1634 -1.3605
10731TIP3    H253609   4.223   6.051  11.786  0.0555 -0.8595  0.6648
10732TIP3   OH253610   0.668   2.665   3.952  0.1834  0.1392 -0.5941
10732TIP3    H153611   0.738   2.602   3.940 -0.2491 -0.4880  0.0854
10732TIP3    H253612   0.634   2.647   4.040 -0.4273  0.8298 -0.6767
10733TIP3   OH253613   3.345   5.483   2.012 -0.4950  0.1076 -0.3778
10733TIP3    H153614   3.411   5.522   1.955  0.8592 -0.6361  0.6382
10733TIP3    H253615   3.381   5.398   2.036 -2.9328 -1.4211 -1.7444
10734TIP3   OH253616   1.020   2.289   4.406 -0.3837 -0.1673 -0.2175
10734TIP3    H153617   1.109   2.286   4.371 -1.1505  0.7168 -2.4628
10734TIP3    H253618   1.031   2.302   4.500  1.8437  0.1455 -0.4637
10735TIP3   OH253619   5.883   3.696   1.006 -0.2055 -0.2000 -0.5469
10735TIP3    H153620   5.837   3.737   1.079  0.4495 -0.1084 -0.1735
10735TIP3    H253621   5.922   3.617   1.044 -1.1470 -0.9742 -1.1734
10736TIP3   OH253622   3.474   0.155   4.197  0.2330  0.3256 -0.1376
10736TIP3    H153623   3.512   0.067   4.198  0.6140  0.4473  2.4411
10736TIP3    H253624   3.384   0.142   4.228 -0.6486  0.5587 -2.3930
10737TIP3   OH253625   2.015   4.136   0.464 -0.6929  0.1277  0.0885
10737TIP3    H153626   1.958   4.201   0.505 -0.5046  0.3514 -0.0065
10737TIP3    H253627   1.996   4.142   0.371 -2.0144 -1.2287  0.2341
10738TIP3   OH253628   3.397   3.676  15.486 -0.2098 -0.0988  0.6933
10738TIP3    H153629   3.394   3.696  15.580 -1.3148  1.5963  0.3502
10738TIP3    H253630   3.323   3.617  15.473  0.9386 -1.6769  1.1364
10739TIP3   OH253631   5.722   4.197  17.151 -0.1080  0.4455 -0.4121
10739TIP3    H153632   5.798   4.161  17.198 -0.4729 -1.1348 -0.9660
10739TIP3    H253633   5.746   4.287  17.133  1.6433 -0.0057 -0.5475
10740TIP3   OH253634   4.748   0.367   4.469  0.2602 -0.0847  0.7920
10740TIP3    H153635   4.730   0.444   4.415 -0.5755 -0.0416  1.1262
10740TIP3    H253636   4.716   0.293   4.418 -1.2437  0.0235  1.5322
10741TIP3   OH253637   3.303   2.454  11.442 -0.2639  0.1632  0.5359
10741TIP3    H153638   3.259   2.533  11.410  1.2519  0.8618  0.1001
10741TIP3    H253639   3.383   2.485  11.483 -0.6063 -1.0029  2.2120
10742TIP3   OH253640   5.614   6.781   3.564 -0.4536 -0.1375 -0.4936
10742TIP3    H153641   5.594   6.687   3.567  0.2047 -0.3319 -1.4928
10742TIP3    H253642   5.698   6.789   3.609  0.0338 -0.2075 -1.3669
10743TIP3   OH253643   1.732   3.020   6.403 -0.1514 -0.2074  0.0642
10743TIP3    H153644   1.648   2.987   6.371  0.1392  0.7815 -1.8565
10743TIP3    H253645   1.787   2.942   6.410 -0.7469 -0.6594 -0.2151
10744TIP3   OH253646   3.794   2.010   3.146  0.0644  0.2590  0.3645
10744TIP3    H153647   3.741   2.074   3.193  0.1066  0.0661  0.6775
10744TIP3    H253648   3.884   2.044   3.153 -0.0889  0.9980 -0.8300
10745TIP3   OH253649   6.735   0.237  13.467 -0.6917  0.3873  0.5349
10745TIP3    H153650   6.792   0.165  13.494  0.8352  0.9676 -0.9656
10745TIP3    H253651   6.737   0.298  13.541  1.4636  0.8405  0.1560
10746TIP3   OH253652   6.294   2.530   3.269  0.0602 -0.1471  0.2615
10746TIP3    H153653   6.386   2.554   3.277  0.0862 -0.2664  0.3237
10746TIP3    H253654   6.278   2.524   3.175  0.2844 -0.7793  0.2604
10747TIP3   OH253655   4.010   5.028   3.765 -0.3254  0.2256  0.0488
10747TIP3    H153656   4.105   5.036   3.757 -0.6042  3.0265 -2.2195
10747TIP3    H253657   3.982   4.997   3.679 -1.4975 -0.0130  0.5015
10748TIP3   OH253658   1.540   0.772  17.041 -0.3020 -0.5341 -0.2636
10748TIP3    H153659   1.548   0.839  17.108  1.4640 -0.3067 -0.6647
10748TIP3    H253660   1.630   0.752  17.015 -0.8948 -1.1376 -2.0399
10749TIP3   OH253661   3.689   4.309  13.436 -0.4419  0.2738 -0.3339
10749TIP3    H153662   3.700   4.224  13.393  0.4743  0.2010  0.0138
10749TIP3    H253663   3.614   4.349  13.391 -0.2371 -0.2872 -1.2096
10750TIP3   OH253664   5.537   0.616  14.257  0.7802 -0.0901 -0.1709
10750TIP3    H153665   5.497   0.627  14.170 -0.0218  0.6351  0.2783
10750TIP3    H253666   5.487   0.543  14.296 -0.5115  1.1563  0.5928
10751TIP3   OH253667   3.366   4.618  12.761  0.0560 -0.2998  0.1929
10751TIP3    H153668   3.283   4.654  12.793 -0.8643 -1.3210 -0.9184
10751TIP3    H253669   3.432   4.652  12.821 -1.3811 -0.9514  2.2880
10752TIP3   OH253670   1.727   1.354   3.827 -0.3636  0.2605 -0.2732
10752TIP3    H153671   1.819   1.332   3.842  0.0310  1.1265 -1.2826
10752TIP3    H253672   1.725   1.386   3.737 -1.6162  0.4839 -0.1740
10753TIP3   OH253673   0.165   4.873   6.365 -0.6957  0.1357 -0.0288
10753TIP3    H153674   0.078   4.834   6.373 -0.5522 -0.0255  0.8384
10753TIP3    H253675   0.210   4.848   6.445 -1.3314  3.9664  1.7405
10754TIP3   OH253676   6.169   4.872   3.424  0.4053  0.0759  0.1318
10754TIP3    H153677   6.098   4.928   3.392  0.5407 -0.7087 -1.6334
10754TIP3    H253678   6.125   4.810   3.483 -0.0259  0.8437  0.6435
10755TIP3   OH253679   5.693   5.103   2.298 -0.8834  0.2524  0.1159
10755TIP3    H153680   5.727   5.142   2.217  0.3986 -0.2047  0.4110
10755TIP3    H253681   5.768   5.103   2.358 -0.7893 -2.6257  0.1271
10756TIP3   OH253682   5.114   6.077   0.133 -0.1624  0.0710 -0.1125
10756TIP3    H153683   5.063   6.063   0.053  0.4287  0.0206 -0.4879
10756TIP3    H253684   5.190   6.128   0.104  0.8107 -1.1834  0.1468
10757TIP3   OH253685   2.112   6.673  11.097  0.4679 -0.2918  0.2116
10757TIP3    H153686   2.079   6.608  11.035  0.0789  0.9604 -0.9524
10757TIP3    H253687   2.041   6.736  11.106 -0.4142 -1.5351  3.7433
10758TIP3   OH253688   0.938   2.105  14.864 -0.0578 -0.4263  0.0102
10758TIP3    H153689   0.851   2.132  14.894 -0.1030  0.7877 -1.1388
10758TIP3    H253690   0.957   2.162  14.790  1.4890 -1.0607 -0.1204
10759TIP3   OH253691   4.841   1.419   1.422 -0.7967  0.2320  0.5478
10759TIP3    H153692   4.749   1.394   1.407 -0.3598 -1.1528 -0.0451
10759TIP3    H253693   4.874   1.351   1.480  0.2049 -0.0593 -0.3347
10760TIP3   OH253694   5.436   0.403   3.795 -0.0700  0.4788 -0.3835
10760TIP3    H153695   5.447   0.499   3.796  0.5938  0.5035  3.0968
10760TIP3    H253696   5.456   0.378   3.705 -1.3026  3.6799 -1.7172
10761TIP3   OH253697   2.676   0.683  12.999  0.0138 -0.0527 -0.2233
10761TIP3    H153698   2.602   0.636  12.961  0.6316  0.9455 -2.9238
10761TIP3    H253699   2.743   0.616  13.013 -0.8947 -0.7430  0.9770
10762TIP3   OH253700   2.394   6.187  10.853  0.1139 -0.9141  0.7998
10762TIP3    H153701   2.414   6.097  10.875  2.4447 -0.7037 -0.1889
10762TIP3    H253702   2.371   6.228  10.937  0.5924 -2.0530  1.5069
10763TIP3   OH253703   2.975   1.895   5.311  0.5341 -0.0171 -0.0367
10763TIP3    H153704   2.922   1.972   5.293  2.0782  1.1242  0.1715
10763TIP3    H253705   2.957   1.835   5.238 -2.0510 -0.2669  0.7081
10764TIP3   OH253706   0.840   1.207  15.822  0.6343  0.3046  0.1384
10764TIP3    H153707   0.878   1.195  15.909 -0.9884  2.2822  1.2194
10764TIP3    H253708   0.798   1.124  15.802  1.5260 -0.3645  0.9608
10765TIP3   OH253709   5.204   3.176  13.054  0.3946  0.0657  0.4379
10765TIP3    H153710   5.236   3.240  13.117 -1.7811  2.0518 -0.2901
10765TIP3    H253711   5.202   3.093  13.101  0.5538  1.1209  2.3786
10766TIP3   OH253712   2.843   1.252  15.190 -0.2700 -0.2411 -0.1901
10766TIP3    H153713   2.915   1.234  15.252 -1.0920 -3.1821  0.0486
10766TIP3    H253714   2.846   1.180  15.128 -1.6708  0.7900 -1.5310
10767TIP3   OH253715   3.715   4.323  12.005 -0.5151 -0.5778 -0.1896
10767TIP3    H153716   3.743   4.399  11.954  1.2330 -1.1376 -0.1435
10767TIP3    H253717   3.742   4.344  12.095  0.1347 -1.3090 -0.2047
10768TIP3   OH253718   4.481   2.900   2.447  0.3350 -0.0188  0.1965
10768TIP3    H153719   4.461   2.902   2.541  1.8289  0.6628  0.5288
10768TIP3    H253720   4.470   2.991   2.419  1.6434  0.1349  0.1262
10769TIP3   OH253721   2.010   5.739   2.683  0.9371 -0.0375 -0.5568
10769TIP3    H153722   1.940   5.676   2.668  0.8259 -0.4186  1.3395
10769TIP3    H253723   2.074   5.721   2.614  0.7504 -2.0025 -0.2612
10770TIP3   OH253724   1.310   2.961  11.998  0.1350 -0.0616 -0.1785
10770TIP3    H153725   1.289   2.939  12.089  2.4333  3.0485  1.2821
10770TIP3    H253726   1.379   2.899  11.973  0.1018 -0.3856  0.5148
10771TIP3   OH253727   2.356   6.277  15.707  0.1936  0.3317 -0.0169
10771TIP3    H153728   2.373   6.288  15.801 -0.1934 -1.1633  0.2545
10771TIP3    H253729   2.334   6.185  15.697  1.2562  0.2068 -1.7449
10772TIP3   OH253730   1.735   0.764  12.899  0.1168 -0.5673  0.1064
10772TIP3    H153731   1.687   0.827  12.951 -1.9826 -2.9038  1.2242
10772TIP3    H253732   1.826   0.795  12.900 -0.6350  1.8004  1.4429
10773TIP3   OH253733   5.267   5.931  15.880  0.7050  0.2656  0.0928
10773TIP3    H153734   5.221   5.971  15.955 -0.0861  1.7941 -1.1539
10773TIP3    H253735   5.264   5.998  15.812 -0.2596 -1.7329 -1.9549
10774TIP3   OH253736   6.436   6.560  13.898  0.3254 -0.0058  0.0167
10774TIP3    H153737   6.460   6.475  13.933 -1.7061 -0.3254  0.7684
10774TIP3    H253738   6.423   6.546  13.804  2.4305  0.0802 -0.3271
10775TIP3   OH253739   4.981   1.566   6.308  0.1288 -0.3208  0.4534
10775TIP3    H153740   4.962   1.526   6.392  3.3841 -0.4794  1.2282
10775TIP3    H253741   5.069   1.535   6.285  0.1334  1.2397 -2.0742
10776TIP3   OH253742   4.582   1.100   4.293 -0.1939 -0.0557  0.4312
10776TIP3    H153743   4.523   1.175   4.302  0.3735  0.5255 -0.5085
10776TIP3    H253744   4.642   1.125   4.223  0.2190 -1.2608  0.3318
10777TIP3   OH253745   5.058   0.052  10.975 -0.5418  0.1467 -0.0789
10777TIP3    H153746   5.042   0.011  10.890 -2.6892 -1.9164  1.1985
10777TIP3    H253747   5.112   0.129  10.955 -1.3027 -0.0183 -3.3246
10778TIP3   OH253748   6.688   4.717   1.307 -0.7538 -0.1232 -0.0805
10778TIP3    H153749   6.726   4.759   1.231 -1.7400 -0.8486 -1.0174
10778TIP3    H253750   6.728   4.760   1.382  2.4753 -1.3456 -0.9464
10779TIP3   OH253751   3.676   1.443  11.231  0.6395 -0.1485  0.2029
10779TIP3    H153752   3.591   1.403  11.216  0.2419  0.5609  0.4964
10779TIP3    H253753   3.735   1.399  11.170 -0.5216  1.3005 -2.1310
10780TIP3   OH253754   6.749   6.410   0.249  0.3406 -0.5346 -0.0959
10780TIP3    H153755   6.733   6.356   0.172  0.7736 -1.1138  0.2062
10780TIP3    H253756   6.678   6.387   0.310 -0.9174  1.0775 -0.8966
10781TIP3   OH253757   1.958   3.229   0.901 -0.0195 -0.4365 -0.4028
10781TIP3    H153758   1.894   3.283   0.947  0.6784 -0.1129  0.2248
10781TIP3    H253759   1.974   3.275   0.818 -2.2516 -1.7032 -1.6197
10782TIP3   OH253760   6.723   6.370  15.055  0.0180  0.1119 -0.8807
10782TIP3    H153761   6.756   6.383  14.967 -1.2938  0.7135 -1.3080
10782TIP3    H253762   6.635   6.334  15.043  0.4271 -1.3250  0.2132
10783TIP3   OH253763   3.671   4.351   0.890  0.2981 -0.8672 -1.0809
10783TIP3    H153764   3.602   4.336   0.954  0.9391  1.0127  0.1176
10783TIP3    H253765   3.746   4.301   0.924  0.4978 -0.2447 -0.5821
10784TIP3   OH253766   6.560   3.911  12.295 -0.1918 -0.0698 -0.6762
10784TIP3    H153767   6.569   3.987  12.352 -4.3848 -1.5179  2.3669
10784TIP3    H253768   6.501   3.940  12.225 -0.6066 -0.1340 -0.3531
10785TIP3   OH253769   4.040   3.212   2.851 -0.2889 -0.5258 -0.0730
10785TIP3    H153770   3.985   3.263   2.792 -0.7021 -0.2532  0.5337
10785TIP3    H253771   4.128   3.247   2.837 -0.4998  0.0600  0.0167
10786TIP3   OH253772   1.261   2.835  12.799  0.4012  0.3357  0.4428
10786TIP3    H153773   1.172   2.830  12.832  0.8846  0.6377  1.8763
10786TIP3    H253774   1.273   2.928  12.777 -0.2709 -0.0462 -1.6857
10787TIP3   OH253775   1.022   1.470   4.201 -0.9833  0.0936 -0.1583
10787TIP3    H153776   0.943   1.419   4.186 -1.3436  0.8414 -0.8354
10787TIP3    H253777   1.071   1.465   4.119  0.2820 -1.3567  0.6201
10788TIP3   OH253778   5.324   2.516   5.124 -0.0154 -0.4097  0.3105
10788TIP3    H153779   5.241   2.469   5.135 -1.5622  1.2167 -2.8200
10788TIP3    H253780   5.382   2.454   5.081 -0.5531 -0.7637  0.0954
10789TIP3   OH253781   4.845   0.113   4.743  0.3111 -0.0740  0.3744
10789TIP3    H153782   4.886   0.063   4.814  0.5501 -1.1193 -0.4666
10789TIP3    H253783   4.857   0.204   4.767 -0.2988 -0.4160  2.0536
10790TIP3   OH253784   4.724   6.379   1.122  0.1448  0.4000 -0.2156
10790TIP3    H153785   4.710   6.472   1.106 -0.7086  0.0926 -1.3216
10790TIP3    H253786   4.814   6.363   1.092  0.3464  0.8813  0.1111
10791TIP3   OH253787   1.686   3.020  11.784  0.3459 -0.5968 -0.8895
10791TIP3    H153788   1.731   3.039  11.702  0.7921 -1.4347 -0.8513
10791TIP3    H253789   1.716   2.932  11.808 -0.1882 -0.5761 -0.1049
10792TIP3   OH253790   5.153   3.962  16.610  0.2272  0.3570  0.5433
10792TIP3    H153791   5.196   4.047  16.616 -1.2680  1.1147  1.0874
10792TIP3    H253792   5.207   3.912  16.549  0.8821  1.8582 -0.1638
10793TIP3   OH253793   2.950   4.600  16.911  0.0982 -0.3593  0.4316
10793TIP3    H153794   3.042   4.596  16.885 -0.0438  0.7197 -0.2726
10793TIP3    H253795   2.918   4.684  16.878 -1.4341 -1.1756 -0.2730
10794TIP3   OH253796   5.765   4.194  15.125  0.5189 -0.1921  0.2324
10794TIP3    H153797   5.718   4.151  15.196  2.4492 -2.2271  0.3801
10794TIP3    H253798   5.855   4.204  15.158  1.2791 -0.5063 -1.6373
10795TIP3   OH253799   0.678   4.638   4.198 -0.0932 -0.4524  0.5086
10795TIP3    H153800   0.675   4.587   4.117  0.9705 -1.6375  1.1940
10795TIP3    H253801   0.586   4.655   4.219 -0.3935 -0.3032 -0.8234
10796TIP3   OH253802   4.286   2.733   4.556 -0.0106  0.1898  0.9500
10796TIP3    H153803   4.382   2.733   4.553 -0.0138  1.2002  0.3534
10796TIP3    H253804   4.261   2.644   4.534  0.7572  0.3054 -0.4746
10797TIP3   OH253805   3.619   1.060  12.725  0.4043  1.1771  0.0039
10797TIP3    H153806   3.524   1.070  12.729  0.1901 -0.0463 -1.2008
10797TIP3    H253807   3.651   1.146  12.695 -0.4289  1.2704 -0.6654
10798TIP3   OH253808   2.412   1.612   2.426  0.0133  0.5268  0.0601
10798TIP3    H153809   2.494   1.570   2.401  0.4272  1.3545 -0.0161
10798TIP3    H253810   2.397   1.677   2.358 -0.4147  0.7683  0.3800
10799TIP3   OH253811   1.011   4.833  13.706  0.4309 -0.4321  0.0646
10799TIP3    H153812   1.034   4.923  13.729 -0.6585  0.2837 -1.5054
10799TIP3    H253813   1.036   4.782  13.783  1.3186  1.1616  0.8849
10800TIP3   OH253814   0.620   3.224  11.375 -0.1905 -0.0705 -0.5378
10800TIP3    H153815   0.682   3.259  11.439  0.7742  1.1513 -2.0745
10800TIP3    H253816   0.601   3.297  11.317 -1.9509 -0.8320 -0.9899
10801TIP3   OH253817   5.403   3.134   2.078 -0.4063  0.1568 -0.2012
10801TIP3    H153818   5.338   3.186   2.032 -0.1052 -0.9350 -1.9519
10801TIP3    H253819   5.360   3.049   2.091  0.8187 -0.7942 -1.9573
10802TIP3   OH253820   3.032   6.213  11.288 -0.1309 -0.2716  0.3955
10802TIP3    H153821   2.998   6.212  11.377  1.5880  0.0697  1.0968
10802TIP3    H253822   3.007   6.299  11.254 -0.7470 -0.3803  0.5671
10803TIP3   OH253823   4.359   2.140   6.278 -0.0734 -0.3460 -0.4860
10803TIP3    H153824   4.371   2.217   6.334 -0.0648 -0.2987 -0.5533
10803TIP3    H253825   4.348   2.067   6.340  1.9261 -0.6217 -0.3950
10804TIP3   OH253826   5.336   6.553   3.408 -0.0305  0.6069 -0.5027
10804TIP3    H153827   5.431   6.542   3.409 -0.0987 -0.0046  0.0598
10804TIP3    H253828   5.321   6.633   3.358  0.6277 -1.0127 -3.5367
10805TIP3   OH253829   3.053   5.887   3.162  0.2053  0.2036 -0.3156
10805TIP3    H153830   3.075   5.968   3.209  1.8863 -1.2792  1.6658
10805TIP3    H253831   3.056   5.819   3.230 -1.0223 -1.5488 -1.9293
10806TIP3   OH253832   2.279   3.746   0.735 -0.2174  0.1898  0.4369
10806TIP3    H153833   2.319   3.823   0.775  1.5787 -0.5951  0.2471
10806TIP3    H253834   2.189   3.773   0.715  0.3344  2.1964  0.4458
10807TIP3   OH253835   4.459   3.063  10.991 -0.8656 -0.4349  0.1991
10807TIP3    H153836   4.545   3.039  10.955 -0.4686  2.8238 -1.3887
10807TIP3    H253837   4.410   3.095  10.915 -2.1236  1.2408  1.6594
10808TIP3   OH253838   0.978   1.073  12.585  0.2477 -0.8215 -0.4666
10808TIP3    H153839   0.938   1.007  12.530 -0.0624  0.1260 -1.4231
10808TIP3    H253840   0.969   1.155  12.535 -0.1255  0.0951  1.0261
10809TIP3   OH253841   5.275   2.655   1.262  0.0052  0.0324 -0.9550
10809TIP3    H153842   5.360   2.623   1.292 -0.1722  1.3832  1.2257
10809TIP3    H253843   5.236   2.580   1.218  0.9420 -1.7350  1.0234
10810TIP3   OH253844   0.245   5.384  11.623 -0.3392 -0.3479 -0.0337
10810TIP3    H153845   0.313   5.408  11.560 -0.9283 -1.8716 -1.2944
10810TIP3    H253846   0.284   5.312  11.674 -0.8858 -1.0443 -0.5831
10811TIP3   OH253847   5.148   1.098   1.801 -0.4346 -0.0465 -0.7389
10811TIP3    H153848   5.225   1.154   1.810 -0.1420 -0.2176 -1.9999
10811TIP3    H253849   5.107   1.101   1.887  1.5294 -0.7699  0.2979
10812TIP3   OH253850   1.236   3.764   6.005  0.9662  0.8011  0.1358
10812TIP3    H153851   1.198   3.739   6.089  0.2828 -0.5854 -0.5470
10812TIP3    H253852   1.281   3.685   5.974  1.4304  1.3661 -0.6847
10813TIP3   OH253853   4.150   0.399  10.743 -0.1578 -0.4736 -0.2171
10813TIP3    H153854   4.227   0.456  10.752 -1.7176  1.9557 -1.2023
10813TIP3    H253855   4.165   0.350  10.662  0.7554 -0.7367  0.1019
10814TIP3   OH253856   6.586   0.029   1.018 -0.0711 -0.4674 -0.5037
10814TIP3    H153857   6.598  -0.020   0.936 -0.0446 -0.4967 -0.4826
10814TIP3    H253858   6.599   0.120   0.994  3.3434 -0.6755  0.0948
10815TIP3   OH253859   4.474   5.177  13.852  0.0572 -0.6400 -0.7025
10815TIP3    H153860   4.489   5.260  13.806 -0.5131 -0.3888 -0.4479
10815TIP3    H253861   4.396   5.141  13.810 -2.1356  0.8804  1.7639
10816TIP3   OH253862   3.470   1.815   0.782  0.5248  0.0707  0.5439
10816TIP3    H153863   3.437   1.745   0.839 -0.5127  0.2815  0.2227
10816TIP3    H253864   3.395   1.873   0.770  1.0453  0.6098 -0.1662
10817TIP3   OH253865   0.720   4.454   5.878 -0.1630  0.2974  0.6121
10817TIP3    H153866   0.642   4.501   5.908 -0.4888 -1.0406  2.0354
10817TIP3    H253867   0.763   4.426   5.959  2.6445  2.2267 -0.0594
10818TIP3   OH253868   3.153   0.312  11.924 -0.0302 -0.0547 -0.0244
10818TIP3    H153869   3.213   0.384  11.905 -0.3336  0.3161  0.3822
10818TIP3    H253870   3.196   0.234  11.890  0.7042  0.2001  0.3076
10819TIP3   OH253871   6.751   3.594   6.075  0.5155 -0.4896  0.5003
10819TIP3    H153872   6.759   3.682   6.038  0.0406 -0.4328  0.5277
10819TIP3    H253873   6.658   3.585   6.096  0.1197 -1.8601 -1.5983
10820TIP3   OH253874   0.915   6.169   4.497  0.5534 -0.1372 -0.0488
10820TIP3    H153875   0.819   6.172   4.494  0.5362  2.0549  0.6173
10820TIP3    H253876   0.941   6.146   4.408 -0.5894  0.5704 -0.5970
10821TIP3   OH253877   2.025   6.506  11.736  0.3739 -0.2158 -0.8844
10821TIP3    H153878   1.997   6.532  11.649  0.1564 -1.1265 -1.0998
10821TIP3    H253879   2.056   6.416  11.726 -0.9199 -0.8216  0.2182
10822TIP3   OH253880   4.647   6.197  16.072 -0.1336  0.0550 -0.1426
10822TIP3    H153881   4.676   6.161  16.156 -2.0488 -0.9112  0.1449
10822TIP3    H253882   4.685   6.285  16.070  1.2082 -0.4480  1.0228
10823TIP3   OH253883   3.874   6.263  10.979 -0.3059 -0.0275  0.5234
10823TIP3    H153884   3.934   6.311  11.037 -2.4232  2.0353  1.1912
10823TIP3    H253885   3.931   6.217  10.918  1.9628  0.2299  2.2964
10824TIP3   OH253886   4.623   4.124  14.087  0.1391 -0.2865  0.2046
10824TIP3    H153887   4.574   4.202  14.063  2.4153  0.8975 -0.8624
10824TIP3    H253888   4.610   4.064  14.014  2.3729  1.0976 -1.4682
10825TIP3   OH253889   0.856   0.187   4.142  0.4803  0.3364 -0.3949
10825TIP3    H153890   0.818   0.106   4.109  1.4299 -0.3588  0.1654
10825TIP3    H253891   0.827   0.254   4.080 -0.6941 -0.3478 -0.6054
10826TIP3   OH253892   1.340   6.499   4.324  0.1574 -0.0142  0.1863
10826TIP3    H153893   1.317   6.577   4.273  2.6745  0.1153 -0.9077
10826TIP3    H253894   1.434   6.487   4.308 -0.0256 -2.9395  0.7982
10827TIP3   OH253895   4.457   5.573  12.925  0.0808 -0.7884 -0.1087
10827TIP3    H153896   4.543   5.551  12.961  0.1816 -1.2186 -0.5990
10827TIP3    H253897   4.449   5.667  12.937  1.2828 -0.4900 -1.4559
10828TIP3   OH253898   4.387   2.152  16.359 -0.7742  0.7190 -0.1168
10828TIP3    H153899   4.333   2.142  16.281 -2.2295  1.0923  0.8004
10828TIP3    H253900   4.338   2.106  16.428  0.7921 -0.1665  0.4582
10829TIP3   OH253901   6.441   5.319   0.857  0.0643 -0.1612 -0.4453
10829TIP3    H153902   6.391   5.262   0.915  0.3499 -0.9949 -0.9959
10829TIP3    H253903   6.531   5.315   0.889  0.0659  0.0777 -0.4152
10830TIP3   OH253904   5.241   1.035  13.780 -0.0885 -0.3173  0.3193
10830TIP3    H153905   5.151   1.066  13.780  0.0019 -0.0443  0.6601
10830TIP3    H253906   5.273   1.053  13.692  0.0668  0.8855  0.6070
10831TIP3   OH253907   3.326   6.426  13.763 -0.2368 -0.0059 -0.0100
10831TIP3    H153908   3.378   6.459  13.690  0.0160  0.5470  0.4100
10831TIP3    H253909   3.383   6.434  13.839  0.6348 -3.3549 -0.1441
10832TIP3   OH253910   6.094   5.796  10.728  0.3479 -0.0275  0.2529
10832TIP3    H153911   6.019   5.812  10.785  1.6725  0.9306  1.8033
10832TIP3    H253912   6.081   5.856  10.654 -1.7369 -1.7763 -0.9007
10833TIP3   OH253913   0.228   6.517   2.227  0.0312  0.3764  0.1936
10833TIP3    H153914   0.293   6.588   2.230  1.0264 -0.4990  0.0014
10833TIP3    H253915   0.273   6.446   2.182 -1.5281  0.2021 -1.1911
10834TIP3   OH253916   5.113   1.307   0.234 -1.0595 -0.0691  0.4052
10834TIP3    H153917   5.070   1.392   0.239 -0.0651  0.4472  0.5042
10834TIP3    H253918   5.042   1.243   0.240 -2.2177  0.7100 -3.1358
10835TIP3   OH253919   4.824   0.486  11.469 -0.3250  0.3571 -1.0976
10835TIP3    H153920   4.766   0.482  11.393 -0.4511  0.9392 -1.0323
10835TIP3    H253921   4.911   0.469  11.434 -0.2686  1.4007 -1.5007
10836TIP3   OH253922   4.034   6.666  14.382 -0.2905 -0.0068 -0.1092
10836TIP3    H153923   3.955   6.616  14.397  0.4339 -2.6316 -3.7165
10836TIP3    H253924   4.058   6.647  14.291  4.6245  0.4104  0.8262
10837TIP3   OH253925   4.708   6.013   5.875  0.3112 -0.4572  0.1343
10837TIP3    H153926   4.715   5.990   5.967 -1.1354 -2.0374 -0.0935
10837TIP3    H253927   4.776   5.962   5.831  0.5728 -0.2014  0.2378
10838TIP3   OH253928   5.762   0.758  10.506  0.0717  0.3250 -0.3446
10838TIP3    H153929   5.835   0.814  10.534 -1.2740  1.1454  1.8270
10838TIP3    H253930   5.711   0.813  10.447 -1.7846  2.0082  2.5226
10839TIP3   OH253931   1.356   5.192   5.104  0.1421  0.2341  0.2854
10839TIP3    H153932   1.363   5.227   5.016 -1.4947  1.2542  0.5126
10839TIP3    H253933   1.271   5.147   5.106 -1.2830  2.7337  2.0855
10840TIP3   OH253934   3.145   0.824   0.381  0.4722  0.0753 -0.4858
10840TIP3    H153935   3.120   0.817   0.289 -2.5631  3.9639 -0.1697
10840TIP3    H253936   3.230   0.869   0.379  1.3553 -1.5292 -1.3231
10841TIP3   OH253937   4.917   0.807   1.824  0.6218  0.2690  0.5040
10841TIP3    H153938   4.956   0.722   1.844 -0.3750  0.1168  1.9234
10841TIP3    H253939   4.968   0.840   1.750  2.2794 -0.6921  1.1717
10842TIP3   OH253940   1.377   3.289   2.516  0.0005  0.2457  0.9194
10842TIP3    H153941   1.282   3.294   2.521 -0.0597  0.5045 -0.2485
10842TIP3    H253942   1.396   3.195   2.517 -0.1362  0.1999  2.8534
10843TIP3   OH253943   1.781   2.529  12.371 -0.7412  0.5983 -0.3092
10843TIP3    H153944   1.829   2.572  12.441  0.9550 -0.4325 -0.7832
10843TIP3    H253945   1.717   2.473  12.415  0.6360 -0.4155  0.4466
10844TIP3   OH253946   3.232   1.167  12.105  0.0116  0.1267 -0.5050
10844TIP3    H153947   3.287   1.196  12.177  0.6994 -0.0881 -0.9315
10844TIP3    H253948   3.145   1.201  12.126  0.3682  0.7385  0.0242
10845TIP3   OH253949   3.042   3.569   3.176 -0.2164 -0.3483 -0.3114
10845TIP3    H153950   3.125   3.592   3.219 -0.4441  0.6021 -0.3630
10845TIP3    H253951   3.044   3.474   3.170 -0.3267 -0.5721  2.1237
10846TIP3   OH253952   4.572   1.353  14.762 -0.0187  0.2309 -0.3113
10846TIP3    H153953   4.530   1.317  14.684 -0.7497  0.2816  0.0451
10846TIP3    H253954   4.572   1.281  14.825  1.6630 -0.1787 -0.7405
10847TIP3   OH253955   3.414   4.245  12.068  0.7238  0.0469  0.6385
10847TIP3    H153956   3.320   4.263  12.075  0.5030 -0.3890 -0.9037
10847TIP3    H253957   3.455   4.311  12.124 -0.4542  0.7333  0.7331
10848TIP3   OH253958   2.823   6.478  12.948  0.4858  1.1261 -0.1749
10848TIP3    H153959   2.891   6.412  12.963 -0.5730  0.0552  0.0305
10848TIP3    H253960   2.835   6.541  13.019  1.5874  1.2538 -0.4440
10849TIP3   OH253961   1.579   1.402  11.066 -0.1808 -0.2063  0.6673
10849TIP3    H153962   1.516   1.453  11.015  1.1769 -0.2310 -1.1300
10849TIP3    H253963   1.652   1.463  11.081  1.7831 -1.6818 -2.1115
10850TIP3   OH253964   4.268   5.593  11.954  0.0593 -0.1234  0.3176
10850TIP3    H153965   4.260   5.527  11.886  1.3281  0.2932 -0.2589
10850TIP3    H253966   4.344   5.565  12.006 -0.2468  0.1334  0.9160
10851TIP3   OH253967   5.927   5.931   0.777 -0.3276 -0.0123 -0.5546
10851TIP3    H153968   5.922   5.851   0.724  0.1827 -0.1069 -0.4611
10851TIP3    H253969   6.016   5.964   0.764 -0.9656  1.3542 -1.7565
10852TIP3   OH253970   1.873   4.728   1.923  0.3042 -0.1799  0.3266
10852TIP3    H153971   1.865   4.722   1.828  0.1692 -1.4566  0.3996
10852TIP3    H253972   1.901   4.818   1.940  3.9704 -0.8612 -1.2021
10853TIP3   OH253973   0.980   4.122   1.088 -0.0016 -0.1282  0.1279
10853TIP3    H153974   1.007   4.072   1.165 -0.8850 -0.7910  0.0271
10853TIP3    H253975   0.898   4.081   1.061 -1.3914  2.0855  0.7230
10854TIP3   OH253976   5.157   3.287  11.282  0.6081 -0.0378  0.0058
10854TIP3    H153977   5.245   3.263  11.253 -0.0416  0.9219 -3.2409
10854TIP3    H253978   5.115   3.322  11.203 -3.0653 -1.4400  1.1248
10855TIP3   OH253979   0.386   1.061   5.108  0.0065  0.6073  0.0479
10855TIP3    H153980   0.309   1.107   5.073  0.6648  0.6558 -1.4200
10855TIP3    H253981   0.377   0.971   5.077 -0.2487  0.2116  1.2165
10856TIP3   OH253982   3.488   4.258  11.711 -0.2831 -0.3310 -0.6282
10856TIP3    H153983   3.394   4.244  11.701 -0.2859  0.3798 -1.7401
10856TIP3    H253984   3.495   4.350  11.740  0.0085 -0.8325  1.0337
10857TIP3   OH253985   5.309   1.297  12.153 -0.1494 -0.0742 -0.0684
10857TIP3    H153986   5.272   1.281  12.240  0.2912 -0.0907  0.1167
10857TIP3    H253987   5.343   1.386  12.157 -2.9838  1.1644 -1.2367
10858TIP3   OH253988   4.247   0.175   3.290  0.5610 -0.1936 -0.6307
10858TIP3    H153989   4.234   0.163   3.384  1.8981 -1.7047 -0.5887
10858TIP3    H253990   4.338   0.203   3.283  0.3399  0.3280 -1.4559
10859TIP3   OH253991   3.577   4.601  12.539 -0.3858  0.8546  0.5690
10859TIP3    H153992   3.501   4.571  12.589  0.5876 -1.5565  0.7012
10859TIP3    H253993   3.652   4.586  12.597  0.4958  0.4297 -0.6488
10860TIP3   OH253994   2.963   2.856   1.891  0.4275 -0.1317 -0.3407
10860TIP3    H153995   2.970   2.914   1.815  0.3025 -1.1455 -1.1460
10860TIP3    H253996   2.932   2.913   1.961  3.2760  1.4607 -0.2500
10861TIP3   OH253997   1.105   4.575   5.260  0.1695  0.2478 -0.2535
10861TIP3    H153998   1.178   4.598   5.204 -0.9704  1.5970 -1.2738
10861TIP3    H253999   1.077   4.488   5.230  0.2647  0.4872 -1.0417
10862TIP3   OH254000   4.075   4.368   3.697  0.2592 -0.5622  0.0018
10862TIP3    H154001   4.122   4.431   3.752  0.5855 -0.5263 -0.3159
10862TIP3    H254002   3.985   4.372   3.727  0.6497 -1.4706  1.4239
10863TIP3   OH254003   3.122   5.218   0.462  0.2350 -0.1600 -0.0787
10863TIP3    H154004   3.160   5.245   0.545 -1.5123 -0.5052  0.8846
10863TIP3    H254005   3.141   5.289   0.402  2.9181 -0.5902  0.1276
10864TIP3   OH254006   0.034   2.118   5.110  0.1274 -0.4549 -0.1904
10864TIP3    H154007  -0.062   2.126   5.110  0.1064 -0.5893  0.6039
10864TIP3    H254008   0.065   2.202   5.141  0.3851  0.3863 -2.5396
10865TIP3   OH254009   6.614   1.748   6.337  0.4255  0.2797  0.0256
10865TIP3    H154010   6.706   1.765   6.360  0.5781 -1.3293  0.7070
10865TIP3    H254011   6.579   1.700   6.412 -0.8106  0.3053 -0.5129
10866TIP3   OH254012   1.257   6.098   3.506 -0.3929  0.6845  0.2732
10866TIP3    H154013   1.214   6.179   3.479 -0.2210  1.0431  1.0396
10866TIP3    H254014   1.346   6.125   3.530  0.0325  0.0804 -0.5572
10867TIP3   OH254015   4.104   3.018   3.037 -0.0218 -0.7517  0.2308
10867TIP3    H154016   4.115   3.033   3.131 -0.4454 -0.5862  0.2556
10867TIP3    H254017   4.073   3.102   3.003 -2.7957 -1.5994  0.4284
10868TIP3   OH254018   5.904   6.423   4.967 -0.2437  0.1587 -0.0612
10868TIP3    H154019   5.958   6.425   4.888  0.7354  0.6133  0.6003
10868TIP3    H254020   5.828   6.477   4.946 -0.1375  0.0316 -0.7953
10869TIP3   OH254021   4.668   1.583   6.419  0.1114 -0.3322  0.5808
10869TIP3    H154022   4.668   1.595   6.324 -1.9055  1.4893  0.7391
10869TIP3    H254023   4.728   1.509   6.433 -0.0138 -1.0796 -2.1337
10870TIP3   OH254024   1.708   0.708  13.728 -0.3773  0.1472 -0.1613
10870TIP3    H154025   1.663   0.697  13.812  0.1677  0.5327  0.1842
10870TIP3    H254026   1.740   0.621  13.706  0.9500  0.3530  0.8717
10871TIP3   OH254027   0.352   4.435   2.155 -0.3595  0.4644  0.0700
10871TIP3    H154028   0.415   4.499   2.188 -1.0298  1.1136  0.1304
10871TIP3    H254029   0.272   4.451   2.205 -0.9522  0.5011 -0.8520
10872TIP3   OH254030   6.317   5.057  12.837 -0.0405  0.0993 -0.0726
10872TIP3    H154031   6.310   5.043  12.743  0.6171 -0.4990 -0.0425
10872TIP3    H254032   6.347   4.973  12.872  0.6807  0.6022  0.5507
10873TIP3   OH254033   2.129   5.403  11.925  0.6688  0.0957  0.3822
10873TIP3    H154034   2.143   5.496  11.906 -0.8199  0.0729 -1.0010
10873TIP3    H254035   2.088   5.402  12.011  0.7897  0.7033  0.4539
10874TIP3   OH254036   3.315   0.924  12.051  0.0135  0.2789 -0.2910
10874TIP3    H154037   3.408   0.941  12.040  0.2458  0.0958  1.2400
10874TIP3    H254038   3.278   1.009  12.074  0.1017  0.0252  0.8335
10875TIP3   OH254039   2.796   4.446  15.716  0.0020  0.7374  0.8703
10875TIP3    H154040   2.766   4.512  15.779  1.5581  0.8123  1.5840
10875TIP3    H254041   2.783   4.363  15.762 -0.3057  0.6704  0.6659
10876TIP3   OH254042   4.697   1.659   0.153  0.7922  0.1089 -0.4483
10876TIP3    H154043   4.723   1.567   0.157  0.1706 -0.0958 -0.9998
10876TIP3    H254044   4.605   1.657   0.125  0.9517  0.9173 -1.0469
10877TIP3   OH254045   4.385   0.978   1.824  0.2349  0.2474  0.1543
10877TIP3    H154046   4.384   1.044   1.754 -1.1021  0.2632  0.1640
10877TIP3    H254047   4.466   0.929   1.809  1.0915  1.6493 -0.0673
10878TIP3   OH254048   0.570   5.902  15.859 -0.4468  0.2564  0.4358
10878TIP3    H154049   0.589   5.819  15.904  1.3269 -0.5578 -1.6532
10878TIP3    H254050   0.628   5.902  15.783 -1.8377  2.5201 -0.7284
10879TIP3   OH254051   2.735   1.457  12.808  0.0764 -0.1258 -0.1969
10879TIP3    H154052   2.813   1.467  12.863 -0.1056  0.6111 -0.0646
10879TIP3    H254053   2.663   1.487  12.863 -0.1882  0.0427 -0.6344
10880TIP3   OH254054   3.672   6.465  12.700 -0.6203  0.1157  0.2645
10880TIP3    H154055   3.754   6.513  12.713 -0.6004 -0.2387  1.6610
10880TIP3    H254056   3.605   6.533  12.699 -0.2586  0.5159 -2.0161
10881TIP3   OH254057   5.355   6.164  14.244 -0.2007 -0.1504 -0.0209
10881TIP3    H154058   5.402   6.160  14.328 -0.9978  0.7758  0.5006
10881TIP3    H254059   5.278   6.108  14.258 -0.9140  0.8748  0.2789
10882TIP3   OH254060   3.877   2.578  15.031  0.3183  0.4102 -0.4068
10882TIP3    H154061   3.946   2.592  15.096  0.3753 -1.2341 -0.0802
10882TIP3    H254062   3.915   2.514  14.970 -0.2652  0.8642 -1.2706
10883TIP3   OH254063   1.881   4.087  14.492  0.2548  0.1729 -0.5336
10883TIP3    H154064   1.809   4.034  14.528 -1.0556  2.4621  0.4668
10883TIP3    H254065   1.872   4.079  14.397 -0.2624 -0.9079 -0.4087
10884TIP3   OH254066   0.130   4.589  13.319  0.2815 -0.1775  0.2161
10884TIP3    H154067   0.187   4.642  13.376 -1.5284  0.7697  1.2164
10884TIP3    H254068   0.190   4.526  13.279  1.6955 -0.9282  3.1952
10885TIP3   OH254069   6.327   2.674   3.028  0.1882 -0.0592  0.4968
10885TIP3    H154070   6.340   2.711   3.115 -2.7695  2.3877  0.0407
10885TIP3    H254071   6.390   2.720   2.973  2.3529 -1.8984  1.2712
10886TIP3   OH254072   0.640   4.458   2.943  0.4283  0.0074  0.5738
10886TIP3    H154073   0.644   4.425   2.853  1.7410  2.7578 -0.5120
10886TIP3    H254074   0.551   4.440   2.972  0.2896 -1.9010 -0.8637
10887TIP3   OH254075   0.182   4.371  11.082  0.8976 -0.6768 -0.2468
10887TIP3    H154076   0.176   4.281  11.112  1.5414 -0.5166  0.3876
10887TIP3    H254077   0.098   4.410  11.105  0.9267 -0.8923  0.2349
10888TIP3   OH254078   0.808   0.282  15.980  0.2335  0.6032 -0.3165
10888TIP3    H154079   0.746   0.241  15.920  1.2763 -1.6261  0.0486
10888TIP3    H254080   0.757   0.297  16.060  0.2246 -1.7535  0.1931
10889TIP3   OH254081   4.099   3.154  14.331  0.3919  0.1302  0.0542
10889TIP3    H154082   4.194   3.149  14.325  0.3328 -0.0747 -0.7674
10889TIP3    H254083   4.075   3.225  14.271 -0.0033 -0.0728 -0.0303
10890TIP3   OH254084   5.679   4.714  16.642  0.0215  0.3736  0.5105
10890TIP3    H154085   5.694   4.798  16.686  0.0006  0.4045  0.4595
10890TIP3    H254086   5.754   4.704  16.583 -0.2440  0.6098  0.1276
10891TIP3   OH254087   2.145   2.365  14.113 -0.3550  0.0033  0.2583
10891TIP3    H154088   2.109   2.295  14.166 -0.3277  0.1122  0.4233
10891TIP3    H254089   2.206   2.411  14.171  0.5102 -0.5432 -0.1863
10892TIP3   OH254090   0.130   1.132   5.018 -0.3103  0.4707 -0.1284
10892TIP3    H154091   0.120   1.201   4.953  0.3327  0.3450 -0.3618
10892TIP3    H254092   0.044   1.127   5.060  0.1557  2.7616  1.2627
10893TIP3   OH254093   1.585   4.087   3.612  0.1370 -0.7690  0.0124
10893TIP3    H154094   1.559   4.015   3.669  0.0958 -1.5625 -0.9707
10893TIP3    H254095   1.621   4.043   3.534 -0.2954  0.2724 -0.7897
10894TIP3   OH254096   2.210   0.819  16.740  0.3945  0.2699  0.5472
10894TIP3    H154097   2.293   0.858  16.715  0.2646  0.3727  0.2701
10894TIP3    H254098   2.152   0.893  16.757  0.0968  0.2054 -0.1527
10895TIP3   OH254099   0.841   6.510   1.820  0.0948 -0.0338 -0.3822
10895TIP3    H154100   0.770   6.505   1.756 -0.7799  1.1448  0.4621
10895TIP3    H254101   0.855   6.419   1.846  0.0432 -0.4591 -1.7775
10896TIP3   OH254102   4.233   4.710  13.618  0.0713  0.7048 -0.2414
10896TIP3    H154103   4.240   4.797  13.657  1.3717  0.0774  1.0217
10896TIP3    H254104   4.301   4.659  13.662 -1.2576 -1.1982 -0.2787
10897TIP3   OH254105   0.404   5.194   1.818 -0.9505 -0.0924 -0.3335
10897TIP3    H154106   0.315   5.172   1.791 -1.2071 -1.5832  1.5613
10897TIP3    H254107   0.456   5.116   1.798 -0.3292  0.2743 -0.1984
10898TIP3   OH254108   2.460   2.366   3.171  0.3946 -0.0465 -0.4514
10898TIP3    H154109   2.445   2.371   3.077  0.1960 -1.6202 -0.5250
10898TIP3    H254110   2.372   2.363   3.209  0.4759 -0.1959 -0.2747
10899TIP3   OH254111   1.281   4.702   6.054  0.3849  0.0648  0.0480
10899TIP3    H154112   1.214   4.723   6.119 -0.1079  1.2177 -0.7836
10899TIP3    H254113   1.346   4.651   6.101 -1.0116 -0.9829  0.9069
10900TIP3   OH254114   5.001   5.178  16.782 -0.6599  0.5447 -0.2611
10900TIP3    H154115   4.975   5.214  16.697 -0.9866 -0.9866 -0.8375
10900TIP3    H254116   4.925   5.193  16.839 -0.5152  1.3989 -0.2871
10901TIP3   OH254117   5.561   4.661  14.173  0.4879  0.2462 -0.0498
10901TIP3    H154118   5.538   4.752  14.191 -1.7005 -0.1819 -0.3598
10901TIP3    H254119   5.509   4.638  14.096  1.7737 -0.9849 -0.6009
10902TIP3   OH254120   4.661   1.905  15.239 -0.4271 -0.3024 -0.5880
10902TIP3    H154121   4.656   1.982  15.183 -1.0871 -0.1050 -0.2692
10902TIP3    H254122   4.572   1.892  15.270 -0.0870 -0.4299  0.3884
10903TIP3   OH254123   2.365   4.098   4.866 -0.0910  0.0771  0.7622
10903TIP3    H154124   2.305   4.111   4.793 -0.2697 -0.9916  0.7099
10903TIP3    H254125   2.338   4.016   4.906  0.7685  0.0355  1.2920
10904TIP3   OH254126   4.540   4.847   2.692 -0.0089 -0.0941 -0.5543
10904TIP3    H154127   4.505   4.916   2.749  1.4943  1.7705 -1.7813
10904TIP3    H254128   4.620   4.818   2.736  0.7208  0.7830 -1.2533
10905TIP3   OH254129   2.260   5.214  16.849  0.5446 -0.3630 -0.4509
10905TIP3    H154130   2.324   5.167  16.903  0.9959 -2.1236 -2.3985
10905TIP3    H254131   2.178   5.206  16.897  1.2507 -0.3639  0.7989
10906TIP3   OH254132   2.867   0.146  16.005 -0.8324  0.0889 -0.0254
10906TIP3    H154133   2.946   0.200  16.008 -0.3790 -0.5745  0.3800
10906TIP3    H254134   2.803   0.199  15.959  0.0152  0.4345 -0.8521
10907TIP3   OH254135   6.712   3.657  16.356  1.0617 -0.2709  0.1728
10907TIP3    H154136   6.714   3.667  16.261 -0.3626  1.2404  0.2582
10907TIP3    H254137   6.622   3.628  16.375  0.7791  1.1675  1.1624
10908TIP3   OH254138   1.014   3.564  11.832 -0.2302  0.4069  0.2170
10908TIP3    H154139   0.991   3.657  11.838 -0.4761  0.2808  1.3134
10908TIP3    H254140   0.933   3.518  11.854  0.1762 -0.0595  0.7541
10909TIP3   OH254141   2.491   0.553  14.437  0.5389 -0.1795  0.1065
10909TIP3    H154142   2.565   0.527  14.382 -0.7416 -0.1295 -1.7393
10909TIP3    H254143   2.500   0.500  14.516  2.8459  0.2539  0.1953
10910TIP3   OH254144   5.428   0.748  14.712  0.3237 -0.1706  0.0348
10910TIP3    H154145   5.498   0.758  14.776 -0.3307 -0.6695  0.8616
10910TIP3    H254146   5.396   0.836  14.697  1.6711  0.1681 -1.0006
10911TIP3   OH254147   6.453   5.680   0.961  0.1102 -0.0453 -0.1479
10911TIP3    H154148   6.525   5.677   1.024  0.3279  2.3018 -0.2268
10911TIP3    H254149   6.394   5.610   0.990  2.0929 -1.6449  0.2637
10912TIP3   OH254150   5.337   0.674  11.533 -0.1858 -0.0916 -0.2514
10912TIP3    H154151   5.320   0.596  11.586  0.1399 -1.4315 -1.9957
10912TIP3    H254152   5.339   0.641  11.443 -1.2205  2.1448 -1.1716
10913TIP3   OH254153   1.406   6.700   0.026 -0.1301 -0.2047 -0.4279
10913TIP3    H154154   1.475   6.641  -0.004 -0.3857 -0.9536  0.4198
10913TIP3    H254155   1.453   6.779   0.055  0.4905 -1.0587  1.0127
10914TIP3   OH254156   4.666   1.102  16.160  0.2576  0.0935  0.5419
10914TIP3    H154157   4.699   1.192  16.152 -0.2219  0.3247  1.1329
10914TIP3    H254158   4.574   1.112  16.184 -1.0152 -0.4953 -3.3049
10915TIP3   OH254159   3.895   0.913  13.249  0.3175  0.0124 -0.4957
10915TIP3    H154160   3.948   0.964  13.188 -0.3523  1.4761  0.0945
10915TIP3    H254161   3.852   0.847  13.194  2.1491 -0.7670 -1.0792
10916TIP3   OH254162   2.817   2.570  15.469  0.3480 -0.1998 -0.7592
10916TIP3    H154163   2.725   2.592  15.479  0.6353  1.2701 -1.0448
10916TIP3    H254164   2.841   2.603  15.383  1.5857  1.2352  0.0782
10917TIP3   OH254165   0.654   6.011  16.299 -0.6262 -0.1777  0.1804
10917TIP3    H154166   0.609   5.928  16.317 -0.1947 -0.6030 -0.6328
10917TIP3    H254167   0.737   5.985  16.257 -0.7998  0.6775 -0.7423
10918TIP3   OH254168   6.610   5.981  14.486  0.1838  0.0382 -0.8661
10918TIP3    H154169   6.595   5.995  14.393  0.0981  2.2662 -0.5934
10918TIP3    H254170   6.565   6.055  14.528 -0.8556 -1.5811  1.0412
10919TIP3   OH254171   4.921   2.754  16.060 -0.0184  0.3095  0.1837
10919TIP3    H154172   4.967   2.715  16.134  1.1314  2.5378  0.7287
10919TIP3    H254173   4.970   2.725  15.983 -0.7373 -1.3624  0.3208
10920TIP3   OH254174   2.484   3.707   4.794 -0.7135  0.1357  0.3415
10920TIP3    H154175   2.516   3.652   4.723 -0.1810 -0.9919  1.4150
10920TIP3    H254176   2.539   3.785   4.792  0.8795 -0.9258  0.9601
10921TIP3   OH254177   2.078   5.830  10.458 -0.3003 -0.2596  0.8374
10921TIP3    H154178   2.150   5.769  10.441  0.0557  0.2141  0.6206
10921TIP3    H254179   2.000   5.775  10.462  0.0657 -0.7740  1.0123
10922TIP3   OH254180   4.400   2.161  16.760 -0.6129  0.0822 -0.0688
10922TIP3    H154181   4.443   2.155  16.675 -1.6414  1.9411 -0.7773
10922TIP3    H254182   4.451   2.226  16.809 -1.7222  1.2217 -0.3867
10923TIP3   OH254183   0.243   1.167   2.992  0.5389 -0.1361 -0.1782
10923TIP3    H154184   0.248   1.084   3.041  2.3468 -0.2635 -0.4782
10923TIP3    H254185   0.322   1.214   3.019 -0.1159  1.2019 -0.5400
10924TIP3   OH254186   4.632   4.466  11.878 -0.1454 -0.1336 -0.3517
10924TIP3    H154187   4.662   4.554  11.900  1.6418 -1.1709  1.7090
10924TIP3    H254188   4.579   4.439  11.953  0.7900 -1.4440 -0.1305
10925TIP3   OH254189   0.729   1.124   5.224  0.0447  0.2903  0.5245
10925TIP3    H154190   0.653   1.181   5.237  0.6712  1.4629 -0.6455
10925TIP3    H254191   0.743   1.125   5.129  0.5681 -1.1845  0.5658
10926TIP3   OH254192   2.413   6.198   1.052  0.5041 -0.3614 -0.3437
10926TIP3    H154193   2.407   6.175   0.959  1.7828  0.0993 -0.5709
10926TIP3    H254194   2.442   6.289   1.052  1.2003 -0.5683  0.4932
10927TIP3   OH254195   2.913   0.968  12.260  0.7871 -0.0188 -0.2993
10927TIP3    H154196   2.833   0.983  12.312 -0.6995  1.1893 -2.7556
10927TIP3    H254197   2.969   1.042  12.280  1.6424 -1.1647  1.8889
10928TIP3   OH254198   0.062   5.513   3.788 -0.3623 -0.4089 -0.0187
10928TIP3    H154199  -0.006   5.455   3.824 -0.5307 -0.8882 -1.0870
10928TIP3    H254200   0.131   5.454   3.758 -0.2766 -0.0241 -0.5905
10929TIP3   OH254201   3.627   5.179   6.443  0.1009  0.0462 -0.0323
10929TIP3    H154202   3.694   5.110   6.446 -0.1346 -0.2128 -0.6036
10929TIP3    H254203   3.586   5.176   6.530  1.4902  0.8765  0.6891
10930TIP3   OH254204   2.481   4.268   3.016 -1.0150 -0.3629 -0.4428
10930TIP3    H154205   2.575   4.282   3.003 -0.7885 -1.8438 -0.5818
10930TIP3    H254206   2.447   4.354   3.037  0.5603  0.0249  0.6964
10931TIP3   OH254207   2.561   0.895   6.032  0.0135  0.1351 -0.0910
10931TIP3    H154208   2.646   0.862   6.003 -0.6490 -0.5305 -1.3392
10931TIP3    H254209   2.555   0.982   5.994  0.4544  0.5192  0.6735
10932TIP3   OH254210   4.485   5.950  15.568 -0.1982  0.1391  0.1682
10932TIP3    H154211   4.568   5.999  15.573  0.2278 -0.4767 -0.6843
10932TIP3    H254212   4.487   5.908  15.482 -1.9250  1.0394 -0.3719
10933TIP3   OH254213   0.926   2.008  11.655  0.0741  0.0013 -0.9250
10933TIP3    H154214   0.896   1.967  11.574 -0.0049  0.1699 -0.9801
10933TIP3    H254215   0.984   1.942  11.694 -1.9880 -1.2269  0.2475
10934TIP3   OH254216   0.425   3.364   0.990  0.0398  0.4516  0.0396
10934TIP3    H154217   0.354   3.400   1.042 -1.6368 -0.7787 -1.2795
10934TIP3    H254218   0.395   3.372   0.899  0.0866 -2.8936 -0.4136
10935TIP3   OH254219   2.108   3.695  14.106  0.1507 -0.4401 -0.1763
10935TIP3    H154220   2.084   3.608  14.074 -0.2324 -0.4911  0.2410
10935TIP3    H254221   2.154   3.678  14.188 -0.7338 -0.2096  0.3780
10936TIP3   OH254222   5.693   3.429   5.319 -0.0998 -0.6576 -0.1565
10936TIP3    H154223   5.625   3.478   5.365 -0.2042  0.5257 -1.4911
10936TIP3    H254224   5.742   3.385   5.388 -1.2055 -0.2073  0.9517
10937TIP3   OH254225   0.752   3.066  14.092 -0.3499  0.6132 -0.4053
10937TIP3    H154226   0.797   3.125  14.032  0.2180  0.5957 -0.0145
10937TIP3    H254227   0.775   2.979  14.061  1.0210  0.5855  0.5679
10938TIP3   OH254228   1.510   1.671   1.662  1.0729 -0.4366 -0.2849
10938TIP3    H154229   1.552   1.600   1.614 -1.9670 -2.0745 -0.7834
10938TIP3    H254230   1.483   1.632   1.745 -0.6133  0.0802 -0.5536
10939TIP3   OH254231   0.856   0.634  12.577  0.2788  0.1216  0.4528
10939TIP3    H154232   0.817   0.706  12.529  0.8094  0.9692  1.2425
10939TIP3    H254233   0.888   0.675  12.658  0.1407 -1.0970  1.1398
10940TIP3   OH254234   1.315   2.725  11.226  0.4443  0.1496  0.0654
10940TIP3    H154235   1.306   2.760  11.137  1.4720 -2.4832 -1.1609
10940TIP3    H254236   1.281   2.636  11.221  1.0571 -0.2631  2.1874
10941TIP3   OH254237   5.930   4.652  11.561  0.1715  0.1758 -0.1807
10941TIP3    H154238   5.987   4.582  11.592 -0.9785 -0.6966  0.0407
10941TIP3    H254239   5.870   4.608  11.501  0.0913  1.1823 -0.8568
10942TIP3   OH254240   1.815   2.856   4.568  0.1289 -0.0371  0.1991
10942TIP3    H154241   1.826   2.948   4.545  0.7307 -0.0077  0.5859
10942TIP3    H254242   1.753   2.822   4.503  0.9822  0.2997 -0.8035
10943TIP3   OH254243   0.117   0.179   2.431  0.9745 -0.1647 -0.2254
10943TIP3    H154244   0.171   0.205   2.506 -2.0883  2.7317  1.2612
10943TIP3    H254245   0.065   0.106   2.464  1.1599 -0.3121 -0.2607
10944TIP3   OH254246   0.477   0.487   6.152 -0.2337  0.6376  0.7931
10944TIP3    H154247   0.455   0.398   6.126 -0.3985  1.1753 -1.0430
10944TIP3    H254248   0.572   0.488   6.158 -0.2302  0.3482  0.8050
10945TIP3   OH254249   3.349   6.669   3.910 -0.2778 -0.1008 -0.1053
10945TIP3    H154250   3.315   6.664   3.999 -1.6031  1.2087 -0.5032
10945TIP3    H254251   3.412   6.741   3.912  1.8445 -1.8395  0.3714
10946TIP3   OH254252   0.913   0.570   5.663  0.1511  0.0385  0.5305
10946TIP3    H154253   0.838   0.513   5.679  0.4759 -0.5540  0.0086
10946TIP3    H254254   0.970   0.556   5.738 -0.1534  0.3204  0.8195
10947TIP3   OH254255   6.111   0.675  15.003 -0.2390  0.0971 -0.5325
10947TIP3    H154256   6.043   0.669  15.071 -2.0149  2.5247 -1.9616
10947TIP3    H254257   6.085   0.609  14.939 -1.2445  0.9257 -1.0115
10948TIP3   OH254258   5.044   2.029  13.202  0.4325  0.3469 -0.9406
10948TIP3    H154259   5.024   2.062  13.290  1.1112 -1.1562 -0.1789
10948TIP3    H254260   4.993   2.085  13.144 -3.3162 -1.0846  0.6401
10949TIP3   OH254261   6.046   1.380   1.520 -0.6898  0.2335  0.1412
10949TIP3    H154262   6.132   1.380   1.479  0.0579  0.3090  1.6717
10949TIP3    H254263   5.996   1.444   1.469  0.1803  0.2746 -0.6938
10950TIP3   OH254264   6.698   4.565  13.488  0.2409  0.0039  0.1295
10950TIP3    H154265   6.773   4.569  13.428 -0.0776  0.3766 -0.2523
10950TIP3    H254266   6.623   4.546  13.431 -0.2024  1.2146  0.2738
10951TIP3   OH254267   5.847   3.719   1.973  0.2940  0.1967 -0.3213
10951TIP3    H154268   5.759   3.692   1.999  0.9969 -2.9505 -0.7684
10951TIP3    H254269   5.854   3.810   2.002 -1.9306 -0.4442  2.7430
10952TIP3   OH254270   4.086   1.300  15.600  0.2370 -0.4517 -0.4266
10952TIP3    H154271   4.086   1.256  15.685  1.8202 -1.0546 -0.6926
10952TIP3    H254272   4.056   1.232  15.539  4.5706 -2.0300 -1.1421
10953TIP3   OH254273   3.215   2.861  10.576  0.4801 -0.0668  0.2396
10953TIP3    H154274   3.281   2.799  10.545 -0.1516  0.3624 -2.1589
10953TIP3    H254275   3.131   2.822  10.552  0.0218  1.0374 -0.0530
10954TIP3   OH254276   2.153   5.558  14.674 -0.8529 -0.6020 -0.1065
10954TIP3    H154277   2.112   5.500  14.610  1.0498  0.3221 -2.3000
10954TIP3    H254278   2.118   5.644  14.654  2.4860  0.3982 -2.6829
10955TIP3   OH254279   2.006   4.866   5.541  0.2347  0.6308  0.0919
10955TIP3    H154280   1.911   4.863   5.550 -0.1463  0.0261 -3.1235
10955TIP3    H254281   2.034   4.775   5.541  0.6286  0.7461 -0.5136
10956TIP3   OH254282   3.868   4.110   4.664  0.4085 -0.1635  0.0994
10956TIP3    H154283   3.809   4.048   4.706  0.5518 -0.5461 -0.2577
10956TIP3    H254284   3.944   4.113   4.722  0.2500 -0.0467  0.3038
10957TIP3   OH254285   3.255   3.423   4.813  0.3199  0.3585 -0.0967
10957TIP3    H154286   3.163   3.447   4.824  0.3294  0.4662 -0.2436
10957TIP3    H254287   3.285   3.476   4.739  0.7972  1.1375  0.6384
10958TIP3   OH254288   5.206   4.914   2.376 -0.0834  0.1320  0.7189
10958TIP3    H154289   5.174   4.922   2.286  0.8531  2.3972  0.5096
10958TIP3    H254290   5.187   4.824   2.401 -1.7965 -0.0965 -1.1837
10959TIP3   OH254291   0.574   0.797   2.201  0.0073  0.0704 -0.1726
10959TIP3    H154292   0.602   0.719   2.153  0.1317 -0.1154  0.2017
10959TIP3    H254293   0.656   0.838   2.230 -0.0968 -0.5359  1.0234
10960TIP3   OH254294   5.543   6.396   4.468 -0.7364  0.2460 -0.4851
10960TIP3    H154295   5.593   6.475   4.450  0.8493 -0.7931 -0.8292
10960TIP3    H254296   5.578   6.330   4.408 -3.5300 -0.2116 -1.8058
10961TIP3   OH254297   5.786   3.019  11.500 -0.9275  0.4122 -0.2251
10961TIP3    H154298   5.755   3.001  11.411 -0.0206 -0.7873 -0.3233
10961TIP3    H254299   5.822   2.935  11.530  3.2259  1.8696 -0.5084
10962TIP3   OH254300   1.959   5.741  13.593  0.4231 -0.1201 -0.4229
10962TIP3    H154301   1.930   5.793  13.518  1.0026 -0.5555 -0.9699
10962TIP3    H254302   1.952   5.799  13.668 -0.1500  0.3305 -0.8231
10963TIP3   OH254303   3.728   5.836   3.106 -0.3817  0.0038  0.3111
10963TIP3    H154304   3.661   5.861   3.042 -0.1053  0.6092  0.2534
10963TIP3    H254305   3.678   5.813   3.185 -0.6392  1.3096  0.5556
10964TIP3   OH254306   6.252   1.902  13.420 -0.8420 -0.5499  0.2471
10964TIP3    H154307   6.177   1.862  13.375 -0.0890 -1.7934  0.0610
10964TIP3    H254308   6.213   1.959  13.486 -1.9505 -0.7091 -0.2537
10965TIP3   OH254309   6.326   6.564   1.197  0.4922 -0.0650 -0.0623
10965TIP3    H154310   6.399   6.513   1.231  0.5087  0.0427  0.0601
10965TIP3    H254311   6.271   6.582   1.274  1.5125  1.8463  0.2625
10966TIP3   OH254312   6.490   5.972   3.674 -0.3681  0.3499  0.2226
10966TIP3    H154313   6.572   5.926   3.658  0.6476  1.4344  1.9866
10966TIP3    H254314   6.445   5.919   3.740 -0.3495  0.5597  0.4066
10967TIP3   OH254315   2.436   1.977   4.277 -0.5427 -0.0544 -0.3235
10967TIP3    H154316   2.528   1.951   4.273 -0.3116  0.6680  0.1706
10967TIP3    H254317   2.428   2.048   4.213 -0.4197  0.8330  0.6095
10968TIP3   OH254318   6.765   0.552   5.047  0.3706  0.0096  0.0858
10968TIP3    H154319   6.712   0.474   5.028  0.9884  0.0888 -2.1920
10968TIP3    H254320   6.705   0.625   5.038  0.0039 -0.0977  1.3570
10969TIP3   OH254321   0.457   0.180  14.306 -0.4868 -0.1424  0.4002
10969TIP3    H154322   0.516   0.221  14.242 -0.7928 -0.7635 -0.2873
10969TIP3    H254323   0.514   0.157  14.379 -0.0205  0.0088  0.0898
10970TIP3   OH254324   5.677   5.002   5.878  0.4176 -0.1701  0.2370
10970TIP3    H154325   5.727   4.954   5.944  1.5536  0.6095 -0.0431
10970TIP3    H254326   5.687   5.094   5.902  0.6392  0.1062 -0.8816
10971TIP3   OH254327   4.552   6.234  15.804 -0.4972  0.0947  0.2860
10971TIP3    H154328   4.587   6.179  15.734 -0.3424  1.2013 -0.5377
10971TIP3    H254329   4.587   6.196  15.884  1.0962  0.0541 -0.3892
10972TIP3   OH254330   4.394   5.399   3.650 -0.2421  0.3160  0.0074
10972TIP3    H154331   4.426   5.489   3.652 -0.1264  0.3709 -2.1317
10972TIP3    H254332   4.328   5.395   3.720  0.4450  1.7561  0.7800
10973TIP3   OH254333   5.358   3.058   6.641 -0.3145  0.2111 -0.0038
10973TIP3    H154334   5.346   3.153   6.642  0.9013  0.3916 -0.4959
10973TIP3    H254335   5.447   3.046   6.674  0.1037 -0.6543 -1.3860
10974TIP3   OH254336   5.657   5.946   1.679  0.3002  0.1369 -0.4800
10974TIP3    H154337   5.635   5.882   1.746 -1.5048  0.9867 -0.1939
10974TIP3    H254338   5.666   6.029   1.726 -0.0914  0.5839 -1.1707
10975TIP3   OH254339   4.608   3.803   2.695  0.5352  0.2860  0.4438
10975TIP3    H154340   4.518   3.815   2.727 -0.6859  0.4671 -2.7169
10975TIP3    H254341   4.633   3.716   2.726 -0.7276  0.2241  1.3743
10976TIP3   OH254342   4.085   0.594  14.070  0.1089  0.1790  0.2561
10976TIP3    H154343   4.096   0.531  13.999  2.0158  0.0542  0.6004
10976TIP3    H254344   4.089   0.680  14.027  4.0972  0.2320  0.3341
10977TIP3   OH254345   2.499   6.762   1.058  0.5500 -0.1909 -0.0251
10977TIP3    H154346   2.561   6.790   0.990  1.6779  1.3854  1.5634
10977TIP3    H254347   2.415   6.797   1.029  1.0180  0.5081 -0.5924
10978TIP3   OH254348   0.617   5.208  13.792 -0.5241  0.2257  0.6478
10978TIP3    H154349   0.563   5.224  13.870  2.6574 -0.3886  3.1975
10978TIP3    H254350   0.583   5.127  13.755 -1.5685  0.0450  1.9272
10979TIP3   OH254351   6.035   5.939   6.530 -0.1678  0.3708 -0.2837
10979TIP3    H154352   5.953   5.898   6.502 -1.0649  0.8799  1.4389
10979TIP3    H254353   6.055   6.003   6.462  0.3267 -1.6449 -2.1351
10980TIP3   OH254354   0.926   5.816  11.389  0.6963 -0.2136 -0.3954
10980TIP3    H154355   0.889   5.780  11.308 -0.1304 -0.8553  0.2562
10980TIP3    H254356   0.888   5.763  11.459 -0.6706  1.9699  0.6221
10981TIP3   OH254357   3.424   3.143   6.361 -0.1008 -0.0215 -0.4052
10981TIP3    H154358   3.330   3.161   6.351 -0.7641 -1.3601  2.4728
10981TIP3    H254359   3.461   3.226   6.391 -0.7719 -0.0009  0.4094
10982TIP3   OH254360   6.428   4.524  12.947 -0.1278  0.3542 -0.1902
10982TIP3    H154361   6.396   4.478  12.870  1.4717  0.1858 -0.7869
10982TIP3    H254362   6.348   4.550  12.994 -1.1084 -0.4110 -1.3647
10983TIP3   OH254363   6.453   5.661   3.484  0.1723 -0.1424 -0.0334
10983TIP3    H154364   6.408   5.705   3.412 -0.5772  0.6681  0.9016
10983TIP3    H254365   6.473   5.574   3.450  0.8324  0.5597 -1.6024
10984TIP3   OH254366   1.058   6.768  15.275  0.4424 -0.8005 -0.1736
10984TIP3    H154367   1.093   6.697  15.220 -0.6792 -1.6261  0.1625
10984TIP3    H254368   0.999   6.816  15.217  1.1501 -0.1600 -0.3816
10985TIP3   OH254369   0.217   4.120  13.128 -0.7613  0.2230  0.3049
10985TIP3    H154370   0.133   4.077  13.144 -0.1212 -1.4513 -0.6907
10985TIP3    H254371   0.266   4.060  13.073  1.7887  0.3555  2.2195
10986TIP3   OH254372   0.603   6.462   1.370 -0.3428  0.2891  0.5291
10986TIP3    H154373   0.622   6.469   1.464 -1.5082 -0.4892  0.8557
10986TIP3    H254374   0.599   6.368   1.354 -0.8222  0.4234 -0.1584
10987TIP3   OH254375   2.074   1.324   1.569  0.0419  0.1625 -0.2084
10987TIP3    H154376   2.077   1.232   1.595  0.3981 -0.1106 -1.1642
10987TIP3    H254377   2.093   1.323   1.475  0.3000  1.2306 -0.1813
10988TIP3   OH254378   4.081   1.331  11.565 -0.0220  0.0765  0.2440
10988TIP3    H154379   4.072   1.244  11.604  0.6507 -0.1172 -0.0238
10988TIP3    H254380   4.175   1.343  11.553 -0.0779  0.9924  0.6099
10989TIP3   OH254381   2.093   0.032  10.436  0.3858 -0.0760 -0.3847
10989TIP3    H154382   2.113  -0.035  10.370  0.4346 -0.0086 -0.4387
10989TIP3    H254383   2.161   0.098  10.424  0.4802 -0.1329 -0.1713
10990TIP3   OH254384   4.966   1.082  13.805  0.6167 -0.4316  0.7748
10990TIP3    H154385   4.958   1.131  13.723  1.6197 -1.5565 -0.0311
10990TIP3    H254386   4.884   1.032  13.810  0.0520  0.4838  1.0681
10991TIP3   OH254387   2.812   2.076   5.236  0.6533  0.1510 -0.4762
10991TIP3    H154388   2.719   2.052   5.238  0.9143 -0.8789  0.2819
10991TIP3    H254389   2.826   2.109   5.147 -0.5317  0.7422 -0.4621
10992TIP3   OH254390   4.404   5.746   5.315 -0.6697 -0.3533  0.1976
10992TIP3    H154391   4.498   5.728   5.325 -0.5938  0.1650  0.4838
10992TIP3    H254392   4.364   5.660   5.305 -0.2303 -0.6256  0.6941
10993TIP3   OH254393   2.131   3.762   2.166  0.5010 -0.4442 -0.0461
10993TIP3    H154394   2.206   3.759   2.226  0.8865  1.6982 -0.3482
10993TIP3    H254395   2.054   3.766   2.224  0.8956  2.2294  0.4266
10994TIP3   OH254396   2.268   3.610   1.733  0.3709 -0.4340  0.1259
10994TIP3    H154397   2.237   3.571   1.814  1.3820  1.2163  1.3762
10994TIP3    H254398   2.339   3.554   1.704  0.3741 -0.7310  0.6963
10995TIP3   OH254399   5.311   1.020  14.706  0.1894  0.2037 -0.4044
10995TIP3    H154400   5.299   1.031  14.612 -2.7451 -0.6685 -0.2057
10995TIP3    H254401   5.327   1.109  14.738 -2.3829  1.0956 -1.3448
10996TIP3   OH254402   3.675   3.987   4.802 -0.4606 -0.3959 -0.2074
10996TIP3    H154403   3.582   3.967   4.805 -1.1599  2.4528  2.1596
10996TIP3    H254404   3.707   3.968   4.890  0.9403 -0.3375 -0.6769
10997TIP3   OH254405   0.392   4.172   0.090  0.1979 -0.4781  0.5842
10997TIP3    H154406   0.450   4.162   0.014  1.2595 -1.1054  1.4598
10997TIP3    H254407   0.334   4.095   0.085 -2.4721  1.4507 -1.8015
10998TIP3   OH254408   1.738   0.510  10.994 -0.3504  0.3903  0.2852
10998TIP3    H154409   1.671   0.460  10.948 -1.2000  2.2742 -0.6362
10998TIP3    H254410   1.812   0.515  10.933 -1.1761  2.2063 -0.6582
10999TIP3   OH254411   5.236   5.347   0.213  0.6823  0.5278  0.3933
10999TIP3    H154412   5.250   5.439   0.189 -0.6709 -0.0020 -3.0127
10999TIP3    H254413   5.141   5.337   0.215  0.8103 -0.8532  0.4444
11000TIP3   OH254414   2.921   2.173   4.554  0.7955 -0.2459 -0.1263
11000TIP3    H154415   2.845   2.214   4.594 -0.4283 -2.3168 -0.2161
11000TIP3    H254416   2.990   2.239   4.561 -0.9496  1.6625  0.0320
11001TIP3   OH254417   5.247   2.890   2.166  0.7396  0.1207  0.3627
11001TIP3    H154418   5.210   2.817   2.116  0.1037 -0.4367  1.6010
11001TIP3    H254419   5.340   2.871   2.171  0.6300 -0.4334  0.3771
11002TIP3   OH254420   3.483   3.936  12.362 -0.6042 -0.0897  0.1444
11002TIP3    H154421   3.559   3.901  12.407  0.9188  2.4842 -0.2412
11002TIP3    H254422   3.478   4.028  12.388 -3.4077 -0.0497 -0.1207
11003TIP3   OH254423   1.178   3.179   5.284 -0.2905 -0.5149 -0.2273
11003TIP3    H154424   1.200   3.265   5.248 -1.2009 -1.1655 -2.5221
11003TIP3    H254425   1.083   3.171   5.272 -0.4911 -1.1715  1.5520
11004TIP3   OH254426   5.555   0.493   1.677 -0.1549 -0.0979  0.4834
11004TIP3    H154427   5.637   0.447   1.690  0.4296  1.3237  2.3098
11004TIP3    H254428   5.521   0.460   1.594  2.0698 -0.9813 -0.1293
11005TIP3   OH254429   6.698   6.268   3.918 -0.1416  0.0311  0.0123
11005TIP3    H154430   6.691   6.363   3.931  0.0002 -0.1061  1.1670
11005TIP3    H254431   6.642   6.250   3.842 -0.5804  0.9688  0.0975
11006TIP3   OH254432   6.516   1.312  13.517 -0.3122 -0.4861  0.1112
11006TIP3    H154433   6.526   1.356  13.433  0.0106  0.3252  0.5658
11006TIP3    H254434   6.430   1.269  13.511 -1.0495  0.9326 -0.0208
11007TIP3   OH254435   0.320   5.840  14.029 -0.0658  0.1773  0.3141
11007TIP3    H154436   0.303   5.842  14.123 -0.4392  0.7803  0.2439
11007TIP3    H254437   0.302   5.749  14.003 -1.2011  0.3000  0.6172
11008TIP3   OH254438   3.076   0.634  11.054  0.2707  0.6926  0.0809
11008TIP3    H154439   2.982   0.641  11.069 -0.2934 -1.8113 -1.7067
11008TIP3    H254440   3.105   0.724  11.041 -2.0663  1.4565 -0.2736
11009TIP3   OH254441   0.407   2.867   4.039 -0.4744 -0.2465  0.1939
11009TIP3    H154442   0.320   2.905   4.033 -0.5149 -0.4568 -0.8508
11009TIP3    H254443   0.423   2.830   3.952  0.9265  0.3979  0.1333
11010TIP3   OH254444   0.152   3.817   4.160  0.1345  0.3041 -0.6107
11010TIP3    H154445   0.115   3.789   4.243  0.1274 -0.5363 -0.8849
11010TIP3    H254446   0.112   3.759   4.095  0.4467  0.6783 -1.1440
11011TIP3   OH254447   5.978   4.053  16.827 -0.3425 -0.3528  0.9698
11011TIP3    H154448   5.925   4.130  16.807  0.6969  0.1870  0.1888
11011TIP3    H254449   5.920   3.995  16.876 -1.2899  0.7164  1.1349
11012TIP3   OH254450   0.103   3.745  12.698  0.6890  0.5380  0.1553
11012TIP3    H154451   0.135   3.679  12.759 -1.2033 -1.8622 -1.2624
11012TIP3    H254452   0.151   3.727  12.617 -1.5319 -0.8121 -0.9572
11013TIP3   OH254453   6.025   4.769   4.026  0.3990 -0.2809  0.0032
11013TIP3    H154454   5.979   4.688   4.003 -0.0968  0.2158 -0.8281
11013TIP3    H254455   6.115   4.755   3.997  0.4821 -0.7896  0.4917
11014TIP3   OH254456   0.265   4.604   2.918 -0.1315 -0.0887  0.1283
11014TIP3    H154457   0.248   4.510   2.926  1.4008 -0.6572 -2.2515
11014TIP3    H254458   0.322   4.625   2.992  1.1029 -1.4939 -0.3855
11015TIP3   OH254459   0.583   5.127   2.160  0.5664 -0.1640  0.4712
11015TIP3    H154460   0.539   5.054   2.116 -0.3850 -0.2933  1.5752
11015TIP3    H254461   0.553   5.205   2.114  0.5739 -0.3737  0.1048
11016TIP3   OH254462   1.613   4.994  16.722  0.0301  0.2773  0.2226
11016TIP3    H154463   1.704   4.969  16.735 -0.0467 -0.6776 -0.8931
11016TIP3    H254464   1.614   5.040  16.638 -0.6244 -0.4049 -0.1648
11017TIP3   OH254465   4.123   5.563   5.046  0.4917  0.2982 -0.2032
11017TIP3    H154466   4.029   5.563   5.026 -0.2913 -0.7219  2.9529
11017TIP3    H254467   4.146   5.470   5.050  1.2605  0.5094  0.5378
11018TIP3   OH254468   0.092   0.975  10.795 -0.3491 -0.2659  0.3144
11018TIP3    H154469   0.083   0.909  10.864 -0.5457 -0.1917  0.3605
11018TIP3    H254470   0.098   0.925  10.714  0.3817 -0.3729  0.4316
11019TIP3   OH254471   4.710   3.569  11.049  0.0408  0.3145  0.1821
11019TIP3    H154472   4.682   3.478  11.036 -0.8267  0.8328 -1.8896
11019TIP3    H254473   4.780   3.563  11.115  0.2564 -1.8985 -0.1711
11020TIP3   OH254474   1.861   6.306   3.238  0.2873  0.3580  0.0871
11020TIP3    H154475   1.949   6.342   3.233 -0.2112  1.6736  0.5711
11020TIP3    H254476   1.807   6.366   3.187 -0.7108  0.8277  1.6324
11021TIP3   OH254477   2.450   4.588   5.177 -0.4217  0.5124  0.1764
11021TIP3    H154478   2.431   4.504   5.134  2.3869 -0.0551 -0.1839
11021TIP3    H254479   2.371   4.609   5.225 -2.2058 -0.9489 -1.9286
11022TIP3   OH254480   6.679   6.668  15.476  0.1105  0.2387  0.2523
11022TIP3    H154481   6.720   6.681  15.561 -0.1372 -0.6521  0.5173
11022TIP3    H254482   6.751   6.656  15.415  0.2790  0.5599  0.3867
11023TIP3   OH254483   1.807   4.828  15.971 -0.0698 -0.0571 -0.5809
11023TIP3    H154484   1.769   4.743  15.947 -0.5318  0.0470 -0.2284
11023TIP3    H254485   1.760   4.892  15.919  0.3478 -0.0171 -0.9203
11024TIP3   OH254486   6.436   2.509  14.652  0.0546 -0.2705  0.2883
11024TIP3    H154487   6.528   2.526  14.671  0.3279 -3.2039  2.2987
11024TIP3    H254488   6.388   2.550  14.724 -0.1136 -0.0182  0.0386
11025TIP3   OH254489   5.132   0.333   5.612 -0.2335  0.5324  0.1525
11025TIP3    H154490   5.083   0.411   5.586  0.0165  0.8664  0.6693
11025TIP3    H254491   5.198   0.322   5.543 -0.6299  0.4414 -0.2186
11026TIP3   OH254492   0.951   3.899  12.403  0.3232  0.6674  0.6936
11026TIP3    H154493   0.901   3.979  12.386 -1.0431  0.1450  1.9967
11026TIP3    H254494   0.940   3.846  12.324  0.3541  1.3179  0.2463
11027TIP3   OH254495   6.426   6.157  13.148 -0.2403  0.0688 -0.4694
11027TIP3    H154496   6.424   6.078  13.095 -0.2884  0.7379 -1.5088
11027TIP3    H254497   6.430   6.126  13.238 -1.6040 -1.1327 -0.7745
11028TIP3   OH254498   3.225   6.471  15.804  0.3806 -0.7281 -0.5791
11028TIP3    H154499   3.156   6.430  15.752  0.4584 -1.3337 -0.2157
11028TIP3    H254500   3.183   6.548  15.843 -0.1860 -1.2771 -0.0894
11029TIP3   OH254501   2.338   2.720  12.957  0.2833 -0.2625  0.1007
11029TIP3    H154502   2.335   2.628  12.983  2.3016  0.0284  1.6527
11029TIP3    H254503   2.420   2.753  12.995  0.6925  1.6574 -2.1542
11030TIP3   OH254504   1.160   3.150   1.706  0.2204 -0.3525  0.1987
11030TIP3    H154505   1.205   3.065   1.706 -1.0013 -1.0277  0.0161
11030TIP3    H254506   1.137   3.165   1.615 -0.4025 -0.2822  0.3647
11031TIP3   OH254507   6.356   6.520  15.999  0.0965 -0.4256 -0.0853
11031TIP3    H154508   6.352   6.526  16.095  0.0753 -0.5614 -0.0769
11031TIP3    H254509   6.440   6.559  15.976 -0.6210  1.1917 -0.1371
11032TIP3   OH254510   0.836   5.203  12.882 -0.4854 -0.2365  0.2790
11032TIP3    H154511   0.809   5.112  12.869 -1.0747 -0.0047 -0.1383
11032TIP3    H254512   0.932   5.200  12.880 -0.3792 -1.2535  3.0240
11033TIP3   OH254513   3.074   6.172  13.719 -0.0996 -1.0968  0.3577
11033TIP3    H154514   3.089   6.220  13.801  1.2254  0.6899 -0.8338
11033TIP3    H254515   3.013   6.103  13.742  1.2233 -1.4882  3.1412
11034TIP3   OH254516   5.143   6.253  15.905  0.0210 -0.0547  0.5424
11034TIP3    H154517   5.090   6.332  15.909  0.2013  0.1025 -0.1191
11034TIP3    H254518   5.224   6.276  15.951 -0.1454 -0.0317  0.8268
11035TIP3   OH254519   4.438   2.794   4.990 -0.0032 -0.2490 -0.5285
11035TIP3    H154520   4.416   2.844   4.912  0.8357  0.5039 -0.3039
11035TIP3    H254521   4.533   2.804   4.999  0.2555 -2.2025 -0.6839
11036TIP3   OH254522   4.853   6.027   5.576  0.0834 -0.0223 -0.1153
11036TIP3    H154523   4.766   6.013   5.540  0.3346 -1.4361 -0.2164
11036TIP3    H254524   4.862   5.960   5.643  1.2635 -0.1615 -0.3993
11037TIP3   OH254525   6.396   4.707   3.382  0.8229  0.1898  0.5220
11037TIP3    H154526   6.471   4.727   3.438 -1.4656  0.7356  3.6694
11037TIP3    H254527   6.360   4.793   3.358  0.7637 -0.0636 -0.3286
11038TIP3   OH254528   2.910   4.537  16.428  0.1228  0.1774  0.2872
11038TIP3    H154529   2.973   4.609  16.418  1.8678 -1.1751  1.0196
11038TIP3    H254530   2.850   4.566  16.497  0.9085  0.8573  0.6933
11039TIP3   OH254531   6.642   3.879   0.882  0.3778 -0.2708  0.4284
11039TIP3    H154532   6.563   3.929   0.861  0.8841  0.7878  0.9455
11039TIP3    H254533   6.618   3.788   0.867 -1.1100 -0.0157  1.0683
11040TIP3   OH254534   3.365   6.226   0.301 -0.6060  0.2501  0.4708
11040TIP3    H154535   3.352   6.309   0.255  0.1999 -0.9094 -1.9790
11040TIP3    H254536   3.460   6.211   0.299 -0.7695 -0.9086  0.5459
11041TIP3   OH254537   0.631   2.860   2.884 -0.0229  0.2585  0.1669
11041TIP3    H154538   0.714   2.837   2.842 -0.2728 -3.0594  1.1925
11041TIP3    H254539   0.567   2.801   2.843 -1.4111  1.1024  1.0600
11042TIP3   OH254540   0.544   6.634   3.626  0.3949 -0.7379  0.4080
11042TIP3    H154541   0.630   6.600   3.651  0.1375 -1.1116  0.7956
11042TIP3    H254542   0.482   6.564   3.650  0.1007 -1.0039 -0.9905
11043TIP3   OH254543   3.310   5.062   6.533  0.1210  0.1590 -0.5189
11043TIP3    H154544   3.234   5.023   6.577 -0.4204 -1.9945 -3.0849
11043TIP3    H254545   3.272   5.123   6.469  0.6121 -0.0454 -1.0117
11044TIP3   OH254546   4.808   0.473  12.222  0.8013  0.1002 -0.3542
11044TIP3    H154547   4.847   0.546  12.174  0.5932  0.1837 -0.3946
11044TIP3    H254548   4.731   0.511  12.264 -0.6006 -0.6050 -2.1689
11045TIP3   OH254549   3.004   6.612   4.311 -0.0855  0.1492 -0.4135
11045TIP3    H154550   3.032   6.565   4.390  0.9598  1.1714 -0.1510
11045TIP3    H254551   2.931   6.560   4.277 -1.0942  0.1121  1.6576
11046TIP3   OH254552   6.066   4.405   4.364  0.4284  0.3626  0.0161
11046TIP3    H154553   5.983   4.449   4.382 -0.3529 -0.2265 -1.9842
11046TIP3    H254554   6.114   4.466   4.308  0.8171  0.1248  0.0850
11047TIP3   OH254555   1.904   6.656   2.473 -0.5736 -0.5234  0.1735
11047TIP3    H154556   1.887   6.587   2.537  1.1246 -1.1048  0.0232
11047TIP3    H254557   1.997   6.649   2.453 -0.5753  1.1503 -0.6239
11048TIP3   OH254558   0.474   0.714   0.030  0.6682 -0.1081  0.1272
11048TIP3    H154559   0.492   0.775   0.101  0.7630 -2.1951  1.9931
11048TIP3    H254560   0.556   0.666   0.018 -0.3884 -2.3481  1.2739
11049TIP3   OH254561   3.659   2.299   4.554 -0.0075  0.0695  0.0454
11049TIP3    H154562   3.613   2.249   4.487  0.9684 -1.0655  0.2033
11049TIP3    H254563   3.588   2.334   4.610 -0.7274 -0.7756 -0.3171
11050TIP3   OH254564   4.338   1.342  17.266 -0.2956 -0.1604 -0.3477
11050TIP3    H154565   4.247   1.368  17.250  0.1518  1.0377 -1.0879
11050TIP3    H254566   4.339   1.311  17.356 -1.7709 -1.7597 -0.8236
11051TIP3   OH254567   4.807   5.597   0.954 -0.0226  0.9166  0.3698
11051TIP3    H154568   4.715   5.605   0.932  0.2418  1.2224 -0.6993
11051TIP3    H254569   4.833   5.511   0.922 -0.1894  0.3490  1.6942
11052TIP3   OH254570   2.490   2.583   3.803  0.4782  0.1672  0.4180
11052TIP3    H154571   2.485   2.488   3.816  1.0926  0.1368  0.4488
11052TIP3    H254572   2.580   2.606   3.829 -0.4091  1.1498  2.9825
11053TIP3   OH254573   5.119   6.376   3.200 -0.3078 -0.6849  0.7152
11053TIP3    H154574   5.135   6.315   3.273  0.1286 -1.3811  0.0498
11053TIP3    H254575   5.205   6.392   3.162 -0.4405  0.2467  0.7826
11054TIP3   OH254576   2.935   3.903   0.257  0.1735 -0.1465 -0.1474
11054TIP3    H154577   2.849   3.945   0.266  0.8035  0.9499  1.2090
11054TIP3    H254578   2.938   3.840   0.329  0.4756 -0.2064 -0.2138
11055TIP3   OH254579   5.689   2.709   5.482  0.3295 -0.4637 -0.4933
11055TIP3    H154580   5.742   2.744   5.411  0.6547 -0.0772 -0.0623
11055TIP3    H254581   5.618   2.662   5.438  0.1563  0.3222 -1.0870
11056TIP3   OH254582   5.604   4.395   6.315  0.7734  0.7876  0.1219
11056TIP3    H154583   5.600   4.347   6.398  1.2480  1.8481  0.7806
11056TIP3    H254584   5.600   4.487   6.340  1.7813  1.1511 -0.9625
11057TIP3   OH254585   0.766   3.694  11.575 -0.2666 -0.0313  0.5162
11057TIP3    H154586   0.834   3.645  11.527 -1.0701 -0.2502 -0.4364
11057TIP3    H254587   0.810   3.775  11.602  0.0253  0.4624 -1.2857
11058TIP3   OH254588   4.877   5.987  12.581  0.0468  0.3408 -0.1103
11058TIP3    H154589   4.882   5.894  12.605 -1.3615  0.1952 -0.2784
11058TIP3    H254590   4.821   5.988  12.503 -2.2577  1.5240  1.4321
11059TIP3   OH254591   3.797   0.366  13.380 -0.3020  0.4253 -0.3894
11059TIP3    H154592   3.751   0.438  13.423 -2.1432 -0.4987 -0.7137
11059TIP3    H254593   3.875   0.352  13.434 -0.3005  2.1256  0.1171
11060TIP3   OH254594   0.380   3.689   3.665 -0.0226  1.3698 -0.2647
11060TIP3    H154595   0.365   3.777   3.699 -0.5926  1.2576 -0.2241
11060TIP3    H254596   0.448   3.653   3.723 -0.3109  1.5207  0.1734
11061TIP3   OH254597   5.021   4.594   0.529  0.3231  0.2574 -0.1912
11061TIP3    H154598   4.958   4.568   0.463  0.0081  1.1147 -0.2381
11061TIP3    H254599   5.043   4.513   0.575 -1.3870  0.0560  0.3310
11062TIP3   OH254600   4.718   5.070   1.958  0.1199 -0.5843 -0.3941
11062TIP3    H154601   4.780   5.140   1.939 -0.7870 -0.3457 -2.8041
11062TIP3    H254602   4.656   5.108   2.020 -0.2235  0.7099 -1.4920
11063TIP3   OH254603   3.654   2.896  11.758 -0.5137 -0.3478  0.1560
11063TIP3    H154604   3.649   2.865  11.848 -2.0440 -0.8288 -0.0723
11063TIP3    H254605   3.746   2.884  11.734 -0.0017  0.1617  1.7617
11064TIP3   OH254606   2.234   2.590   6.415 -0.7075  0.4155 -0.4600
11064TIP3    H154607   2.201   2.632   6.336 -0.4264 -0.8993 -1.3030
11064TIP3    H254608   2.178   2.514   6.427 -0.5814  0.4560  0.4726
11065TIP3   OH254609   0.699   3.873  12.539 -0.2685  0.2035 -0.4222
11065TIP3    H154610   0.774   3.863  12.480 -0.4628 -0.0989 -0.6228
11065TIP3    H254611   0.737   3.895  12.624  0.0644 -0.2273 -0.4578
11066TIP3   OH254612   3.257   0.998   4.899  0.4526  0.0438 -0.1617
11066TIP3    H154613   3.310   0.966   4.973 -0.3374  0.9678  0.8348
11066TIP3    H254614   3.204   0.923   4.874  1.7206 -0.7041 -0.7441
11067TIP3   OH254615   0.925   2.840   6.051  0.1387  0.5182 -0.2017
11067TIP3    H154616   0.856   2.778   6.028 -0.5316  0.7142  1.2001
11067TIP3    H254617   1.004   2.805   6.008 -1.0690  1.1257 -3.1413
11068TIP3   OH254618   5.109   4.387   5.252  0.4533 -0.6150  0.1935
11068TIP3    H154619   5.176   4.321   5.239  0.5369 -0.5665  0.3744
11068TIP3    H254620   5.027   4.338   5.257  0.4511 -0.6546 -0.2496
11069TIP3   OH254621   3.552   5.885   2.922  0.1307 -0.1038  0.3146
11069TIP3    H154622   3.505   5.955   2.877  0.8803 -0.6584 -1.3965
11069TIP3    H254623   3.492   5.811   2.920  1.2781 -1.0984 -2.6937
11070TIP3   OH254624   6.358   3.357  11.701  0.2098 -0.4815  0.5200
11070TIP3    H154625   6.372   3.276  11.749  2.2045 -0.4308  0.1122
11070TIP3    H254626   6.403   3.424  11.753 -2.7300  0.7484  1.7137
11071TIP3   OH254627   1.712   4.636  13.655 -0.2316 -0.0571  0.4141
11071TIP3    H154628   1.775   4.683  13.600  1.2758 -1.4969  0.8223
11071TIP3    H254629   1.654   4.591  13.592 -0.8651  1.2519  0.0376
11072TIP3   OH254630   6.519   0.283   1.188 -0.5058  0.0969  0.0111
11072TIP3    H154631   6.575   0.290   1.111  0.1179 -0.2374  0.4209
11072TIP3    H254632   6.503   0.373   1.215 -2.0021  0.2854 -1.3956
11073TIP3   OH254633   3.823   6.738  14.162 -0.2260  0.2347  0.2526
11073TIP3    H154634   3.884   6.794  14.209 -0.6462 -0.6837  1.9693
11073TIP3    H254635   3.747   6.730  14.219 -1.2458 -0.0317 -1.0814
11074TIP3   OH254636   2.412   1.653   4.007 -0.2536 -0.2045 -0.3067
11074TIP3    H154637   2.440   1.578   4.060 -0.3922 -0.0645 -0.0273
11074TIP3    H254638   2.406   1.725   4.070  0.4875  0.1977 -0.6824
11075TIP3   OH254639   0.248   2.622  12.242 -0.1672 -0.4322 -0.3989
11075TIP3    H154640   0.306   2.649  12.314 -1.1612 -0.7566  0.5554
11075TIP3    H254641   0.208   2.704  12.212  0.4451 -0.2621 -0.7768
11076TIP3   OH254642   3.283   2.157  15.578 -0.1249 -0.3865 -0.1446
11076TIP3    H154643   3.212   2.205  15.621 -1.0328 -1.9606  0.1896
11076TIP3    H254644   3.277   2.183  15.486 -0.9791 -0.3067 -0.0765
11077TIP3   OH254645   2.657   5.914  13.408  0.3448 -0.0949  0.9820
11077TIP3    H154646   2.587   5.937  13.348  0.0644 -2.7749  0.1603
11077TIP3    H254647   2.736   5.952  13.369 -0.1366 -0.0611  0.0307
11078TIP3   OH254648   1.556   3.088   4.880  0.0354  0.1050 -0.4839
11078TIP3    H154649   1.615   3.063   4.952 -0.2782 -0.1579 -0.3190
11078TIP3    H254650   1.468   3.081   4.917 -0.2000 -1.0775 -1.1991
11079TIP3   OH254651   2.146   6.359   0.121  0.2462 -0.0256 -0.0360
11079TIP3    H154652   2.099   6.441   0.107 -0.2354 -0.1889  0.5507
11079TIP3    H254653   2.120   6.332   0.210  0.4058 -0.8005 -0.2181
11080TIP3   OH254654   6.778   4.290  15.335 -0.3991 -0.5363  1.2849
11080TIP3    H154655   6.867   4.258  15.319 -0.4006 -0.1567  0.4284
11080TIP3    H254656   6.773   4.304  15.429  1.2721  1.7533  1.1207
11081TIP3   OH254657   1.150   5.008   3.750  0.2569  0.1238  0.2412
11081TIP3    H154658   1.112   5.093   3.776  1.0260 -0.1262  2.3268
11081TIP3    H254659   1.190   5.026   3.665  0.6266  1.9463  0.7394
11082TIP3   OH254660   3.980   3.005  13.819 -0.1962 -0.3368 -0.1194
11082TIP3    H154661   4.011   3.002  13.729 -0.0291 -1.5996 -0.0448
11082TIP3    H254662   3.887   3.027  13.813  0.0450  0.6265 -0.5191
11083TIP3   OH254663   4.128   1.540   5.562 -0.0790 -0.7830  0.6024
11083TIP3    H154664   4.147   1.598   5.636 -0.1379  1.7448 -1.2088
11083TIP3    H254665   4.033   1.541   5.554 -0.0103  0.9653 -0.8528
11084TIP3   OH254666   5.218   6.464   5.252 -0.0735 -0.2123  0.2232
11084TIP3    H154667   5.209   6.409   5.329  2.0873 -0.8389  0.0702
11084TIP3    H254668   5.128   6.492   5.233 -0.7962 -0.9037  2.2961
11085TIP3   OH254669   2.980   6.443   6.102  0.2476 -0.1760 -0.8261
11085TIP3    H154670   2.996   6.349   6.090  0.5009 -0.0280 -1.8209
11085TIP3    H254671   3.063   6.484   6.075 -0.4352  0.4077 -2.1523
11086TIP3   OH254672   5.190   3.396  10.437  0.4785  0.7883 -0.0629
11086TIP3    H154673   5.224   3.485  10.432  0.4661  0.8153  0.2697
11086TIP3    H254674   5.258   3.341  10.398  0.2726  0.9947 -0.7199
11087TIP3   OH254675   3.080   4.695  13.338 -0.6587  0.8180  0.0509
11087TIP3    H154676   3.092   4.788  13.320 -0.9747  1.2971  2.0778
11087TIP3    H254677   3.005   4.691  13.398  0.7631 -0.5037  1.8544
11088TIP3   OH254678   6.574   6.717   1.587  0.3657  0.2516 -0.3190
11088TIP3    H154679   6.651   6.769   1.611 -0.1474  2.1092 -2.3290
11088TIP3    H254680   6.509   6.782   1.559 -1.4638 -1.3370 -0.0001
11089TIP3   OH254681   3.451   2.263   4.159  0.0419 -0.1092  0.5284
11089TIP3    H154682   3.498   2.251   4.077 -1.6277 -0.2999 -0.4358
11089TIP3    H254683   3.402   2.344   4.148  0.0299  0.0167  1.4422
11090TIP3   OH254684   4.673   2.045   2.552  0.0909  0.1857 -0.0413
11090TIP3    H154685   4.714   2.099   2.484 -1.7204  0.7677 -0.7035
11090TIP3    H254686   4.673   2.101   2.630  0.8117  0.0642  0.0563
11091TIP3   OH254687   2.455   5.571   3.927 -0.3945  0.5335  0.3632
11091TIP3    H154688   2.486   5.661   3.919  1.1684 -0.0272 -0.4060
11091TIP3    H254689   2.530   5.518   3.899 -1.4519 -0.9885  0.3156
11092TIP3   OH254690   3.715   0.762  14.506  0.1697  0.0722 -0.0234
11092TIP3    H154691   3.630   0.721  14.527 -0.0348 -0.4300 -1.7225
11092TIP3    H254692   3.700   0.807  14.423  1.5994 -0.0971 -0.3873
11093TIP3   OH254693   5.065   1.600   5.649 -0.2274 -0.0083  0.0666
11093TIP3    H154694   4.993   1.660   5.627  0.7320  0.4858 -1.8770
11093TIP3    H254695   5.023   1.515   5.658 -1.3043  0.5653  0.8065
11094TIP3   OH254696   1.722   2.897  13.692  0.6764 -0.1251  0.1746
11094TIP3    H154697   1.814   2.925  13.697  0.4208  1.1238 -1.3993
11094TIP3    H254698   1.719   2.836  13.619  0.1749  0.1980 -0.0779
11095TIP3   OH254699   6.713   5.681   3.239 -0.0077 -0.3431 -0.1206
11095TIP3    H154700   6.662   5.625   3.181  1.5463 -1.6600 -0.3034
11095TIP3    H254701   6.687   5.770   3.217 -1.9829 -0.9420 -0.3764
11096TIP3   OH254702   1.188   3.429   2.343  0.4183  0.5225  0.4805
11096TIP3    H154703   1.275   3.468   2.350  0.2963  1.0597 -0.8176
11096TIP3    H254704   1.142   3.460   2.421  0.7732  1.8462  0.1845
11097TIP3   OH254705   1.764   5.847   2.032  0.1399  0.3452  0.1949
11097TIP3    H154706   1.856   5.857   2.059 -0.1012 -1.8603  2.0789
11097TIP3    H254707   1.755   5.755   2.011 -1.6928  0.4967  0.1726
11098TIP3   OH254708   0.033   1.925  16.032 -0.2205 -0.4258  0.2811
11098TIP3    H154709   0.077   1.984  15.971  0.3788 -0.9710  0.1744
11098TIP3    H254710  -0.059   1.949  16.027  0.0781  0.8276  0.6090
11099TIP3   OH254711   6.241   2.494   2.515 -0.1899  0.3072 -0.3093
11099TIP3    H154712   6.228   2.471   2.423 -0.9053  2.2614 -0.7435
11099TIP3    H254713   6.169   2.554   2.535  0.3082  0.4004  1.3574
11100TIP3   OH254714   5.812   0.533  14.234 -0.1792  0.0468  0.2840
11100TIP3    H154715   5.721   0.558  14.217 -0.3157 -0.7068 -0.1252
11100TIP3    H254716   5.808   0.440  14.251  0.2138  0.4167  2.6369
11101TIP3   OH254717   4.074   5.322   1.600 -0.5728  0.1281 -0.3091
11101TIP3    H154718   4.084   5.329   1.695  0.3876 -2.2891 -0.1633
11101TIP3    H254719   4.136   5.387   1.565 -1.3004  1.4042  0.6612
11102TIP3   OH254720   3.936   4.769   5.955 -0.1427  0.1097  0.0682
11102TIP3    H154721   3.874   4.806   6.019 -1.1389 -1.6976  0.2120
11102TIP3    H254722   4.014   4.823   5.964 -1.4252  1.9849  0.4356
11103TIP3   OH254723   1.604   6.137   0.702 -0.3136 -0.0034 -0.1082
11103TIP3    H154724   1.521   6.179   0.723 -1.3402 -2.4538  1.1627
11103TIP3    H254725   1.649   6.130   0.786 -0.3948 -1.8089 -0.1881
11104TIP3   OH254726   0.973   1.527  14.168  0.0233  0.5567 -0.0310
11104TIP3    H154727   1.028   1.548  14.244 -0.0154  1.1098 -0.1514
11104TIP3    H254728   1.014   1.449  14.129  0.7134  0.9504 -0.1114
11105TIP3   OH254729   5.857   5.134  12.285  0.2728 -0.5728  0.6130
11105TIP3    H154730   5.876   5.138  12.379  1.6342  0.9807  0.3186
11105TIP3    H254731   5.816   5.048  12.273 -0.0671 -0.7583  2.6356
11106TIP3   OH254732   5.087   4.894  13.787  0.1966  0.1227 -0.0276
11106TIP3    H154733   5.115   4.973  13.833 -1.0811  0.0152  1.0097
11106TIP3    H254734   5.155   4.878  13.722  0.5965  1.9338 -0.0965
11107TIP3   OH254735   2.014   3.537   1.167 -0.3431  0.3005  0.6907
11107TIP3    H154736   2.061   3.572   1.092  0.3708 -2.2907 -0.1551
11107TIP3    H254737   2.079   3.484   1.214 -1.8054 -1.6151  0.6857
11108TIP3   OH254738   1.301   0.823   2.284 -0.2245  0.6169 -0.1778
11108TIP3    H154739   1.215   0.861   2.303 -2.2310 -2.4777 -2.1075
11108TIP3    H254740   1.281   0.744   2.233  3.7363 -0.9617  0.3718
11109TIP3   OH254741   3.417   3.321   3.208 -0.0668 -0.0296 -0.0577
11109TIP3    H154742   3.337   3.333   3.157 -0.0940 -0.7910 -0.2175
11109TIP3    H254743   3.468   3.400   3.192 -0.4213  0.0881 -0.6384
11110TIP3   OH254744   1.890   6.683   1.025 -0.0769 -0.7933  0.7161
11110TIP3    H154745   1.963   6.621   1.025 -0.4965 -1.3241  1.7501
11110TIP3    H254746   1.907   6.740   1.101  0.5181  0.6502 -0.4565
11111TIP3   OH254747   5.429   5.022   2.197 -0.1843 -0.4484 -0.2445
11111TIP3    H154748   5.353   5.019   2.254  1.3481 -1.5947  1.8891
11111TIP3    H254749   5.501   5.050   2.253  1.1713 -0.3022 -1.9506
11112TIP3   OH254750   5.553   2.231  11.600  0.3310  0.5520  0.6000
11112TIP3    H154751   5.574   2.138  11.593  0.8976  0.5968  1.5894
11112TIP3    H254752   5.620   2.267  11.657  0.7662  1.7997 -0.6477
11113TIP3   OH254753   3.738   2.906  14.088  0.2036  0.5178  0.6255
11113TIP3    H154754   3.674   2.857  14.038  0.7910  1.2179 -0.8773
11113TIP3    H254755   3.760   2.849  14.162 -0.7104 -0.5288  0.1113
11114TIP3   OH254756   4.042   1.991   1.032  0.6857  0.0119  0.0963
11114TIP3    H154757   4.036   2.028   1.120  2.2920 -0.4519  0.4362
11114TIP3    H254758   4.116   2.036   0.992  1.3773 -1.3471 -0.2027
11115TIP3   OH254759   4.368   6.502  13.912 -0.6648  0.2529 -0.1922
11115TIP3    H154760   4.360   6.417  13.954  2.1280 -0.6358 -1.2359
11115TIP3    H254761   4.300   6.502  13.844  0.0093 -1.6602 -0.9229
11116TIP3   OH254762   4.759   4.825  15.408 -0.5818 -0.0673  0.2594
11116TIP3    H154763   4.728   4.789  15.491 -2.5512 -0.7616 -0.7354
11116TIP3    H254764   4.789   4.750  15.358  1.5502  0.4487  0.6574
11117TIP3   OH254765   3.575   1.183   5.464 -0.0061  0.4610  0.0911
11117TIP3    H154766   3.504   1.231   5.422  1.1867  2.6784  0.4456
11117TIP3    H254767   3.535   1.143   5.541 -0.5989  3.1111  1.2576
11118TIP3   OH254768   0.853   6.208  13.933  0.0013  0.5501 -0.1346
11118TIP3    H154769   0.896   6.123  13.930 -0.4295  0.3412 -0.8049
11118TIP3    H254770   0.881   6.252  13.852  0.9792  1.4398  0.6552
11119TIP3   OH254771   1.467   1.121   6.024  0.4789 -0.2203 -0.0245
11119TIP3    H154772   1.474   1.028   6.047 -0.2159 -0.0974  0.7297
11119TIP3    H254773   1.400   1.124   5.956 -0.9357 -0.0852  1.3189
11120TIP3   OH254774   2.403   5.376  12.896  0.0105  0.2545  0.1675
11120TIP3    H154775   2.449   5.453  12.863 -0.4256  0.1233 -0.7570
11120TIP3    H254776   2.388   5.395  12.989  0.5073  0.9859  0.1028
11121TIP3   OH254777   2.080   3.258   0.300 -0.2638 -0.0740  0.0034
11121TIP3    H154778   2.058   3.186   0.359  0.5947 -2.0525 -1.9284
11121TIP3    H254779   2.173   3.244   0.280 -0.5225  0.5116 -1.7581
11122TIP3   OH254780   3.259   3.958   3.922  0.3917  0.0532 -0.1261
11122TIP3    H154781   3.284   4.039   3.967  0.2099 -0.1701  0.3852
11122TIP3    H254782   3.194   3.985   3.858  0.7820  0.4046 -0.3823
11123TIP3   OH254783   3.293   1.448   0.550  0.1879 -0.0230  0.2740
11123TIP3    H154784   3.374   1.494   0.527  0.3167 -0.4417 -0.1330
11123TIP3    H254785   3.224   1.510   0.526  0.3669  0.0825  0.0173
11124TIP3   OH254786   6.530   4.418  12.230  0.0898 -0.5819  0.2491
11124TIP3    H154787   6.465   4.379  12.287 -0.9018 -0.6387 -0.8775
11124TIP3    H254788   6.577   4.343  12.192 -0.2475 -0.5996 -0.1364
11125TIP3   OH254789   5.606   4.690  17.088 -0.6144 -0.4890 -0.5248
11125TIP3    H154790   5.609   4.611  17.142 -0.7416 -0.3495 -0.3123
11125TIP3    H254791   5.697   4.716  17.078 -0.5679 -0.7028 -0.6532
11126TIP3   OH254792   6.630   4.063  13.497 -0.2238 -0.4881 -0.3415
11126TIP3    H154793   6.573   4.118  13.550 -1.6327 -0.5531 -1.7271
11126TIP3    H254794   6.580   4.046  13.417  0.7018 -2.6901 -0.5152
11127TIP3   OH254795   1.671   5.978  14.652  0.8247 -0.1684  0.2299
11127TIP3    H154796   1.667   5.893  14.695 -0.4856 -0.2055  0.0505
11127TIP3    H254797   1.733   6.028  14.705 -0.7824 -0.1897  2.2641
11128TIP3   OH254798   0.260   3.436  13.573  0.2868  0.4094  0.4068
11128TIP3    H154799   0.232   3.412  13.484 -0.1087 -0.6547  0.8078
11128TIP3    H254800   0.316   3.512  13.560 -0.2650  0.6529 -0.7024
11129TIP3   OH254801   0.388   3.406   0.687 -0.6421 -0.3891 -0.2122
11129TIP3    H154802   0.396   3.500   0.707 -0.4912 -0.5119  0.3120
11129TIP3    H254803   0.294   3.391   0.683 -0.6757 -0.4148  0.6671
11130TIP3   OH254804   3.886   6.607   2.478 -0.1257  0.1776 -0.1087
11130TIP3    H154805   3.914   6.695   2.503  0.0298 -0.2481  1.3508
11130TIP3    H254806   3.810   6.590   2.533  0.1541 -0.7710  0.0040
11131TIP3   OH254807   0.359   5.021   2.815 -0.1935  0.8933 -0.0878
11131TIP3    H154808   0.435   5.073   2.842 -0.0924  0.7548 -0.1095
11131TIP3    H254809   0.385   4.930   2.829 -0.2312  0.8299 -0.4192
11132TIP3   OH254810   5.221   6.006  13.384 -0.5385 -0.4705  0.0079
11132TIP3    H154811   5.161   6.072  13.349  0.1525 -0.9165 -2.1592
11132TIP3    H254812   5.196   5.998  13.476 -0.9518  2.4322  0.2338
11133TIP3   OH254813   1.793   4.714  16.762 -0.3515 -0.2637  0.1495
11133TIP3    H154814   1.718   4.671  16.722  0.7593 -1.5664 -0.6561
11133TIP3    H254815   1.824   4.652  16.828  0.3531 -0.0283  0.0532
11134TIP3   OH254816   5.763   5.985  15.069  1.0754  0.4386 -0.6294
11134TIP3    H154817   5.734   5.903  15.109 -0.3457  0.7817 -0.8861
11134TIP3    H254818   5.849   6.002  15.107  1.5409 -1.3291 -0.8290
11135TIP3   OH254819   5.786   5.637   3.858 -0.1129 -0.3709 -0.2783
11135TIP3    H154820   5.717   5.703   3.868 -0.7109 -1.3307  4.1460
11135TIP3    H254821   5.742   5.554   3.873  1.3546 -1.4560 -1.6201
11136TIP3   OH254822   4.789   3.392   4.554  0.2597  0.1021  0.1686
11136TIP3    H154823   4.864   3.451   4.541 -0.1716  0.3803 -1.1895
11136TIP3    H254824   4.779   3.347   4.470 -1.7084  0.7896 -0.0061
11137TIP3   OH254825   1.394   1.198   2.889 -0.5856  0.7504  0.2387
11137TIP3    H154826   1.358   1.121   2.845 -0.7534  1.3469 -0.7053
11137TIP3    H254827   1.415   1.258   2.817  1.1909  0.8879  0.8248
11138TIP3   OH254828   0.249   0.308  12.076 -0.0696  0.3874 -0.7137
11138TIP3    H154829   0.161   0.272  12.088  0.0565 -0.2702 -1.6294
11138TIP3    H254830   0.281   0.324  12.164 -1.4349  1.4689 -0.3684
11139TIP3   OH254831   2.625   0.557  11.566  0.0844  0.3024 -0.4561
11139TIP3    H154832   2.687   0.490  11.596 -0.1400 -0.4691 -1.6520
11139TIP3    H254833   2.675   0.611  11.505 -0.2246  0.0658 -0.9326
11140TIP3   OH254834   5.402   1.671  13.639  0.5445  0.0555 -0.6961
11140TIP3    H154835   5.329   1.626  13.681  0.0608  1.4926  0.0727
11140TIP3    H254836   5.361   1.736  13.582  1.2072  0.3627 -0.8363
11141TIP3   OH254837   5.547   6.706  15.258 -0.4108  0.2282  0.5883
11141TIP3    H154838   5.600   6.783  15.282 -1.3668  1.0659  0.1132
11141TIP3    H254839   5.610   6.635  15.252  1.3122  1.8214 -3.3543
11142TIP3   OH254840   6.612   0.534   1.322  0.4332 -0.3064 -0.1436
11142TIP3    H154841   6.698   0.491   1.326  0.1609 -0.9849 -1.1393
11142TIP3    H254842   6.606   0.583   1.404  1.1585 -1.4181  0.6123
11143TIP3   OH254843   1.541   4.886   0.354 -0.7919  0.2155 -0.0147
11143TIP3    H154844   1.596   4.849   0.285  0.0343 -1.8983  1.6617
11143TIP3    H254845   1.483   4.947   0.308 -0.1007 -0.8640 -2.5094
11144TIP3   OH254846   2.384   3.217  10.526  0.0502 -0.3861 -0.3213
11144TIP3    H154847   2.295   3.219  10.562 -0.6212 -0.9915 -1.8775
11144TIP3    H254848   2.426   3.144  10.571 -0.7151 -1.0260 -0.6272
11145TIP3   OH254849   4.910   3.806  14.277 -0.7972  0.0173  0.3094
11145TIP3    H154850   4.881   3.724  14.238 -2.3640  0.4672  0.4667
11145TIP3    H254851   4.997   3.822  14.238 -0.3182 -1.8576  0.5388
11146TIP3   OH254852   6.738   2.128  11.261  0.6839 -0.3546 -0.2920
11146TIP3    H154853   6.681   2.194  11.302  1.4150  0.9442 -1.2886
11146TIP3    H254854   6.780   2.175  11.189  2.9232 -1.3063  0.3345
11147TIP3   OH254855   1.514   4.978  13.240 -0.4230  0.6463 -0.0015
11147TIP3    H154856   1.487   4.900  13.193  0.4332  1.4226 -1.8717
11147TIP3    H254857   1.580   4.947  13.302  1.7324  0.1672 -2.4071
11148TIP3   OH254858   6.726   0.108  14.689 -0.0104  0.1544 -0.1902
11148TIP3    H154859   6.767   0.035  14.736 -0.8543  0.0181  0.3655
11148TIP3    H254860   6.794   0.175  14.684  0.4173 -0.2346  0.3099
11149TIP3   OH254861   1.175   2.857  15.905 -0.0156 -0.2482 -0.4250
11149TIP3    H154862   1.208   2.778  15.947  0.7610 -0.4071 -1.3000
11149TIP3    H254863   1.096   2.879  15.954  0.5947 -0.6866  0.7984
11150TIP3   OH254864   0.582   2.579   0.515  0.6253 -0.2390 -0.1057
11150TIP3    H154865   0.590   2.625   0.432  0.0698  0.6110  0.2932
11150TIP3    H254866   0.667   2.591   0.557  0.1773  1.2964  0.4142
11151TIP3   OH254867   5.963   3.141   1.395  0.4346  0.0646 -0.5235
11151TIP3    H154868   5.942   3.193   1.472  0.0668 -2.8017  1.4728
11151TIP3    H254869   6.041   3.182   1.358  1.0097  1.1616  1.7614
11152TIP3   OH254870   4.159   3.317   3.226 -0.2320 -0.2417 -1.2665
11152TIP3    H154871   4.100   3.334   3.153 -1.5421  0.1883 -0.1470
11152TIP3    H254872   4.151   3.223   3.241 -1.8381  0.0289 -0.1750
11153TIP3   OH254873   5.972   5.812  12.955 -0.0537  0.0190  0.2187
11153TIP3    H154874   5.975   5.785  12.864 -1.2961 -1.0190  0.4618
11153TIP3    H254875   5.972   5.730  13.005  0.9620  0.5679  1.1828
11154TIP3   OH254876   1.341   6.534   5.152 -0.2563 -0.3266 -0.4385
11154TIP3    H154877   1.272   6.470   5.137 -1.1454  0.3737  0.5331
11154TIP3    H254878   1.421   6.482   5.159 -0.7645 -1.1988 -0.9285
11155TIP3   OH254879   4.583   6.420   2.470  0.3309  0.3238 -0.2682
11155TIP3    H154880   4.555   6.489   2.531  2.0219 -0.0393  0.9879
11155TIP3    H254881   4.669   6.447   2.440  1.1289 -1.2951  0.4196
11156TIP3   OH254882   2.269   2.499   6.084  0.6965  0.3655  0.0838
11156TIP3    H154883   2.268   2.410   6.120 -0.6089 -0.1686 -1.1987
11156TIP3    H254884   2.182   2.534   6.103  0.8956  1.0564 -0.2338
11157TIP3   OH254885   4.468   1.839  13.356  0.0424  0.2663  0.0410
11157TIP3    H154886   4.389   1.889  13.376 -0.7506 -0.7170 -0.5338
11157TIP3    H254887   4.537   1.884  13.404 -0.6697  1.7659 -0.2551
11158TIP3   OH254888   3.872   6.579  12.485 -0.5680  0.4171 -0.1224
11158TIP3    H154889   3.901   6.528  12.560  2.8041  0.4032 -1.2579
11158TIP3    H254890   3.865   6.515  12.414 -1.6390  0.7470 -0.3271
11159TIP3   OH254891   5.575   5.643   2.511 -0.0012  0.2507  0.1621
11159TIP3    H154892   5.529   5.653   2.594 -0.1034 -2.5114  0.5337
11159TIP3    H254893   5.506   5.640   2.445 -0.0384  0.6211  0.1819
11160TIP3   OH254894   6.112   4.849  15.619  0.3631  0.1918  0.6706
11160TIP3    H154895   6.070   4.934  15.608 -0.5294 -0.3647 -0.4326
11160TIP3    H254896   6.108   4.832  15.713  1.0092  1.5799  0.9755
11161TIP3   OH254897   5.478   3.291   1.323 -0.4137 -0.0518 -0.3498
11161TIP3    H154898   5.507   3.227   1.388  1.0475 -0.5789 -1.4555
11161TIP3    H254899   5.560   3.323   1.284 -1.2538 -0.2548 -2.3875
11162TIP3   OH254900   6.224   3.949  14.468 -0.2501 -0.2018 -0.4539
11162TIP3    H154901   6.309   3.906  14.475  0.4695  1.1726 -0.4640
11162TIP3    H254902   6.175   3.894  14.407  0.3940 -1.3553  0.0247
11163TIP3   OH254903   5.068   5.157   1.397 -0.3652  0.3098  0.1136
11163TIP3    H154904   5.156   5.122   1.405  0.2385  1.3257 -1.6059
11163TIP3    H254905   5.034   5.158   1.487  1.3303 -0.1508  0.7897
11164TIP3   OH254906   5.252   4.533  12.561  0.0427 -0.4316 -0.5883
11164TIP3    H154907   5.227   4.500  12.474  0.6389  0.8669 -1.2932
11164TIP3    H254908   5.256   4.455  12.616 -0.3441 -1.2961 -1.7289
11165TIP3   OH254909   2.281   6.775   5.057  0.0594  0.4353  0.0972
11165TIP3    H154910   2.310   6.813   5.140 -0.1808  3.8788 -1.2056
11165TIP3    H254911   2.194   6.812   5.043  0.5850  0.9931 -2.2047
11166TIP3   OH254912   3.240   1.082  10.368 -0.1181 -0.2723 -0.2492
11166TIP3    H154913   3.231   1.097  10.462  0.4893 -0.8944 -0.0848
11166TIP3    H254914   3.175   1.015  10.348  2.0677 -2.7763  0.4305
11167TIP3   OH254915   0.746   4.488   5.184 -0.8341 -0.0422 -0.6104
11167TIP3    H154916   0.749   4.578   5.151  1.6368  0.6457  1.1753
11167TIP3    H254917   0.838   4.460   5.187 -1.3530 -1.8449  0.8618
11168TIP3   OH254918   3.604   1.139   4.775 -0.0389 -0.7571  0.5126
11168TIP3    H154919   3.567   1.212   4.824  0.1680 -0.4385  0.1999
11168TIP3    H254920   3.676   1.108   4.830  1.0946  0.4914 -0.1957
11169TIP3   OH254921   1.815   3.165   5.186  0.3662 -0.4392  0.0703
11169TIP3    H154922   1.838   3.257   5.177 -1.0120 -0.0769 -0.0963
11169TIP3    H254923   1.861   3.122   5.114 -0.2256  0.3901 -0.8435
11170TIP3   OH254924   4.553   4.711  16.694 -0.2848 -0.5756 -0.0411
11170TIP3    H154925   4.484   4.663  16.648 -1.4171 -0.4226  1.4111
11170TIP3    H254926   4.634   4.677  16.657 -1.1221 -0.8872 -1.6798
11171TIP3   OH254927   2.922   2.211  13.448 -0.2348 -0.8246  0.1592
11171TIP3    H154928   3.017   2.206  13.453 -0.2326 -1.0912 -0.1394
11171TIP3    H254929   2.894   2.224  13.538  0.1908  1.1110  0.0567
11172TIP3   OH254930   0.020   3.265   1.029  0.0484  0.2057 -0.0269
11172TIP3    H154931  -0.034   3.195   0.991  0.9330 -0.2451 -0.4977
11172TIP3    H254932  -0.038   3.309   1.091 -0.9009 -0.1650 -0.6243
11173TIP3   OH254933   2.712   5.273  16.015  0.1764  0.6904  0.4769
11173TIP3    H154934   2.695   5.230  16.099  0.1881  1.0276  0.6556
11173TIP3    H254935   2.647   5.236  15.955  0.8120 -0.2932  0.3755
11174TIP3   OH254936   0.624   1.998   1.566  0.2452  0.0404 -0.1790
11174TIP3    H154937   0.596   1.920   1.612 -1.2437  0.8817  0.3848
11174TIP3    H254938   0.567   2.003   1.489  0.4732  0.4513 -0.3262
11175TIP3   OH254939   2.106   1.456   2.951  0.0033 -0.6519 -0.4906
11175TIP3    H154940   2.159   1.448   3.031  0.4137 -0.7251 -0.7650
11175TIP3    H254941   2.016   1.443   2.980  0.0581  0.2526  0.1150
11176TIP3   OH254942   0.788   4.875  14.465 -0.4146  0.2272  1.1368
11176TIP3    H154943   0.749   4.825  14.537 -0.2665 -1.1751  0.2922
11176TIP3    H254944   0.780   4.817  14.389 -0.1956  1.5009  0.1072
11177TIP3   OH254945   0.917   6.385   5.197 -0.0180 -0.7489  0.7354
11177TIP3    H154946   0.908   6.470   5.154  1.9680 -0.3251  1.0850
11177TIP3    H254947   0.878   6.398   5.283 -1.5549 -0.8215  0.0948
11178TIP3   OH254948   6.255   5.765   2.246  0.0647 -0.3987 -0.1907
11178TIP3    H154949   6.310   5.795   2.318 -2.4643  2.7005  0.6301
11178TIP3    H254950   6.278   5.822   2.173 -0.6423 -0.4468 -0.4510
11179TIP3   OH254951   0.111   4.998   3.975  0.0138  0.4403 -0.3181
11179TIP3    H154952   0.134   4.950   4.055  0.7455  2.4071  0.7223
11179TIP3    H254953   0.180   4.975   3.913  0.7190  0.6345  0.3753
11180TIP3   OH254954   0.765   5.305  16.902 -0.2102  0.5417 -0.5560
11180TIP3    H154955   0.701   5.236  16.885 -0.2912  0.6021 -0.4962
11180TIP3    H254956   0.797   5.287  16.991  0.0842  0.3298 -0.7033
11181TIP3   OH254957   2.977   3.025  13.762  0.7588 -0.7349 -0.7529
11181TIP3    H154958   2.980   2.982  13.847 -1.2338  2.3817  1.1151
11181TIP3    H254959   2.889   3.009  13.730  0.7262  0.0621 -1.0803
11182TIP3   OH254960   6.504   0.855  15.814 -0.3455 -0.2785  0.1859
11182TIP3    H154961   6.487   0.901  15.732  1.4699  2.9388  1.4366
11182TIP3    H254962   6.424   0.866  15.865 -0.3246  0.6214  0.0411
11183TIP3   OH254963   1.834   6.746  15.858  0.0143 -0.1366  0.0564
11183TIP3    H154964   1.813   6.823  15.805 -0.2783 -1.0080 -1.1443
11183TIP3    H254965   1.799   6.766  15.944 -3.2232 -0.2591 -1.0723
11184TIP3   OH254966   6.193   3.840   1.649 -0.0190 -0.0013 -0.0145
11184TIP3    H154967   6.158   3.905   1.710  1.3242  1.4443 -0.7106
11184TIP3    H254968   6.226   3.770   1.705  1.4810  1.4450  0.9912
11185TIP3   OH254969   4.405   5.253   4.340 -0.2051  0.4798 -0.2237
11185TIP3    H154970   4.444   5.258   4.427 -1.9131  0.6159  0.5746
11185TIP3    H254971   4.479   5.240   4.281  1.4324  4.1589  0.8002
11186TIP3   OH254972   0.907   0.666  14.069 -0.1047 -0.3355  0.0646
11186TIP3    H154973   0.818   0.631  14.067 -0.4786  0.5938  0.0576
11186TIP3    H254974   0.939   0.646  14.157  0.0558 -1.5650 -0.2590
11187TIP3   OH254975   2.362   0.309  15.210 -0.5236  0.2006 -0.0559
11187TIP3    H154976   2.364   0.223  15.252 -1.4321 -0.4684 -1.3351
11187TIP3    H254977   2.274   0.342  15.227  0.0277  1.1925  0.9913
11188TIP3   OH254978   0.987   5.489   4.572  0.1199  0.1865  0.6929
11188TIP3    H154979   1.059   5.503   4.634  2.3165 -1.6283 -1.2843
11188TIP3    H254980   0.990   5.564   4.514 -0.3271  0.6456  1.2471
11189TIP3   OH254981   6.671   6.005  15.200  0.2524 -0.0631  0.2876
11189TIP3    H154982   6.695   6.053  15.279  0.6147  1.5626 -0.7683
11189TIP3    H254983   6.734   5.933  15.194 -0.0196 -0.4325  1.6564
11190TIP3   OH254984   4.823   4.875  12.537  0.7905  0.5411 -0.2475
11190TIP3    H154985   4.845   4.793  12.582  0.3407 -0.0868 -1.1460
11190TIP3    H254986   4.800   4.935  12.607 -0.0856 -0.4759  0.3728
11191TIP3   OH254987   5.849   0.813  14.423  0.1863  0.5181 -0.2634
11191TIP3    H154988   5.760   0.786  14.449  0.1114  1.6681  0.7661
11191TIP3    H254989   5.881   0.864  14.497  2.5263 -1.5616  0.2876
11192TIP3   OH254990   3.122   4.014   5.152  0.4873 -0.3760 -0.0212
11192TIP3    H154991   3.084   4.049   5.071 -0.8482  0.3413  0.8791
11192TIP3    H254992   3.144   4.091   5.203  1.2734 -0.8271  0.3361
11193TIP3   OH254993   3.179   2.539   0.308  0.8200 -0.1725 -0.0691
11193TIP3    H154994   3.257   2.547   0.363 -0.3745 -1.4655  1.9521
11193TIP3    H254995   3.211   2.501   0.227  2.4168  0.1825  0.3564
11194TIP3   OH254996   4.110   1.008   5.397 -0.0547  0.9081  0.1602
11194TIP3    H154997   4.080   0.990   5.308  0.5531 -1.8987  0.4304
11194TIP3    H254998   4.203   1.028   5.388 -0.0527  0.8965  0.1562
11195TIP3   OH254999   2.717   0.749  11.352  0.0191  0.2304 -0.1773
11195TIP3    H155000   2.631   0.711  11.332 -0.1607 -0.9782  2.3757
11195TIP3    H255001   2.771   0.726  11.277 -1.8176  0.9569 -1.8287
11196TIP3   OH255002   6.171   1.197  12.916  0.0552 -0.5524  0.2625
11196TIP3    H155003   6.096   1.194  12.976 -0.9512  2.1087 -0.6985
11196TIP3    H255004   6.240   1.239  12.967 -0.1459 -0.1353  0.1977
11197TIP3   OH255005   5.315   2.203   0.711  0.4121 -0.3862  0.4762
11197TIP3    H155006   5.308   2.193   0.616 -0.3355 -1.9289  0.6621
11197TIP3    H255007   5.399   2.163   0.733  0.1323 -0.9429  0.5586
11198TIP3   OH255008   5.206   5.977   6.356  0.0851  0.3156  0.0645
11198TIP3    H155009   5.146   5.997   6.429  0.2726  2.5870 -0.3274
11198TIP3    H255010   5.150   5.982   6.278  0.3298  0.1354 -0.1214
11199TIP3   OH255011   6.093   0.529   2.890  0.1118  0.6665  0.3456
11199TIP3    H155012   6.060   0.619   2.889 -0.0032  0.6497 -1.4817
11199TIP3    H255013   6.022   0.478   2.928  0.4838  1.4243  2.1431
11200TIP3   OH255014   5.252   1.337  11.125  0.2354 -0.2769  0.0166
11200TIP3    H155015   5.241   1.406  11.059 -1.1872 -0.7506 -0.2802
11200TIP3    H255016   5.162   1.312  11.148  0.6735 -2.8990 -0.7988
11201TIP3   OH255017   0.797   0.533  11.599 -0.2184  0.1199 -0.3903
11201TIP3    H155018   0.830   0.563  11.514 -0.6054  2.2469  0.1500
11201TIP3    H255019   0.820   0.603  11.660 -0.8894 -0.8746  1.0606
11202TIP3   OH255020   1.521   5.773   4.623 -0.0713 -0.0390 -0.0597
11202TIP3    H155021   1.593   5.731   4.576  1.3909 -0.3465  2.2830
11202TIP3    H255022   1.470   5.700   4.658  0.3447  0.1450  0.9482
11203TIP3   OH255023   6.774   6.355   6.560 -0.1035  0.2490  0.3975
11203TIP3    H155024   6.690   6.401   6.568 -0.5238 -0.2704 -0.8728
11203TIP3    H255025   6.757   6.268   6.595  0.6096  0.8660  2.4964
11204TIP3   OH255026   1.557   1.383  17.159 -0.8361  0.0957 -0.3582
11204TIP3    H155027   1.618   1.332  17.107  1.0080  2.7504 -0.9799
11204TIP3    H255028   1.567   1.349  17.248 -2.8401 -3.3844 -1.2706
11205TIP3   OH255029   3.485   4.162  13.718 -0.3206 -0.1801  0.4725
11205TIP3    H155030   3.567   4.115  13.704  0.4314  1.2415 -0.0458
11205TIP3    H255031   3.505   4.227  13.785 -1.4316 -0.7543  1.4005
11206TIP3   OH255032   6.567   2.630  17.076  0.7514 -0.2251 -0.5149
11206TIP3    H155033   6.499   2.586  17.127 -1.3807  0.8872 -2.2258
11206TIP3    H255034   6.648   2.611  17.123 -0.5930 -2.3486  1.1590
11207TIP3   OH255035   2.289   0.284  16.555  0.1338  0.3667 -0.1680
11207TIP3    H155036   2.343   0.241  16.488 -1.6990 -1.1946 -0.7263
11207TIP3    H255037   2.295   0.377  16.535  0.2274 -0.0118 -2.0448
11208TIP3   OH255038   2.983   5.879  14.554  0.1022 -0.4938 -0.5815
11208TIP3    H155039   2.943   5.792  14.544 -2.0939  0.4522 -0.6777
11208TIP3    H255040   2.984   5.915  14.465 -0.9181  0.3181 -0.2912
11209TIP3   OH255041   0.574   0.429  13.042  0.4643  0.3366  0.6748
11209TIP3    H155042   0.618   0.488  12.981 -0.1748  0.3083  0.1688
11209TIP3    H255043   0.626   0.349  13.040  0.8528  0.5885  0.7073
11210TIP3   OH255044   6.159   0.759  14.433  0.1770  0.0314  0.1584
11210TIP3    H155045   6.244   0.781  14.473  1.2217 -1.3979 -1.1736
11210TIP3    H255046   6.109   0.840  14.440  2.0279  1.2687  0.0181
11211TIP3   OH255047   3.194   6.009   6.418 -0.3588 -0.2559  0.2947
11211TIP3    H155048   3.280   5.966   6.413  0.3338  0.8629  1.7659
11211TIP3    H255049   3.168   5.999   6.510  0.2277  3.0534  0.9579
11212TIP3   OH255050   5.628   3.306  13.214  0.1916 -0.6620 -0.4084
11212TIP3    H155051   5.713   3.326  13.252 -0.5787  0.7669  0.6468
11212TIP3    H255052   5.620   3.367  13.140 -0.9491  1.0861  1.0650
11213TIP3   OH255053   6.014   4.933   0.672 -0.1688 -0.4132 -0.5539
11213TIP3    H155054   6.046   4.870   0.736  1.5918 -0.2574 -1.2292
11213TIP3    H255055   5.925   4.955   0.702  0.6516 -0.1990  1.9260
11214TIP3   OH255056   0.002   5.494  15.750 -0.4691 -0.1789 -0.1313
11214TIP3    H155057   0.023   5.478  15.842 -1.3274 -0.7399 -0.0330
11214TIP3    H255058  -0.086   5.530  15.751 -0.1514  0.6499 -0.6778
11215TIP3   OH255059   6.183   5.232  11.926 -0.6418  0.3278  0.2525
11215TIP3    H155060   6.261   5.241  11.981  0.0485  2.2841 -0.9544
11215TIP3    H255061   6.213   5.181  11.851 -0.2498  1.8032 -0.6257
11216TIP3   OH255062   6.215   0.882  11.916  0.0624  0.9614 -0.5718
11216TIP3    H155063   6.167   0.911  11.838 -1.0838  0.7641  0.0412
11216TIP3    H255064   6.303   0.916  11.903 -0.4657  2.1333 -1.2995
11217TIP3   OH255065   3.833   4.654  12.207  0.0554  0.5998  0.1264
11217TIP3    H155066   3.799   4.589  12.269 -0.0215  0.7946  0.2901
11217TIP3    H255067   3.927   4.640  12.206 -0.0312  0.0074 -0.3826
11218TIP3   OH255068   1.945   0.145   3.939  0.1689 -0.3939 -0.3200
11218TIP3    H155069   1.948   0.173   3.848  0.9325 -0.1960 -0.2408
11218TIP3    H255070   1.908   0.219   3.987  2.1478  0.5191 -0.1145
11219TIP3   OH255071   1.444   0.068   4.733 -0.1472  0.2559  0.3330
11219TIP3    H155072   1.479   0.009   4.667 -1.4253  0.5819 -0.6724
11219TIP3    H255073   1.394   0.012   4.792 -1.3971  0.2987 -0.6462
11220TIP3   OH255074   3.738   5.857   1.488 -0.4230 -0.5776 -0.7119
11220TIP3    H155075   3.724   5.896   1.574  0.3990 -1.2147 -0.2692
11220TIP3    H255076   3.727   5.763   1.502 -0.2894 -0.6871 -1.3082
11221TIP3   OH255077   5.105   3.667   4.169 -0.2684 -0.4210 -0.4321
11221TIP3    H155078   5.195   3.665   4.137 -0.7286  0.8232 -1.9460
11221TIP3    H255079   5.082   3.575   4.182  1.3524 -0.7373  0.4343
11222TIP3   OH255080   2.794   2.610   3.487 -0.4583 -0.1719  0.3546
11222TIP3    H155081   2.719   2.569   3.443  0.0582 -2.5709  1.5429
11222TIP3    H255082   2.755   2.662   3.558 -1.0752  0.3627 -0.3602
11223TIP3   OH255083   2.406   4.905  12.589 -0.2389 -0.1713  0.2851
11223TIP3    H155084   2.464   4.851  12.535 -0.2788 -0.0840  0.1531
11223TIP3    H255085   2.463   4.973  12.624  0.1367 -1.1534  1.6776
11224TIP3   OH255086   0.539   5.616   2.703  0.0331 -0.3103  0.2666
11224TIP3    H155087   0.479   5.642   2.633 -0.2158  1.3293  1.0374
11224TIP3    H255088   0.500   5.536   2.739 -0.5430 -0.4370 -0.5938
11225TIP3   OH255089   5.780   6.051   2.173 -0.2481  0.6529  0.0880
11225TIP3    H155090   5.873   6.061   2.190 -0.2781  1.6725 -0.3043
11225TIP3    H255091   5.753   5.978   2.229  0.7740  0.3628  0.2143
11226TIP3   OH255092   4.466   0.516  14.212 -0.1972  0.0979 -0.0813
11226TIP3    H155093   4.475   0.473  14.127  0.8270  0.7269 -0.3139
11226TIP3    H255094   4.497   0.451  14.275 -0.9492 -0.3671 -0.1784
11227TIP3   OH255095   0.957   6.048   4.769  0.1326 -0.1943  0.2929
11227TIP3    H155096   1.036   6.089   4.804 -0.3512 -0.3798  1.6531
11227TIP3    H255097   0.943   6.092   4.685  1.2926  0.3174  0.3427
11228TIP3   OH255098   5.663   2.348   3.390 -0.5763 -0.5591  0.2204
11228TIP3    H155099   5.743   2.301   3.367  0.0160  0.4840  0.0751
11228TIP3    H255100   5.631   2.382   3.307  1.0297  2.3784  0.6545
11229TIP3   OH255101   6.578   5.332  13.792 -0.1430  0.0225  0.2069
11229TIP3    H155102   6.673   5.321  13.791 -0.0721  0.5233  0.9124
11229TIP3    H255103   6.546   5.272  13.724  0.6525 -0.3436  0.1486
11230TIP3   OH255104   3.270   1.057   3.524  0.4604  0.8141 -0.1376
11230TIP3    H155105   3.293   0.971   3.560 -1.8692  0.0971 -0.2051
11230TIP3    H255106   3.314   1.119   3.582  1.4642 -0.3835  0.4529
11231TIP3   OH255107   5.230   6.277   0.331  0.9271 -0.6082  0.0107
11231TIP3    H155108   5.165   6.297   0.399  2.5293  1.6533  1.0005
11231TIP3    H255109   5.181   6.283   0.249 -0.1799  0.9690  0.7272
11232TIP3   OH255110   0.921   4.271  12.956  0.0404  0.4246 -0.1938
11232TIP3    H155111   0.910   4.186  12.998 -1.4564  0.5871 -0.2170
11232TIP3    H255112   0.849   4.324  12.990  0.7705  1.5973 -0.4158
11233TIP3   OH255113   0.222   0.891  15.013 -0.0147  0.3520  0.3815
11233TIP3    H155114   0.256   0.802  15.024 -0.4614  0.2276  0.7985
11233TIP3    H255115   0.168   0.887  14.934 -0.3253  0.1626  0.6026
11234TIP3   OH255116   4.559   4.265   2.438  0.6452  0.1123  0.7743
11234TIP3    H155117   4.650   4.272   2.467  1.1807 -0.7095 -0.6145
11234TIP3    H255118   4.565   4.245   2.345 -0.9168 -1.5090  0.9635
11235TIP3   OH255119   2.569   2.811  16.045  0.0434 -0.1487 -0.0709
11235TIP3    H155120   2.625   2.770  16.110 -1.2375  1.4398  2.1696
11235TIP3    H255121   2.486   2.764  16.052 -0.0382 -0.1420 -0.8149
11236TIP3   OH255122   0.250   6.594   0.237 -0.8144 -0.2665 -0.0026
11236TIP3    H155123   0.241   6.529   0.307  1.1623  0.1754  0.7551
11236TIP3    H255124   0.280   6.544   0.161 -1.3768 -0.5291 -0.0517
11237TIP3   OH255125   1.295   0.526  10.883 -0.0611 -0.1451  0.3436
11237TIP3    H155126   1.236   0.553  10.813 -1.8009 -0.7331  1.5274
11237TIP3    H255127   1.378   0.568  10.861 -0.7642  0.3537 -1.6168
11238TIP3   OH255128   1.243   6.188  12.871  0.2638 -0.2460 -0.4139
11238TIP3    H155129   1.302   6.113  12.883  0.4227 -0.5384 -2.5860
11238TIP3    H255130   1.286   6.242  12.806 -1.3794  0.0694 -1.2972
11239TIP3   OH255131   6.509   5.744   6.848  0.6942  0.4048  0.4539
11239TIP3    H155132   6.537   5.763   6.759 -0.6337  1.0121  0.1340
11239TIP3    H255133   6.416   5.768   6.850  0.4729 -0.4034  1.7622
11240TIP3   OH255134   3.293   3.113  10.495  0.0380 -0.0259  0.2684
11240TIP3    H155135   3.247   3.041  10.539  0.6062  0.3680  1.5571
11240TIP3    H255136   3.382   3.080  10.483  0.5242  0.7037  1.5910
11241TIP3   OH255137   2.438   0.650  11.737  0.3367  0.2020  0.2792
11241TIP3    H155138   2.455   0.733  11.782  1.3274 -0.1488  0.5786
11241TIP3    H255139   2.494   0.654  11.659 -0.2267  0.1507 -0.1390
11242TIP3   OH255140   1.262   5.798  16.777  0.2797 -0.1623 -0.4209
11242TIP3    H155141   1.220   5.884  16.764  0.7240  0.3052  1.0721
11242TIP3    H255142   1.257   5.757  16.691 -1.5996  0.6104 -0.7530
11243TIP3   OH255143   0.299   0.643   0.249  0.0505 -0.2969 -0.0557
11243TIP3    H155144   0.248   0.723   0.245 -1.7049 -1.4114 -0.9485
11243TIP3    H255145   0.325   0.626   0.158  0.7298 -0.5595  0.1785
11244TIP3   OH255146   3.433   4.033  15.608 -0.2042  0.0701 -0.3638
11244TIP3    H155147   3.489   3.985  15.669 -1.4233  0.1480  0.8668
11244TIP3    H255148   3.493   4.088  15.558  0.9048 -0.5442  0.2610
11245TIP3   OH255149   1.409   3.402   1.002 -0.0986 -0.1152 -0.1155
11245TIP3    H155150   1.353   3.419   0.926 -1.8181 -1.0560  0.8817
11245TIP3    H255151   1.480   3.466   0.994 -0.1817 -0.2358 -2.5323
11246TIP3   OH255152   2.331   3.774  13.616 -0.2988 -0.1426  0.3403
11246TIP3    H155153   2.403   3.836  13.623 -0.0604 -0.4327  0.5013
11246TIP3    H255154   2.268   3.803  13.682 -0.0413 -0.2573  0.6440
11247TIP3   OH255155   4.197   6.665  16.183  0.2683  0.4541  0.1283
11247TIP3    H155156   4.121   6.614  16.209  1.7193 -2.1365 -0.4183
11247TIP3    H255157   4.251   6.670  16.262  1.3678 -1.2947 -0.4463
11248TIP3   OH255158   3.618   5.892   1.949 -0.1012 -0.4804 -0.2482
11248TIP3    H155159   3.662   5.975   1.933 -1.7023  0.2951 -0.8421
11248TIP3    H255160   3.546   5.891   1.887 -0.2970 -2.1967 -0.0480
11249TIP3   OH255161   2.237   3.603   1.418  0.3754  0.5985 -0.4779
11249TIP3    H155162   2.283   3.593   1.502 -0.3488  0.2648 -0.1083
11249TIP3    H255163   2.281   3.677   1.376  0.7523  0.7779  0.1984
11250TIP3   OH255164   1.226   5.997   3.194  0.3489 -0.5056  0.3311
11250TIP3    H155165   1.314   5.994   3.230  0.2048  0.5113  0.7811
11250TIP3    H255166   1.172   5.954   3.260 -0.1036  2.3718  1.9839
11251TIP3   OH255167   2.478   6.219  14.599 -0.2773 -0.6755 -0.5196
11251TIP3    H155168   2.477   6.135  14.644  0.8175 -0.5586 -0.2587
11251TIP3    H255169   2.550   6.212  14.536  0.3798  0.3572  0.0950
11252TIP3   OH255170   0.855   6.417   2.273  0.3060  0.1362  0.3120
11252TIP3    H155171   0.943   6.452   2.285  0.2523  1.0322 -1.5317
11252TIP3    H255172   0.801   6.468   2.334  0.8640  0.4506  0.5551
11253TIP3   OH255173   5.067   1.202  10.313  0.0998 -0.1510 -0.9061
11253TIP3    H155174   5.124   1.240  10.247  1.2985 -2.0538 -1.0531
11253TIP3    H255175   5.045   1.275  10.371 -0.0433  1.3106 -2.7189
11254TIP3   OH255176   3.776   3.833  12.871 -0.1222  0.3056 -0.5037
11254TIP3    H155177   3.815   3.805  12.954  0.8691 -1.2196 -1.4329
11254TIP3    H255178   3.682   3.822  12.885  0.0615 -0.4920  0.2381
11255TIP3   OH255179   4.620   0.187   5.060 -0.2978 -0.0109  0.0419
11255TIP3    H155180   4.678   0.250   5.017  0.9335 -0.2716  1.2439
11255TIP3    H255181   4.583   0.235   5.134  0.8158 -0.7214  1.0917
11256TIP3   OH255182   5.790   2.427  16.121 -0.4938  0.2070 -0.2370
11256TIP3    H155183   5.861   2.365  16.106  0.2457  1.2780 -1.3374
11256TIP3    H255184   5.711   2.373  16.126  0.3176 -0.9524  0.4781
11257TIP3   OH255185   3.558   5.992  12.050 -0.5340  0.4269 -0.5461
11257TIP3    H155186   3.612   6.063  12.086 -0.9281  1.7452 -2.4000
11257TIP3    H255187   3.609   5.912  12.067  0.6581  1.3103  0.2192
11258TIP3   OH255188   6.059   2.493  11.512  0.1713 -0.5456  0.0697
11258TIP3    H155189   6.081   2.431  11.582  0.7576  0.0035  0.3925
11258TIP3    H255190   6.135   2.552  11.508 -0.8349  0.8442  0.5542
11259TIP3   OH255191   6.172   3.584  15.460  0.2284  0.1270  0.0098
11259TIP3    H155192   6.094   3.551  15.416  0.2922  0.7764 -0.6025
11259TIP3    H255193   6.219   3.633  15.393 -1.0276  3.4898  1.3599
11260TIP3   OH255194   0.380   6.411   5.256 -0.0559 -0.6143 -0.0460
11260TIP3    H155195   0.421   6.418   5.169  0.3676  1.0143  0.2505
11260TIP3    H255196   0.292   6.446   5.243  0.2879  0.4257  0.3431
11261TIP3   OH255197   0.886   1.457  15.868 -0.3032  0.1690  0.0526
11261TIP3    H155198   0.914   1.370  15.841  0.2831  0.7177 -1.1754
11261TIP3    H255199   0.898   1.512  15.791 -2.6297  0.9369  0.1311
11262TIP3   OH255200   3.984   5.347  14.268  0.1635 -0.1787 -0.1618
11262TIP3    H155201   4.036   5.311  14.197  0.0937  1.3311 -1.0230
11262TIP3    H255202   3.976   5.440  14.247  0.7341  0.4759  2.1889
11263TIP3   OH255203   3.724   1.522   4.286  0.2736  0.0256 -0.3277
11263TIP3    H155204   3.633   1.534   4.260  0.7436  0.7475 -1.7902
11263TIP3    H255205   3.735   1.578   4.363 -0.4700  0.0391 -0.2282
11264TIP3   OH255206   5.352   3.380   2.563  0.3183  0.0323 -0.2589
11264TIP3    H155207   5.332   3.453   2.622  1.8876  0.4620 -0.1970
11264TIP3    H255208   5.299   3.307   2.596 -1.2360  1.1083 -0.2844
11265TIP3   OH255209   2.477   5.934   4.417  0.6005  0.8147  0.4571
11265TIP3    H155210   2.460   5.852   4.462 -3.2030  1.9616  1.4775
11265TIP3    H255211   2.563   5.962   4.449  0.6453 -1.3094  2.4011
11266TIP3   OH255212   5.011   1.331   5.720  0.2195 -0.3213 -0.4349
11266TIP3    H155213   5.093   1.340   5.672 -0.3624 -1.9988 -1.8570
11266TIP3    H255214   5.029   1.267   5.788  0.0998 -0.7564 -0.8027
11267TIP3   OH255215   0.628   0.412  13.642  0.6051  0.1876  0.7799
11267TIP3    H155216   0.560   0.413  13.574  1.6448  0.1156 -0.3020
11267TIP3    H255217   0.679   0.333  13.624  0.2582 -0.4212  2.3347
11268TIP3   OH255218   1.591   4.438  13.479  0.1676  0.0366 -0.2549
11268TIP3    H155219   1.645   4.379  13.426 -0.3413 -1.3048  0.6462
11268TIP3    H255220   1.540   4.379  13.535  0.5560  1.3737  1.6089
11269TIP3   OH255221   3.993   5.841   5.377 -0.2007 -0.3824  0.3061
11269TIP3    H155222   4.064   5.779   5.363  0.9053  1.2002 -1.8147
11269TIP3    H255223   4.025   5.898   5.447  0.5908  0.1668 -0.4646
11270TIP3   OH255224   2.890   2.920   4.649 -0.0490  0.0404  0.5934
11270TIP3    H155225   2.837   2.997   4.668  0.9323  0.7715  0.4287
11270TIP3    H255226   2.859   2.891   4.563  1.4190  1.9127 -0.6521
11271TIP3   OH255227   3.472   6.370   5.746 -0.4526  0.3844 -0.3770
11271TIP3    H155228   3.525   6.325   5.812 -0.9984 -1.4855 -1.1593
11271TIP3    H255229   3.406   6.417   5.797  0.9321  1.4668  0.5279
11272TIP3   OH255230   6.429   2.583  11.620 -0.2186 -0.0412  1.1845
11272TIP3    H155231   6.354   2.524  11.626 -1.0147  0.9229  0.8231
11272TIP3    H255232   6.494   2.534  11.569 -1.4490 -0.0232 -0.4559
11273TIP3   OH255233   1.274   3.854  13.652 -0.3098  0.0041  0.0286
11273TIP3    H155234   1.201   3.917  13.656 -1.8171 -1.6500 -0.2542
11273TIP3    H255235   1.253   3.798  13.577  0.5655 -1.3162  0.7357
11274TIP3   OH255236   3.385   0.220   2.297  0.0550 -0.0957  0.5386
11274TIP3    H155237   3.325   0.182   2.232 -0.0052 -0.9914  1.0989
11274TIP3    H255238   3.380   0.160   2.371  2.3853 -0.7454  0.2381
11275TIP3   OH255239   1.018   1.131  14.209 -0.1806  0.4097  0.6434
11275TIP3    H155240   0.970   1.086  14.139  1.4460 -1.3542  0.5769
11275TIP3    H255241   1.053   1.210  14.167 -1.4007  0.7486  0.2135
11276TIP3   OH255242   5.689   6.025   4.072  0.0352 -0.1267 -0.6900
11276TIP3    H155243   5.714   6.066   3.989 -0.2342 -1.3357 -1.4098
11276TIP3    H255244   5.737   5.942   4.072 -0.1598 -0.2445  0.2567
11277TIP3   OH255245   0.382   1.116  12.741 -0.1958  0.2338  0.2197
11277TIP3    H155246   0.367   1.190  12.799  0.8887 -0.0940  0.9508
11277TIP3    H255247   0.306   1.059  12.754  0.1888  0.0060  1.5760
11278TIP3   OH255248   6.302   6.740   0.536  0.0605  0.3850  0.8058
11278TIP3    H155249   6.306   6.789   0.454  2.4379 -1.0031  0.0083
11278TIP3    H255250   6.280   6.806   0.602  0.8784  2.1029 -0.5487
11279TIP3   OH255251   4.333   0.014  13.006  0.0452  0.1214 -0.4607
11279TIP3    H155252   4.330   0.084  12.940  0.8662  1.5869  1.0071
11279TIP3    H255253   4.312   0.057  13.088  0.5902 -1.3791  0.5032
11280TIP3   OH255254   4.156   5.520   5.776 -0.1244 -0.0248 -0.0410
11280TIP3    H155255   4.159   5.513   5.872  0.1483 -0.9579 -0.1116
11280TIP3    H255256   4.160   5.430   5.745  1.4156  0.3182 -0.9669
11281TIP3   OH255257   3.506   1.259   0.338  0.4257  0.5393 -0.7515
11281TIP3    H155258   3.492   1.236   0.246  1.4800  0.3859 -0.8859
11281TIP3    H255259   3.460   1.342   0.349 -0.6023  0.0352 -1.1377
11282TIP3   OH255260   5.855   1.646   0.772 -0.1307  0.5177 -0.6190
11282TIP3    H155261   5.875   1.726   0.821 -1.0320 -0.0087  0.6515
11282TIP3    H255262   5.791   1.600   0.826  1.0290 -1.5179 -0.8736
11283TIP3   OH255263   5.130   2.372   2.024  0.2278 -0.2047 -0.2020
11283TIP3    H155264   5.172   2.416   1.950 -0.2431 -0.2280 -0.4879
11283TIP3    H255265   5.037   2.370   2.001  0.3110 -1.9473 -0.5208
11284TIP3   OH255266   3.246   3.349   0.664 -0.2797 -0.2296  0.3292
11284TIP3    H155267   3.155   3.377   0.672  0.0368  1.0451 -0.2656
11284TIP3    H255268   3.269   3.369   0.573  0.2515 -1.6519  0.1295
11285TIP3   OH255269   0.748   0.563  17.259  0.0211  0.2837  0.3874
11285TIP3    H155270   0.843   0.566  17.271  0.2892  1.0392 -1.4644
11285TIP3    H255271   0.735   0.593  17.169 -1.9340 -0.5554  0.3438
11286TIP3   OH255272   5.899   4.558   0.965 -0.1758  1.0042  0.0171
11286TIP3    H155273   5.919   4.467   0.945  1.9258  1.3839  0.0691
11286TIP3    H255274   5.846   4.554   1.044  2.3772 -0.1860  1.8387
11287TIP3   OH255275   0.959   0.641   1.448  0.3208 -0.6796  0.2068
11287TIP3    H155276   1.022   0.608   1.384 -0.4920 -1.7558 -0.0704
11287TIP3    H255277   0.898   0.694   1.397  0.4499 -0.4212  0.3186
11288TIP3   OH255278   0.028   0.500   4.659  0.4472  0.3155  0.2941
11288TIP3    H155279   0.122   0.485   4.648  0.2563 -0.5565 -0.2653
11288TIP3    H255280  -0.012   0.414   4.642 -0.4541  0.6897  0.4684
11289TIP3   OH255281   2.488   1.169   5.188  0.1073  0.6601  0.0818
11289TIP3    H155282   2.476   1.263   5.178 -0.8134  0.7378  1.6203
11289TIP3    H255283   2.541   1.160   5.267  0.1506 -0.1277 -0.0288
11290TIP3   OH255284   3.433   1.830   4.199  0.2218 -0.8023  0.5047
11290TIP3    H155285   3.367   1.763   4.185 -1.7853  1.3887 -1.5825
11290TIP3    H255286   3.471   1.845   4.112  0.6448  0.6548  0.9110
11291TIP3   OH255287   1.297   4.583   3.943  0.7170  0.0443  0.2166
11291TIP3    H155288   1.377   4.636   3.945  0.5887  0.2854 -0.8007
11291TIP3    H255289   1.252   4.610   3.863 -1.1740  1.0613  1.5438
11292TIP3   OH255290   1.038   4.406  11.679  0.0121 -0.1184  0.2053
11292TIP3    H155291   1.093   4.330  11.660 -0.8571 -0.9593  0.9648
11292TIP3    H255292   1.033   4.408  11.775 -1.9117 -0.5582  0.1503
11293TIP3   OH255293   3.479   1.428  11.972  0.0037  0.0857  0.4085
11293TIP3    H155294   3.483   1.349  12.025 -0.9210 -0.8954 -0.9274
11293TIP3    H255295   3.528   1.407  11.892  0.3799  1.1127  0.3529
11294TIP3   OH255296   5.189   4.789   1.699  0.1234  0.1743 -0.2662
11294TIP3    H155297   5.094   4.796   1.694 -0.1321 -2.7502 -2.2881
11294TIP3    H255298   5.205   4.727   1.770  0.2230 -1.6087 -1.7536
11295TIP3   OH255299   2.226   6.391  14.048  0.3016 -0.5949 -0.1626
11295TIP3    H155300   2.262   6.360  14.131  1.2194  1.1488  0.1182
11295TIP3    H255301   2.302   6.405  13.992 -0.2185 -0.4933 -0.8650
11296TIP3   OH255302   4.093   1.925  13.577 -0.3598 -0.3161  0.7706
11296TIP3    H155303   4.146   1.911  13.498 -1.0237 -0.8200  0.4047
11296TIP3    H255304   4.151   1.901  13.649  1.7006  3.8756  0.8163
11297TIP3   OH255305   6.468   6.348   4.443 -0.0997  0.3237  1.0133
11297TIP3    H155306   6.494   6.430   4.485  1.4936 -0.3536  1.3948
11297TIP3    H255307   6.463   6.285   4.515 -1.0244 -0.0021  0.6838
11298TIP3   OH255308   5.144   1.168   4.158 -0.0470 -0.3294 -0.5920
11298TIP3    H155309   5.164   1.167   4.251 -0.6163  1.1364 -0.4271
11298TIP3    H255310   5.152   1.260   4.132 -1.8261 -0.3966 -1.5457
11299TIP3   OH255311   0.575   4.643  15.507  0.1253  0.4780  0.0849
11299TIP3    H155312   0.486   4.634  15.473 -0.9686  0.5993  2.6617
11299TIP3    H255313   0.572   4.723  15.560  1.6480  0.2323  0.5980
11300TIP3   OH255314   4.668   4.017   5.513 -0.0523  0.2574  0.2481
11300TIP3    H155315   4.648   4.015   5.606 -0.6524 -1.6483  0.1204
11300TIP3    H255316   4.597   3.966   5.472  1.3214 -0.7400 -0.9953
11301TIP3   OH255317   0.189   5.847   3.042 -0.1976  0.5764  0.0806
11301TIP3    H155318   0.129   5.780   3.010 -0.0176 -0.3780  1.6549
11301TIP3    H255319   0.132   5.916   3.076 -0.4040  1.8083 -2.4982
11302TIP3   OH255320   3.666   3.775  11.344 -0.6078 -0.3915  0.3273
11302TIP3    H155321   3.573   3.790  11.326 -0.2811  1.8524  0.2467
11302TIP3    H255322   3.697   3.857  11.381  1.4955 -0.8643 -0.2451
11303TIP3   OH255323   1.933   5.390   1.154 -0.2445 -0.5142  0.3713
11303TIP3    H155324   1.840   5.372   1.163 -0.5151  1.1305  1.2971
11303TIP3    H255325   1.968   5.315   1.105 -1.8354 -1.6871  0.9679
11304TIP3   OH255326   5.552   3.833  12.200  0.6818 -0.0771  0.0886
11304TIP3    H155327   5.491   3.822  12.127  0.5819 -0.4405  0.2246
11304TIP3    H255328   5.617   3.896  12.168  0.0537  0.5673  0.0574
11305TIP3   OH255329   3.061   5.808  11.468 -0.2523 -0.2502  0.0199
11305TIP3    H155330   2.992   5.754  11.429  0.7065 -1.4921 -0.0325
11305TIP3    H255331   3.132   5.805  11.404  0.6029 -0.6702  0.9679
11306TIP3   OH255332   2.574   0.596  12.748  0.3639  0.0065  0.0928
11306TIP3    H155333   2.647   0.648  12.715 -0.1211 -0.5803 -2.0905
11306TIP3    H255334   2.608   0.506  12.750  1.2880  0.2714  4.0893
11307TIP3   OH255335   3.762   2.024  11.518 -0.2756 -0.2403 -0.0388
11307TIP3    H155336   3.715   2.000  11.598 -1.8443 -0.2971 -0.9366
11307TIP3    H255337   3.742   1.954  11.456 -0.5449  0.6811 -1.0218
11308TIP3   OH255338   2.842   0.714   4.824  0.1542  0.3137  0.3750
11308TIP3    H155339   2.752   0.722   4.857  0.1910 -0.0177  0.5586
11308TIP3    H255340   2.848   0.623   4.793  0.6630  0.1021  1.0734
11309TIP3   OH255341   1.599   3.217   3.610  0.4862  0.1480  0.4409
11309TIP3    H155342   1.598   3.139   3.555  3.0683  0.5653 -0.3359
11309TIP3    H255343   1.508   3.247   3.612 -0.0857 -1.2585 -1.5978
11310TIP3   OH255344   4.878   4.998  11.752 -0.4373  0.5540  0.4412
11310TIP3    H155345   4.945   4.936  11.722 -0.2416  0.8315  0.3032
11310TIP3    H255346   4.881   5.069  11.689 -1.0252  0.4601  0.3081
11311TIP3   OH255347   5.717   2.477  11.483 -0.0518 -0.7267  0.7770
11311TIP3    H155348   5.663   2.411  11.525  0.1664 -0.6963  1.1030
11311TIP3    H255349   5.807   2.449  11.498  0.0409 -1.5820 -1.0258
11312TIP3   OH255350   0.774   0.932  12.741 -0.6741 -0.4369 -0.0252
11312TIP3    H155351   0.853   0.897  12.783 -1.3217  0.3286  1.9230
11312TIP3    H255352   0.805   1.010  12.695 -0.3433  0.1660  1.1686
11313TIP3   OH255353   1.678   5.074   2.105 -0.1373 -0.6166 -0.1775
11313TIP3    H155354   1.661   5.099   2.015 -1.8545 -1.9439 -0.2847
11313TIP3    H255355   1.686   4.978   2.102  1.1730 -0.5777  0.8960
11314TIP3   OH255356   1.628   4.621  11.889  0.1305  0.2672  0.0228
11314TIP3    H155357   1.564   4.550  11.890  0.3720  0.0527  1.4115
11314TIP3    H255358   1.678   4.611  11.970  0.5857  1.6501 -0.0498
11315TIP3   OH255359   4.354   1.816   5.045  0.0541  0.0076  0.2157
11315TIP3    H155360   4.347   1.754   4.973  0.1258 -1.1734  1.2063
11315TIP3    H255361   4.266   1.821   5.082  0.9072 -3.3285  3.1982
11316TIP3   OH255362   4.722   1.395   4.858  0.1797  0.1987 -0.1973
11316TIP3    H155363   4.707   1.361   4.946 -1.5188 -0.6959 -0.7897
11316TIP3    H255364   4.741   1.318   4.805  1.7226  0.7806 -0.5504
11317TIP3   OH255365   3.444   1.994  16.861 -0.3788  0.0115 -1.0459
11317TIP3    H155366   3.371   2.010  16.802 -1.2619 -0.5883 -0.1400
11317TIP3    H255367   3.487   2.079  16.870 -2.1679  0.8536 -0.0171
11318TIP3   OH255368   3.422   3.396  14.242  0.1371  0.7577 -0.5025
11318TIP3    H155369   3.360   3.431  14.179 -0.4070 -2.2009 -1.7844
11318TIP3    H255370   3.507   3.433  14.216 -0.6269  2.6366 -0.4592
11319TIP3   OH255371   1.295   4.573  15.859  0.4775 -0.3461  0.1867
11319TIP3    H155372   1.245   4.565  15.778 -1.2243  1.6118  0.9515
11319TIP3    H255373   1.320   4.665  15.863  0.6248 -0.4193  1.8047
11320TIP3   OH255374   5.614   2.620   2.743  0.0947 -0.0565 -0.3444
11320TIP3    H155375   5.679   2.566   2.790 -3.0521 -1.6087  2.6913
11320TIP3    H255376   5.629   2.709   2.776  1.3144 -0.1878 -0.5000
11321TIP3   OH255377   6.195   0.279  15.047 -0.1390  0.2584 -0.0192
11321TIP3    H155378   6.199   0.191  15.085 -1.8865 -0.2367 -0.8816
11321TIP3    H255379   6.286   0.309  15.046  0.3545 -1.0487  1.3933
11322TIP3   OH255380   2.604   4.978   6.526  0.6146 -0.1180 -0.3784
11322TIP3    H155381   2.677   4.954   6.583  0.4779  2.0836  0.8678
11322TIP3    H255382   2.528   4.937   6.567  0.6932  0.4432  0.3636
11323TIP3   OH255383   2.651   5.985   4.896 -1.0766  0.0325 -0.0119
11323TIP3    H155384   2.728   6.034   4.927 -1.3806 -0.2625  1.2394
11323TIP3    H255385   2.607   6.046   4.836  0.3284  0.0669 -1.0673
11324TIP3   OH255386   4.389   2.323   2.666 -0.1419 -0.3080  0.4446
11324TIP3    H155387   4.399   2.406   2.620 -1.6174 -0.5314 -0.3416
11324TIP3    H255388   4.472   2.310   2.711  0.5617  0.9753 -0.4303
11325TIP3   OH255389   2.147   3.231  13.565  0.3027  0.2286 -0.5250
11325TIP3    H155390   2.132   3.269  13.478  1.2324  1.4398 -0.1914
11325TIP3    H255391   2.225   3.276  13.597  0.8281 -1.2435  0.3537
11326TIP3   OH255392   0.386   6.249  11.918  0.7823 -0.1209 -0.1225
11326TIP3    H155393   0.424   6.331  11.949  1.0849  0.4119 -1.8422
11326TIP3    H255394   0.439   6.181  11.961  2.4695  0.6044 -0.9531
11327TIP3   OH255395   3.804   1.022   2.281  0.0606  0.6424 -0.1662
11327TIP3    H155396   3.898   1.037   2.290  0.0030 -0.1132  2.2473
11327TIP3    H255397   3.766   1.110   2.282  0.6451  0.8943  0.1886
11328TIP3   OH255398   6.748   1.238  12.300  0.4188  0.1465  0.0634
11328TIP3    H155399   6.785   1.299  12.364  0.2426  1.6339 -1.2001
11328TIP3    H255400   6.824   1.191  12.265  0.6193  0.0257  0.6529
11329TIP3   OH255401   5.279   5.310  11.213 -0.1262 -0.0721 -0.1402
11329TIP3    H155402   5.220   5.374  11.173  0.4979 -0.8791 -2.4665
11329TIP3    H255403   5.365   5.351  11.210  0.5907 -1.5355 -3.2040
11330TIP3   OH255404   6.635   5.903   4.482  0.4757 -0.3084  0.0387
11330TIP3    H155405   6.704   5.925   4.419  2.5202  0.6294  2.4389
11330TIP3    H255406   6.614   5.987   4.524 -2.5432 -0.4862 -0.9250
11331TIP3   OH255407   4.871   4.282   2.162 -0.1808  0.1934  0.6795
11331TIP3    H155408   4.932   4.346   2.125 -0.4305  0.5617  0.8914
11331TIP3    H255409   4.854   4.221   2.091  1.2285 -0.5203  0.9202
11332TIP3   OH255410   1.190   0.010  14.808  0.4636  0.4443 -0.0385
11332TIP3    H155411   1.104  -0.018  14.839  0.0148  0.8606 -0.8862
11332TIP3    H255412   1.250  -0.056  14.842 -0.2328 -0.0480  0.2567
11333TIP3   OH255413   3.289   0.202  14.971 -0.4435 -0.0467  0.6385
11333TIP3    H155414   3.373   0.190  15.017  0.1565 -0.4910 -0.5432
11333TIP3    H255415   3.292   0.292  14.939 -0.7459  0.1742  1.2079
11334TIP3   OH255416   1.128   5.121  13.170  0.4417  0.0549 -0.1353
11334TIP3    H155417   1.166   5.034  13.163 -0.0623 -0.5105  2.9225
11334TIP3    H255418   1.046   5.116  13.120  0.5187 -1.1414 -0.1567
11335TIP3   OH255419   2.513   4.465  14.727 -0.2332  0.3824 -0.1760
11335TIP3    H155420   2.551   4.544  14.764  0.1882  0.5339 -0.9041
11335TIP3    H255421   2.423   4.489  14.705 -0.4277  0.3453  0.5522
11336TIP3   OH255422   6.103   4.781  12.580 -0.1558 -0.0772  0.2976
11336TIP3    H155423   6.014   4.746  12.583 -0.3723  0.3771 -0.6224
11336TIP3    H255424   6.131   4.782  12.672 -0.3418 -2.1127  0.4348
11337TIP3   OH255425   2.926   6.191   0.009  0.0943 -0.5785 -0.2810
11337TIP3    H155426   2.966   6.258  -0.046  0.1237 -1.0600 -0.8685
11337TIP3    H255427   2.870   6.142  -0.052 -1.7887  0.3842  0.6013
11338TIP3   OH255428   3.388   0.739  14.865  0.0216 -0.0957 -0.3896
11338TIP3    H155429   3.405   0.725  14.958 -2.3247  0.0954  0.1221
11338TIP3    H255430   3.369   0.833  14.858  0.5378 -0.0357 -1.1492
11339TIP3   OH255431   3.428   5.830   1.712 -0.3499  0.4960 -0.0813
11339TIP3    H155432   3.341   5.869   1.722 -0.2520  0.5545  0.5817
11339TIP3    H255433   3.469   5.880   1.641 -0.7423  0.6694 -0.1885
11340TIP3   OH255434   2.775   1.247   5.699  0.1200  0.4154  0.0963
11340TIP3    H155435   2.797   1.282   5.785 -0.2287  0.6735  0.0826
11340TIP3    H255436   2.840   1.178   5.684  0.6872  0.9189  0.2120
11341TIP3   OH255437   5.393   5.690  15.789 -0.3353  0.0427 -0.0701
11341TIP3    H155438   5.360   5.761  15.844  0.0649  0.2073 -0.0354
11341TIP3    H255439   5.445   5.636  15.849 -0.5213 -0.2023 -0.1273
11342TIP3   OH255440   6.141   5.353   3.735  0.5278  0.0807  0.2260
11342TIP3    H155441   6.070   5.310   3.686  1.3187  0.6030 -1.4703
11342TIP3    H255442   6.207   5.285   3.745  1.1579  0.4529 -1.1559
11343TIP3   OH255443   2.487   6.493  16.749  0.9548 -0.0714 -0.1401
11343TIP3    H155444   2.472   6.554  16.821  0.8103 -0.2512 -0.0198
11343TIP3    H255445   2.403   6.450  16.735  1.6235 -1.9536  1.3224
11344TIP3   OH255446   5.471   1.077   0.295 -0.0592 -0.4010  0.1161
11344TIP3    H155447   5.508   1.130   0.225 -0.1277  1.0031  1.1047
11344TIP3    H255448   5.400   1.028   0.254  0.6622 -0.5181 -1.0408
11345TIP3   OH255449   0.638   1.567  12.463  0.8443 -0.2475 -0.0328
11345TIP3    H155450   0.664   1.506  12.532 -0.3137 -0.4434  0.2464
11345TIP3    H255451   0.675   1.529  12.383  4.2698  1.2253  0.6996
11346TIP3   OH255452   2.532   6.630  15.497 -0.0386  0.1461  0.2860
11346TIP3    H155453   2.438   6.627  15.513 -0.2460 -2.9477 -0.9224
11346TIP3    H255454   2.567   6.554  15.543  1.5836  0.1390 -0.8736
11347TIP3   OH255455   3.977   5.355  16.696 -0.2160  0.1772 -0.1468
11347TIP3    H155456   4.071   5.364  16.713 -0.2409 -0.2360  0.2472
11347TIP3    H255457   3.935   5.391  16.773 -0.3047 -4.0737  2.1169
11348TIP3   OH255458   0.524   2.389  15.569 -0.1069  0.4840 -0.3720
11348TIP3    H155459   0.602   2.373  15.622 -0.4174  2.0834  0.6142
11348TIP3    H255460   0.524   2.318  15.505  1.7974  0.0900  0.0102
11349TIP3   OH255461   5.041   3.484  13.053  0.3892  0.1981  0.5393
11349TIP3    H155462   5.121   3.516  13.009 -0.4003  3.3484  1.1116
11349TIP3    H255463   5.055   3.505  13.145 -0.9563  0.5239  0.6873
11350TIP3   OH255464   6.117   4.602  14.823 -0.1895 -0.0037  0.0944
11350TIP3    H155465   6.084   4.628  14.737 -0.0923  1.3503  0.4361
11350TIP3    H255466   6.055   4.641  14.885  0.3749  0.0200  0.6543
11351TIP3   OH255467   1.309   1.381   3.091 -0.5607 -0.7764 -0.1815
11351TIP3    H155468   1.315   1.339   3.005 -1.1658  0.2213 -0.7232
11351TIP3    H255469   1.275   1.468   3.074  1.0601  0.1237  0.8768
11352TIP3   OH255470   2.418   1.731   5.637  0.2410 -0.0168  0.2617
11352TIP3    H155471   2.496   1.782   5.616  2.5849 -2.7438  1.7829
11352TIP3    H255472   2.350   1.797   5.651  1.9300  2.4292 -2.1452
11353TIP3   OH255473   3.013   2.040   0.420 -0.0381  0.2101 -0.6396
11353TIP3    H155474   2.977   2.096   0.352 -0.6841 -0.1285 -0.5762
11353TIP3    H255475   3.002   1.951   0.388  1.2362  0.1037 -0.8630
11354TIP3   OH255476   4.072   2.391   1.837  0.3842  0.1533  0.0149
11354TIP3    H155477   4.167   2.384   1.826  0.6223  0.3194  1.6838
11354TIP3    H255478   4.042   2.302   1.857  0.3746  0.2822  0.6127
11355TIP3   OH255479   3.781   0.991   4.930 -0.5597  0.6286 -0.2801
11355TIP3    H155480   3.866   0.974   4.971 -0.4723 -0.2877 -0.8159
11355TIP3    H255481   3.728   0.915   4.952 -1.8162  1.9098  1.4373
11356TIP3   OH255482   3.347   1.254  11.334  0.4640  0.4109 -0.3608
11356TIP3    H155483   3.378   1.295  11.253 -2.3471 -0.2028 -1.8920
11356TIP3    H255484   3.261   1.292  11.349  0.7955  0.2969  2.2525
11357TIP3   OH255485   1.792   2.973   0.133  0.1127  0.7734  0.0476
11357TIP3    H155486   1.767   2.905   0.071 -1.4507  0.2208  1.2080
11357TIP3    H255487   1.737   2.957   0.210  1.2415  2.0498  1.1877
11358TIP3   OH255488   0.477   3.433  13.167  0.3799 -0.2465  0.6760
11358TIP3    H155489   0.402   3.381  13.195  0.0723 -0.6310 -0.7582
11358TIP3    H255490   0.544   3.419  13.234 -0.1834 -1.3961  1.0118
11359TIP3   OH255491   0.009   3.934  14.917  0.6744 -0.1015  0.3979
11359TIP3    H155492   0.080   3.921  14.855  0.2686  1.3734 -0.4355
11359TIP3    H255493  -0.070   3.909  14.869  0.5011 -0.4630  0.8653
11360TIP3   OH255494   2.043   5.413  11.219  0.0809 -0.9588  1.0633
11360TIP3    H155495   1.988   5.405  11.142  0.7100 -0.0929  0.5021
11360TIP3    H255496   2.000   5.359  11.285 -0.2655 -2.0099  0.0092
11361TIP3   OH255497   6.723   0.729   3.539  0.2315  0.1624  0.3249
11361TIP3    H155498   6.715   0.817   3.501  0.1723  0.3901  0.8520
11361TIP3    H255499   6.793   0.738   3.604 -0.4271  0.0640  1.0587
11362TIP3   OH255500   4.689   6.035   5.147  0.1483  0.3504 -0.0943
11362TIP3    H155501   4.751   5.996   5.085  1.0317  1.6438 -0.0642
11362TIP3    H255502   4.659   6.115   5.103  0.9242  1.3802  1.1935
11363TIP3   OH255503   5.840   3.641  15.836  0.6732 -0.1328 -0.3685
11363TIP3    H155504   5.867   3.689  15.758  0.8573  0.9166  0.3096
11363TIP3    H255505   5.850   3.705  15.907 -0.6018 -0.6949  0.3455
11364TIP3   OH255506   5.053   0.230   3.772 -0.0828 -0.3968  0.0026
11364TIP3    H155507   5.032   0.210   3.681  0.1472  0.0147 -0.1468
11364TIP3    H255508   5.076   0.323   3.771  1.1168 -0.6728  0.2581
11365TIP3   OH255509   4.939   6.652  14.170  0.0696 -0.1291 -0.9562
11365TIP3    H155510   4.877   6.665  14.242 -0.1532  1.0391 -1.3332
11365TIP3    H255511   4.942   6.557  14.158 -0.9566 -0.2623 -0.3454
11366TIP3   OH255512   2.917   2.012  12.309  0.1306 -0.7548 -0.5376
11366TIP3    H155513   2.975   2.087  12.295 -0.2602 -0.0204  1.3934
11366TIP3    H255514   2.832   2.041  12.277 -0.2583  0.0794  1.1151
11367TIP3   OH255515   6.498   3.193  16.731 -0.4177 -0.0662 -0.3031
11367TIP3    H155516   6.560   3.141  16.680 -2.1004 -3.0388  0.4236
11367TIP3    H255517   6.439   3.231  16.666 -1.2528 -2.0401 -0.7668
11368TIP3   OH255518   6.065   6.138   5.711 -0.7208  0.0562  0.1338
11368TIP3    H155519   6.056   6.170   5.622  2.0426  0.8048  0.0309
11368TIP3    H255520   6.018   6.202   5.764  1.3599  2.2597 -0.4622
11369TIP3   OH255521   5.307   1.414  16.263 -0.0519 -0.4003  0.5248
11369TIP3    H155522   5.351   1.348  16.211  0.2564 -0.5614  0.9863
11369TIP3    H255523   5.256   1.365  16.328  0.4344 -0.1916  1.0791
11370TIP3   OH255524   2.579   3.507   4.592 -0.5039 -0.0200 -0.3272
11370TIP3    H155525   2.499   3.460   4.616  1.2969 -3.3245 -0.1112
11370TIP3    H255526   2.571   3.520   4.498 -1.7078  0.6498 -0.1567
11371TIP3   OH255527   0.886   1.690   1.611  0.6801 -0.3329 -0.1815
11371TIP3    H155528   0.930   1.736   1.539  0.1190 -0.0054 -0.3170
11371TIP3    H255529   0.922   1.729   1.690 -0.4273  0.9611 -0.2953
11372TIP3   OH255530   2.107   4.389   6.195 -0.2060 -0.2834 -0.1644
11372TIP3    H155531   2.079   4.380   6.104 -1.2306  0.2572  0.0705
11372TIP3    H255532   2.046   4.454   6.232  0.6639  0.0695  0.7060
11373TIP3   OH255533   0.620   6.649   2.934  0.2943 -0.0641 -0.0390
11373TIP3    H155534   0.694   6.688   2.888 -0.3737  1.1160 -0.1712
11373TIP3    H255535   0.639   6.663   3.027  0.7084 -0.6848 -0.0229
11374TIP3   OH255536   2.285   6.148   4.191 -0.4205 -0.0364 -0.0994
11374TIP3    H155537   2.367   6.101   4.172  0.4008  1.3699 -0.1380
11374TIP3    H255538   2.313   6.228   4.235 -1.9327 -0.5707  1.9416
11375TIP3   OH255539   3.502   2.801  16.741 -0.1645  0.4754  0.2933
11375TIP3    H155540   3.578   2.752  16.709  0.3821  0.8987  0.9180
11375TIP3    H255541   3.537   2.857  16.810 -0.9751  0.9745  0.3130
11376TIP3   OH255542   5.344   5.201  15.366  0.9912 -0.2145 -0.3162
11376TIP3    H155543   5.322   5.219  15.275  0.3839  2.2399  0.2409
11376TIP3    H255544   5.383   5.114  15.365  0.9747 -0.2532 -2.8994
11377TIP3   OH255545   5.160   3.914  16.883  0.5319 -0.0519 -0.3110
11377TIP3    H155546   5.151   3.923  16.788  0.2082  0.1276 -0.2652
11377TIP3    H255547   5.146   3.820  16.900 -1.9180  0.2801 -0.1857
11378TIP3   OH255548   4.406   5.825  13.061  0.0600 -0.5032  0.4747
11378TIP3    H155549   4.393   5.910  13.018 -1.7978 -0.3872  1.1898
11378TIP3    H255550   4.481   5.839  13.119  1.1444 -0.0069 -0.9670
11379TIP3   OH255551   1.640   3.346  13.036  0.6224 -0.0399 -0.3624
11379TIP3    H155552   1.656   3.438  13.060 -0.5505  0.2104 -0.4541
11379TIP3    H255553   1.712   3.298  13.076  1.5933  0.9822 -0.8139
11380TIP3   OH255554   0.980   2.049  13.316 -0.2391 -0.4892  0.2962
11380TIP3    H155555   1.038   1.975  13.334 -0.9308 -1.3211 -0.7250
11380TIP3    H255556   0.933   2.064  13.398  0.0513 -1.0629  0.5717
11381TIP3   OH255557   3.101   2.270   1.092  0.0423 -0.1765  0.3200
11381TIP3    H155558   3.036   2.313   1.035  1.9634 -0.3148 -2.1121
11381TIP3    H255559   3.170   2.335   1.103  0.4770 -0.7562  1.1841
11382TIP3   OH255560   5.101   0.222   1.957 -0.1320  0.4285 -0.7405
11382TIP3    H155561   5.073   0.142   2.002  1.5244 -0.1799 -0.7090
11382TIP3    H255562   5.053   0.222   1.874  0.8513 -1.3412 -1.3505
11383TIP3   OH255563   5.071   4.709  12.931  1.0550 -0.0073  0.4311
11383TIP3    H155564   4.975   4.711  12.936  0.8356  1.0043 -2.1681
11383TIP3    H255565   5.095   4.620  12.956 -0.8398 -1.1083 -1.3345
11384TIP3   OH255566   2.493   0.865  14.416 -0.3119 -0.0685  0.0869
11384TIP3    H155567   2.407   0.825  14.424 -0.3738  0.1408  0.5557
11384TIP3    H255568   2.543   0.830  14.490 -0.8346  1.8248  1.4292
11385TIP3   OH255569   6.696   3.892   0.513 -0.2063 -0.1517  0.1974
11385TIP3    H155570   6.749   3.839   0.454 -0.9346 -0.8696  0.1675
11385TIP3    H255571   6.755   3.911   0.587  0.3123 -0.3238 -0.1667
11386TIP3   OH255572   5.938   4.896  14.675 -0.1039  0.1686  0.1531
11386TIP3    H155573   5.848   4.923  14.657 -0.2022 -0.5186 -0.4513
11386TIP3    H255574   5.948   4.907  14.769 -0.8165  0.2813  0.2235
11387TIP3   OH255575   4.248   3.245   4.483  0.2937  0.0027 -0.0179
11387TIP3    H155576   4.268   3.259   4.391  1.0289  1.3404  0.3044
11387TIP3    H255577   4.166   3.197   4.484 -0.6504  1.4933 -1.3705
11388TIP3   OH255578   5.661   5.903   0.063  0.0514  0.0833  0.1991
11388TIP3    H155579   5.626   5.928   0.149  2.0160 -0.1963  1.1384
11388TIP3    H255580   5.683   5.810   0.072  1.6795  0.4011 -0.0359
11389TIP3   OH255581   2.850   3.981   0.581  0.0331 -0.0007 -0.3917
11389TIP3    H155582   2.826   3.968   0.672  1.5123  0.1764  0.0522
11389TIP3    H255583   2.944   4.000   0.583 -0.1633  1.3918 -1.8179
11390TIP3   OH255584   4.453   3.863   2.273  0.1100  0.6327 -0.0408
11390TIP3    H155585   4.450   3.768   2.280 -1.4403  0.7000  0.7727
11390TIP3    H255586   4.365   3.887   2.243  0.3049  1.8444  0.3109
11391TIP3   OH255587   0.796   6.389   0.937  0.3274  0.1724  0.4229
11391TIP3    H155588   0.884   6.419   0.913  0.0210  0.0810 -0.8991
11391TIP3    H255589   0.802   6.371   1.030  2.5333 -2.5710 -0.0898
11392TIP3   OH255590   0.888   3.940  11.679  0.1914 -0.0532  0.5594
11392TIP3    H155591   0.916   3.980  11.762  0.0841  2.1526 -0.3994
11392TIP3    H255592   0.938   3.986  11.612  0.2147 -1.7400 -0.6558
11393TIP3   OH255593   0.942   0.388   4.982  0.0125 -0.1424 -0.1963
11393TIP3    H155594   0.863   0.353   5.023  0.6702 -0.0305  1.2157
11393TIP3    H255595   0.941   0.482   5.005  0.3934 -0.0820 -0.4234
11394TIP3   OH255596   1.525   1.170  14.983 -0.2042 -0.4944 -0.2251
11394TIP3    H155597   1.491   1.147  14.896  1.3343 -0.4582 -0.8597
11394TIP3    H255598   1.459   1.137  15.044 -2.1051  0.8644 -1.4432
11395TIP3   OH255599   3.293   4.623  15.588  0.1205  0.0622  0.5309
11395TIP3    H155600   3.219   4.619  15.649 -0.9803  0.8678 -0.6956
11395TIP3    H255601   3.257   4.662  15.509  1.7822  0.0974 -0.2572
11396TIP3   OH255602   2.473   3.715  12.787  0.1144  1.3077  0.0814
11396TIP3    H155603   2.495   3.734  12.879  0.2871  0.8886  0.1285
11396TIP3    H255604   2.557   3.719  12.741 -0.0786  2.3457 -0.2121
11397TIP3   OH255605   4.520   2.887   2.145  0.3570  1.2461 -0.0870
11397TIP3    H155606   4.487   2.969   2.108  0.4728  0.7113 -1.4634
11397TIP3    H255607   4.443   2.830   2.152  0.5607  0.8398 -0.9583
11398TIP3   OH255608   4.121   3.642   6.020  0.3598 -0.1170 -0.2692
11398TIP3    H155609   4.070   3.612   5.945 -0.2808 -2.0374  0.8545
11398TIP3    H255610   4.108   3.574   6.087 -0.0596  2.0402  2.0228
11399TIP3   OH255611   3.800   6.109  14.035 -0.0256 -0.6454 -0.1900
11399TIP3    H155612   3.842   6.026  14.013  0.5031 -0.7867  1.2635
11399TIP3    H255613   3.833   6.130  14.122  1.1348  1.9244 -1.1513
11400TIP3   OH255614   5.707   1.170   5.555  1.0031  0.3991 -0.1393
11400TIP3    H155615   5.774   1.138   5.615  0.9163  0.2047 -0.1461
11400TIP3    H255616   5.661   1.091   5.526 -1.5035  0.7369  2.5201
11401TIP3   OH255617   1.640   4.286  15.714  0.5722 -0.0895 -0.4774
11401TIP3    H155618   1.722   4.306  15.669 -0.4764  1.3063 -1.8738
11401TIP3    H255619   1.616   4.199  15.681  0.6011  0.2533 -1.4256
11402TIP3   OH255620   3.897   5.145   2.890  0.3825  0.5203  0.2201
11402TIP3    H155621   3.993   5.139   2.885  0.4283 -0.2194  1.6252
11402TIP3    H255622   3.880   5.207   2.960 -0.1744  0.8672 -0.2171
11403TIP3   OH255623   3.162   4.796  14.974 -0.1365 -0.2624  0.5641
11403TIP3    H155624   3.197   4.737  15.040  0.5215  0.2334  0.6729
11403TIP3    H255625   3.119   4.866  15.024  0.5683  0.2389  0.4891
11404TIP3   OH255626   1.963   3.856   5.409  0.1678 -0.2586  0.2514
11404TIP3    H155627   1.906   3.788   5.445 -0.2542  0.9079  1.8938
11404TIP3    H255628   2.034   3.865   5.472 -0.1592  1.2847  0.4495
11405TIP3   OH255629   5.782   1.970   2.226 -0.0169  0.3127 -0.2474
11405TIP3    H155630   5.755   1.945   2.137 -0.2803  2.1843 -0.7391
11405TIP3    H255631   5.700   1.992   2.270  0.1369 -0.3786  0.4054
11406TIP3   OH255632   5.657   1.526   4.259 -0.3376  0.1101  0.3198
11406TIP3    H155633   5.701   1.609   4.241 -0.2276  0.1578  0.7998
11406TIP3    H255634   5.710   1.461   4.212  0.4712  0.1183  1.1816
11407TIP3   OH255635   2.110   5.250   4.677 -0.4176 -0.9570 -0.0088
11407TIP3    H155636   2.032   5.249   4.733 -1.0721 -1.5342 -0.8969
11407TIP3    H255637   2.136   5.342   4.675 -0.6114 -0.8690  0.9083
11408TIP3   OH255638   0.083   5.431   0.433  0.1426  0.2597 -0.2603
11408TIP3    H155639   0.011   5.372   0.410  0.3236 -0.3644  0.7142
11408TIP3    H255640   0.052   5.478   0.510  0.8791 -0.2155  0.3361
11409TIP3   OH255641   3.877   3.135  12.849  0.8879 -0.6920 -0.3456
11409TIP3    H155642   3.920   3.206  12.802  1.0001  0.4322  1.3526
11409TIP3    H255643   3.786   3.162  12.857  0.9293 -0.7180  0.3054
11410TIP3   OH255644   0.094   3.998  13.805 -0.3025 -0.3058  0.2574
11410TIP3    H155645   0.058   3.942  13.737 -0.0905 -0.3775  0.2024
11410TIP3    H255646   0.024   4.059  13.827 -0.3340 -0.2154 -0.1018
11411TIP3   OH255647   4.781   3.404  16.832  0.1548  0.0192  0.3799
11411TIP3    H155648   4.858   3.377  16.882  0.0389  0.8025  0.9898
11411TIP3    H255649   4.717   3.334  16.846  0.2024  0.1285  1.1512
11412TIP3   OH255650   0.043   1.869  17.214  0.8174 -0.1900 -0.6118
11412TIP3    H155651  -0.034   1.909  17.174  0.7725  0.9350  0.5298
11412TIP3    H255652   0.102   1.942  17.230  0.3113 -0.3238  2.4873
11413TIP3   OH255653   6.508   4.944  11.868  0.7240 -0.0777  0.4182
11413TIP3    H155654   6.580   4.901  11.822  0.5101 -0.3870  0.3693
11413TIP3    H255655   6.551   5.002  11.931  1.0232 -0.8528  0.9469
11414TIP3   OH255656   5.459   5.966   1.244 -0.0618 -0.2285 -0.1546
11414TIP3    H155657   5.520   5.898   1.212 -1.5138 -1.0608 -1.2698
11414TIP3    H255658   5.490   5.985   1.332  2.0762 -0.3083 -0.8150
11415TIP3   OH255659   4.148   0.121   3.827  0.6459 -0.2880  0.0384
11415TIP3    H155660   4.073   0.148   3.879 -0.1609  2.4102 -2.2464
11415TIP3    H255661   4.168   0.032   3.856 -1.8669 -0.1765  2.4147
11416TIP3   OH255662   6.154   1.114  16.631  0.0473  0.0019 -0.2162
11416TIP3    H155663   6.114   1.183  16.684  0.7079 -0.7075  1.2801
11416TIP3    H255664   6.239   1.098  16.673  0.6357 -0.5490 -1.5518
11417TIP3   OH255665   4.739   0.588  14.370 -0.0689  0.5705  0.1943
11417TIP3    H155666   4.685   0.587  14.448 -0.3233  1.6651  0.0602
11417TIP3    H255667   4.698   0.654  14.313  0.3659  0.1232 -0.6696
11418TIP3   OH255668   5.799   1.785   4.874  0.2887 -0.0619 -0.1059
11418TIP3    H155669   5.731   1.799   4.808  1.6462 -0.5602 -1.6696
11418TIP3    H255670   5.751   1.777   4.957 -1.9175 -3.8527 -1.5404
11419TIP3   OH255671   2.870   0.962   6.429  0.5215 -0.2596  0.1135
11419TIP3    H155672   2.801   1.022   6.403 -0.4576 -1.1117  0.6509
11419TIP3    H255673   2.845   0.878   6.390  1.8704 -0.3362 -0.6376
11420TIP3   OH255674   3.108   0.917  11.759  0.2993  0.1308 -0.2716
11420TIP3    H155675   3.139   0.834  11.796  1.5424  0.7737  0.1496
11420TIP3    H255676   3.031   0.939  11.812  1.1569  0.2654  0.9480
11421TIP3   OH255677   3.672   0.046  13.540 -0.6753 -0.5738 -0.7731
11421TIP3    H155678   3.616   0.124  13.542  0.3396  0.1711 -0.6085
11421TIP3    H255679   3.722   0.054  13.459 -0.5352 -1.0395 -0.7376
11422TIP3   OH255680   3.565   4.645  10.842 -0.1612  0.3076  0.2792
11422TIP3    H155681   3.633   4.618  10.779  0.3247  0.3871  0.7604
11422TIP3    H255682   3.499   4.576  10.836  0.6001 -0.4947  0.7718
11423TIP3   OH255683   3.991   4.582  13.502  0.0327  0.0393 -0.2148
11423TIP3    H155684   4.070   4.622  13.539  1.9958 -2.5519 -1.2533
11423TIP3    H255685   3.948   4.541  13.577  0.5509  0.1515  0.1524
11424TIP3   OH255686   0.048   1.035   5.327 -0.2014 -0.0455 -0.1108
11424TIP3    H155687  -0.022   1.089   5.366 -1.1238 -0.7625 -0.7305
11424TIP3    H255688   0.003   0.958   5.294  0.4792  0.6210 -2.8389
11425TIP3   OH255689   0.533   3.110   1.069  0.0102 -0.0830  0.1619
11425TIP3    H155690   0.537   3.198   1.032  1.4412 -0.7931 -1.5201
11425TIP3    H255691   0.444   3.102   1.102 -1.0247  1.0453 -2.1381
11426TIP3   OH255692   5.223   0.188  12.014 -0.1610 -0.2202  0.3639
11426TIP3    H155693   5.276   0.109  12.001 -1.0813 -0.7285 -0.4490
11426TIP3    H255694   5.189   0.208  11.926 -1.1617  0.1951  0.8304
11427TIP3   OH255695   1.412   1.140  14.729  0.1129  0.4292 -0.0517
11427TIP3    H155696   1.368   1.225  14.725 -3.0495 -0.9418  1.8188
11427TIP3    H255697   1.341   1.076  14.726  2.1929 -2.1061  0.9791
11428TIP3   OH255698   5.990   1.209  14.160 -0.7609 -0.6744 -0.1166
11428TIP3    H155699   6.022   1.293  14.193 -2.2311  0.7186 -2.0287
11428TIP3    H255700   5.898   1.224  14.139 -0.5068 -2.0497 -2.6244
11429TIP3   OH255701   1.173   4.331   0.554 -0.4282 -0.6131 -0.2408
11429TIP3    H155702   1.098   4.274   0.566  0.0638 -1.6707 -1.8260
11429TIP3    H255703   1.248   4.271   0.550  0.0879  0.0934 -2.0690
11430TIP3   OH255704   1.776   5.575   0.165 -0.5539  0.0709 -0.2516
11430TIP3    H155705   1.788   5.495   0.114 -2.6110  0.1284 -0.9258
11430TIP3    H255706   1.823   5.642   0.115  2.0142 -0.7939  0.8131
11431TIP3   OH255707   5.881   2.920  13.718  0.2069 -0.2273  0.0102
11431TIP3    H155708   5.968   2.915  13.755  0.3134  0.4318 -0.1420
11431TIP3    H255709   5.895   2.921  13.623 -0.0607 -1.9035 -0.0812
11432TIP3   OH255710   0.350   2.766  12.697 -0.1661 -0.3604  0.3090
11432TIP3    H155711   0.446   2.756  12.702 -0.3225 -1.7435  1.6197
11432TIP3    H255712   0.318   2.718  12.774 -2.0881 -2.7101 -1.7997
11433TIP3   OH255713   6.672   5.964  14.910  0.2777  0.6336  0.0099
11433TIP3    H155714   6.640   5.932  14.825 -0.0280 -2.5164  1.1896
11433TIP3    H255715   6.607   5.933  14.973  1.2622  1.6563  1.5879
11434TIP3   OH255716   1.480   3.771  13.052 -0.4625 -0.0419 -0.1030
11434TIP3    H155717   1.505   3.724  12.972 -1.4182 -1.0783  0.1831
11434TIP3    H255718   1.467   3.862  13.023 -0.2559 -0.2906 -1.0129
11435TIP3   OH255719   5.374   0.338   5.057 -0.4415  0.1007  0.3154
11435TIP3    H155720   5.338   0.273   5.117 -0.3912 -0.3491 -0.1286
11435TIP3    H255721   5.398   0.287   4.979  0.7543  0.4450  0.4289
11436TIP3   OH255722   5.126   6.189  13.212  0.4960 -0.0616 -0.3092
11436TIP3    H155723   5.118   6.201  13.117  0.2626 -0.8197 -0.3890
11436TIP3    H255724   5.156   6.274  13.244  0.3820  0.2640 -1.0380
11437TIP3   OH255725   3.680   6.355   1.066 -0.1597 -0.1242  0.0274
11437TIP3    H155726   3.709   6.269   1.097 -0.4581  0.4584  2.0820
11437TIP3    H255727   3.585   6.347   1.060 -0.2695  0.2559  0.9991
11438TIP3   OH255728   5.910   4.730   3.043 -0.3484 -0.2318 -0.2270
11438TIP3    H155729   5.958   4.811   3.060 -0.8458 -0.0075  0.1391
11438TIP3    H255730   5.972   4.661   3.065 -0.1190  0.0534  0.0366
11439TIP3   OH255731   1.720   0.760   4.787 -0.4646 -0.4164  0.0361
11439TIP3    H155732   1.799   0.749   4.733 -0.4728  0.6919 -0.2247
11439TIP3    H255733   1.680   0.673   4.788  0.3390 -0.8133 -0.4822
11440TIP3   OH255734   2.967   2.396  13.229  0.4693 -0.3991  0.3903
11440TIP3    H155735   2.935   2.339  13.298  2.3927 -0.4684  1.3010
11440TIP3    H255736   2.926   2.362  13.149  0.5547 -2.2537  1.0833
11441TIP3   OH255737   1.587   6.111  11.747 -0.0855 -0.1102  0.0571
11441TIP3    H155738   1.499   6.094  11.713 -0.6037  0.1910  1.1723
11441TIP3    H255739   1.572   6.153  11.832  1.1314  2.3563 -0.8578
11442TIP3   OH255740   4.318   1.080  11.212  0.2893 -0.1209 -0.2421
11442TIP3    H155741   4.392   1.064  11.153  1.1615  0.5326  0.6467
11442TIP3    H255742   4.354   1.136  11.281 -0.2533 -2.1060  1.7863
11443TIP3   OH255743   1.129   4.922  12.235 -0.2810 -0.4001  0.4538
11443TIP3    H155744   1.088   4.932  12.321 -2.1293 -0.6390 -0.3546
11443TIP3    H255745   1.104   5.001  12.187  0.6022 -0.3431  0.0746
11444TIP3   OH255746   4.914   6.285   0.943 -0.2438  0.2357 -0.3074
11444TIP3    H155747   4.965   6.232   0.882  1.1759 -1.3410  2.1429
11444TIP3    H255748   4.953   6.372   0.937  0.6318 -0.1740 -0.7948
11445TIP3   OH255749   5.367   0.842  10.617 -0.2486  0.0033  0.4030
11445TIP3    H155750   5.313   0.916  10.587 -0.4568 -0.2028  0.2639
11445TIP3    H255751   5.414   0.813  10.539 -0.8762 -0.6054  0.2357
11446TIP3   OH255752   2.885   5.006  14.011 -0.3309 -0.1202 -0.1413
11446TIP3    H155753   2.808   4.991  13.956 -1.8583  0.2141  1.7919
11446TIP3    H255754   2.929   4.921  14.014 -2.5045 -1.2786  1.3746
11447TIP3   OH255755   0.634   6.100   1.822  0.1316  0.4351 -0.2109
11447TIP3    H155756   0.633   6.012   1.860  2.0330 -0.4644 -2.0011
11447TIP3    H255757   0.681   6.153   1.886 -1.5698  0.3687  1.1738
11448TIP3   OH255758   0.817   0.347   4.707  0.5243 -0.3336 -0.5097
11448TIP3    H155759   0.842   0.435   4.678 -1.4555  0.5373  0.2717
11448TIP3    H255760   0.865   0.334   4.789  0.1970  0.3727 -0.1996
11449TIP3   OH255761   1.358   1.548   2.342 -0.1961  0.1320  0.0646
11449TIP3    H155762   1.387   1.599   2.417 -1.0701 -0.1617  0.6127
11449TIP3    H255763   1.263   1.560   2.339 -0.5585 -2.1177  0.7362
11450TIP3   OH255764   3.245   6.466   5.502  0.2667  0.0816 -0.1500
11450TIP3    H155765   3.322   6.483   5.448  0.1557  0.6387 -0.1298
11450TIP3    H255766   3.245   6.371   5.514  0.3032 -0.0490 -1.1094
11451TIP3   OH255767   1.277   5.914   4.543 -0.1545  0.7556  0.2060
11451TIP3    H155768   1.240   5.873   4.465 -1.9746 -1.5407  2.1079
11451TIP3    H255769   1.362   5.871   4.554  0.3465  1.4719 -0.7557
11452TIP3   OH255770   5.028   6.015  13.611 -0.1805 -0.6706 -0.3434
11452TIP3    H155771   5.074   6.005  13.694  0.8236 -0.3258 -0.8438
11452TIP3    H255772   4.948   6.063  13.633  0.0392 -0.6605  0.4347
11453TIP3   OH255773   0.175   3.664   4.965 -0.0484  0.0841 -0.7341
11453TIP3    H155774   0.217   3.605   5.027 -0.2707 -0.6313 -1.2562
11453TIP3    H255775   0.132   3.607   4.902 -3.1856  0.7364  0.6193
11454TIP3   OH255776   0.941   1.580   4.431 -0.3041 -0.0804 -1.0597
11454TIP3    H155777   0.975   1.665   4.402  1.1485 -0.3267 -0.1704
11454TIP3    H255778   0.968   1.519   4.362  0.1245 -0.0940 -0.8828
11455TIP3   OH255779   2.046   4.089  13.650 -0.2501  0.3533  0.2023
11455TIP3    H155780   2.115   4.128  13.704  0.3619 -1.3192  0.6869
11455TIP3    H255781   1.965   4.124  13.685  0.1671 -0.2652  1.8608
11456TIP3   OH255782   1.525   2.354   1.882 -0.3801 -0.6305 -0.2562
11456TIP3    H155783   1.481   2.397   1.808 -0.0845  0.6411  0.2780
11456TIP3    H255784   1.478   2.385   1.959  1.8358  1.3530  0.3947
11457TIP3   OH255785   0.401   3.379   3.270  0.4782  0.6748 -0.4981
11457TIP3    H155786   0.346   3.454   3.249 -1.5945 -0.9281 -1.0777
11457TIP3    H255787   0.411   3.381   3.365  0.6001  1.7517 -0.5248
11458TIP3   OH255788   0.066   5.806  14.474  0.1765  0.2765 -0.5747
11458TIP3    H155789  -0.005   5.868  14.489 -2.3129 -2.0869 -1.5626
11458TIP3    H255790   0.118   5.809  14.554 -0.3699  2.8607 -0.2249
11459TIP3   OH255791   4.422   1.351   4.853  0.3201  0.2346 -0.0950
11459TIP3    H155792   4.516   1.363   4.864 -0.0098  2.5111  0.8472
11459TIP3    H255793   4.414   1.280   4.789  2.6660  0.1119 -0.3389
11460TIP3   OH255794   5.554   0.566   1.284  0.2082  0.3848 -0.1115
11460TIP3    H155795   5.566   0.478   1.321  1.6148  0.4487 -0.3508
11460TIP3    H255796   5.459   0.579   1.282  0.0395 -0.2578  1.9581
11461TIP3   OH255797   0.133   4.970   3.616  0.6982  0.0258  0.3953
11461TIP3    H155798   0.114   5.063   3.606 -0.6270 -0.3325 -0.8088
11461TIP3    H255799   0.087   4.944   3.696 -1.1708 -0.1015 -0.6625
11462TIP3   OH255800   0.792   3.482  14.630  0.5646 -0.5765  0.0208
11462TIP3    H155801   0.697   3.470  14.637  0.4411  1.0546  1.7349
11462TIP3    H255802   0.804   3.528  14.547 -0.2122 -0.2237  0.0940
11463TIP3   OH255803   6.367   4.716   0.532 -0.2195  0.2498 -0.1322
11463TIP3    H155804   6.444   4.767   0.506 -0.7197  1.8688  1.3709
11463TIP3    H255805   6.381   4.698   0.625 -1.5861  0.4442  0.1323
11464TIP3   OH255806   0.828   3.085   4.277  0.3068  0.7063  0.1022
11464TIP3    H155807   0.765   3.126   4.218  1.0215 -0.0426 -1.2271
11464TIP3    H255808   0.910   3.133   4.263  0.6542  0.0930 -0.0429
11465TIP3   OH255809   2.966   1.364  10.897 -0.2686  0.1418  0.3116
11465TIP3    H155810   3.026   1.347  10.824 -0.7939 -1.3730  0.1921
11465TIP3    H255811   2.922   1.445  10.874  1.2322  0.9329  0.0806
11466TIP3   OH255812   4.583   1.568   1.820 -0.3752 -0.2811 -0.1145
11466TIP3    H155813   4.603   1.578   1.913 -0.2279 -1.2793 -0.0233
11466TIP3    H255814   4.524   1.492   1.816  0.3322 -0.8130 -0.9108
11467TIP3   OH255815   2.644   6.690  13.935  0.2451  0.6113 -0.1043
11467TIP3    H155816   2.614   6.650  13.853 -2.6554  0.3505  0.9663
11467TIP3    H255817   2.592   6.648  14.003  2.2625  1.1331  1.8692
11468TIP3   OH255818   1.420   5.967  12.843 -0.3155 -0.6335 -0.4346
11468TIP3    H155819   1.409   5.948  12.750  1.7966 -0.5771 -0.7337
11468TIP3    H255820   1.513   5.951  12.860 -0.4813  0.2203  1.4620
11469TIP3   OH255821   3.021   1.086   1.418  0.1329 -0.3986 -0.1842
11469TIP3    H155822   2.988   1.079   1.328  0.8001 -1.0535 -0.3820
11469TIP3    H255823   2.998   1.003   1.459  3.7557 -2.0641 -1.1053
11470TIP3   OH255824   1.312   6.173  13.904 -0.0102  0.1044 -0.3034
11470TIP3    H155825   1.403   6.176  13.935 -0.0756  0.8882 -0.1808
11470TIP3    H255826   1.269   6.112  13.964  0.4973 -0.5199 -0.5517
11471TIP3   OH255827   6.216   0.678   2.621 -0.1835  0.6748 -0.1413
11471TIP3    H155828   6.162   0.728   2.560 -0.1314  0.8908 -0.0131
11471TIP3    H255829   6.299   0.726   2.625 -1.2049  2.4319  2.3980
11472TIP3   OH255830   5.895   4.441  12.277 -0.0251  0.1552 -0.1483
11472TIP3    H155831   5.926   4.357  12.244  0.5476 -0.4009  1.7005
11472TIP3    H255832   5.968   4.501  12.263 -1.2397  1.0869 -3.7153
11473TIP3   OH255833   2.246   6.505   3.234  0.1535  0.3948  0.7206
11473TIP3    H155834   2.303   6.507   3.311  1.1897 -2.3818  0.1452
11473TIP3    H255835   2.306   6.487   3.161 -1.2028 -0.5051 -0.2205
11474TIP3   OH255836   1.619   2.729  16.462  0.9787 -0.4935  0.2491
11474TIP3    H155837   1.662   2.790  16.521  0.5930 -0.6936  0.7434
11474TIP3    H255838   1.545   2.777  16.426 -0.0063 -1.0102  1.5155
11475TIP3   OH255839   6.676   6.651  14.044  0.0171 -0.0221  0.1767
11475TIP3    H155840   6.647   6.561  14.058 -0.1994 -0.0948 -0.6885
11475TIP3    H255841   6.754   6.660  14.098  0.1738 -0.8000  0.0891
11476TIP3   OH255842   1.298   5.867   1.744  0.1580 -0.4453 -0.1419
11476TIP3    H155843   1.383   5.906   1.764 -0.3097  0.6470 -0.2565
11476TIP3    H255844   1.320   5.781   1.707  1.2783  0.4324 -1.6293
11477TIP3   OH255845   2.835   3.093  11.285  0.2282 -0.1984 -0.4859
11477TIP3    H155846   2.896   3.164  11.267 -1.0094  0.3577 -2.9237
11477TIP3    H255847   2.759   3.136  11.324  0.3648 -0.5441  0.1868
11478TIP3   OH255848   4.405   3.501   0.141 -0.0178 -0.5964  0.0770
11478TIP3    H155849   4.347   3.427   0.160 -0.0086 -0.3073  1.3770
11478TIP3    H255850   4.347   3.573   0.118 -0.3046 -0.0746  2.1671
11479TIP3   OH255851   6.140   3.034  17.219 -0.1089  0.1095 -0.8587
11479TIP3    H155852   6.195   2.995  17.150  0.0722 -0.3235 -0.4740
11479TIP3    H255853   6.185   3.115  17.243  0.6273 -0.4722 -0.2187
11480TIP3   OH255854   3.362   6.758  14.050  0.3768  0.4571 -0.2821
11480TIP3    H155855   3.318   6.836  14.018  0.1390  1.2480  1.7763
11480TIP3    H255856   3.429   6.792  14.110  0.8643 -0.8784 -0.0401
11481TIP3   OH255857   4.429   1.294   4.103  0.0146 -0.5186  0.2849
11481TIP3    H155858   4.338   1.313   4.127 -0.8005  1.1945 -3.4243
11481TIP3    H255859   4.478   1.372   4.129  0.7128 -1.7228  2.9355
11482TIP3   OH255860   2.526   0.223  14.241  0.2087 -0.0398  0.1785
11482TIP3    H155861   2.542   0.130  14.255 -0.0257 -0.1693 -0.4047
11482TIP3    H255862   2.611   0.264  14.257  1.0607 -0.6658 -2.3617
11483TIP3   OH255863   0.844   6.054   2.188 -0.9908 -0.2266  0.6640
11483TIP3    H155864   0.791   5.974   2.194 -0.5803 -0.4550  1.4454
11483TIP3    H255865   0.885   6.062   2.275 -1.5484  1.2016  0.8142
11484TIP3   OH255866   2.602   1.936   1.391 -0.4179  0.4218  0.1451
11484TIP3    H155867   2.519   1.887   1.392 -0.4655  0.4988  0.0014
11484TIP3    H255868   2.581   2.020   1.431  0.4331 -0.8848  3.6374
11485TIP3   OH255869   2.728   3.593  12.142  0.0042  0.1449 -0.3678
11485TIP3    H155870   2.698   3.681  12.119 -0.6345 -0.4110 -1.7960
11485TIP3    H255871   2.823   3.601  12.148  0.1032  0.6242 -2.0667
11486TIP3   OH255872   3.863   0.974   3.810 -0.5829 -0.1916  0.6388
11486TIP3    H155873   3.837   1.001   3.899 -2.4819  1.4977 -0.3311
11486TIP3    H255874   3.789   1.000   3.755 -1.1733 -4.5256 -1.0095
11487TIP3   OH255875   0.555   3.446   2.415 -0.2420 -0.3650 -0.3152
11487TIP3    H155876   0.490   3.487   2.472 -0.8306 -1.3330 -0.2662
11487TIP3    H255877   0.510   3.434   2.331  0.3304  0.2243 -0.7228
11488TIP3   OH255878   6.616   3.099   4.622  0.0082 -0.0207 -0.2716
11488TIP3    H155879   6.566   3.030   4.579  1.3560 -1.4284  0.3000
11488TIP3    H255880   6.623   3.069   4.713  0.8534  0.7223 -0.0821
11489TIP3   OH255881   2.576   3.557   5.577  0.6103  0.1423  0.3080
11489TIP3    H155882   2.612   3.634   5.534  0.9890 -0.2943 -0.1777
11489TIP3    H255883   2.514   3.521   5.513  0.3876  0.0756  0.5565
11490TIP3   OH255884   3.407   5.440   2.364  0.1733 -0.0273  0.1901
11490TIP3    H155885   3.344   5.507   2.389 -0.1399 -0.8811  1.8455
11490TIP3    H255886   3.470   5.486   2.308 -0.7340  1.3231  0.2211
11491TIP3   OH255887   4.462   3.219  11.385  0.2321 -0.2154 -0.6654
11491TIP3    H155888   4.417   3.250  11.306  1.2070  3.2057 -0.0505
11491TIP3    H255889   4.432   3.278  11.454  1.2225 -1.6106  1.0334
11492TIP3   OH255890   2.050   4.477  11.031 -0.2524 -0.0200 -0.1407
11492TIP3    H155891   2.126   4.432  11.069 -0.0994  0.5186  0.2091
11492TIP3    H255892   2.081   4.566  11.016 -0.7468  0.1373 -0.2212
11493TIP3   OH255893   2.456   2.491   5.039  0.0780 -0.1283 -0.6490
11493TIP3    H155894   2.427   2.557   4.977 -3.2805 -0.8973 -0.1043
11493TIP3    H255895   2.512   2.433   4.988  2.3808  2.5384 -1.3387
11494TIP3   OH255896   0.277   4.658  12.687  0.5110  0.4607  0.2910
11494TIP3    H155897   0.193   4.613  12.688  0.4974  0.4544 -0.3347
11494TIP3    H255898   0.314   4.644  12.774  0.7727 -1.2492 -0.0730
11495TIP3   OH255899   6.595   2.041   5.371 -0.3709  0.0622 -0.2820
11495TIP3    H155900   6.664   2.102   5.399 -0.7258  0.2310  0.2496
11495TIP3    H255901   6.629   1.954   5.391 -0.8992  0.2091  1.3579
11496TIP3   OH255902   1.412   5.799  13.246 -0.0859 -0.3863 -0.0438
11496TIP3    H155903   1.441   5.873  13.193  1.9431  0.2468  1.8183
11496TIP3    H255904   1.366   5.742  13.185  1.3098  0.7444 -2.2577
11497TIP3   OH255905   6.661   4.383   4.752 -0.0464 -0.2909 -0.2480
11497TIP3    H155906   6.706   4.359   4.670  0.1244 -1.4490  0.1589
11497TIP3    H255907   6.568   4.383   4.728  0.0045 -0.5668 -0.4610
11498TIP3   OH255908   1.189   1.241  13.061 -0.4827 -0.4280 -0.4794
11498TIP3    H155909   1.208   1.253  12.968  1.3400 -0.9332 -0.2036
11498TIP3    H255910   1.218   1.152  13.080  1.9604  0.6232  1.1897
11499TIP3   OH255911   5.228   6.097   0.981  0.6949  0.5047 -0.2435
11499TIP3    H155912   5.319   6.122   0.996 -0.1314  2.5119  1.9551
11499TIP3    H255913   5.212   6.024   1.040 -0.0603  2.5730  2.2669
11500TIP3   OH255914   6.687   6.160  11.545  0.6514  0.1625 -0.7161
11500TIP3    H155915   6.681   6.223  11.473 -1.8480  0.0959 -0.6554
11500TIP3    H255916   6.620   6.094  11.526  1.0637 -0.7654  0.8162
11501TIP3   OH255917   5.907   4.497  12.797 -0.2348  0.4114 -0.3824
11501TIP3    H155918   5.819   4.462  12.809 -0.6738  1.4584 -0.5020
11501TIP3    H255919   5.913   4.570  12.859  0.2428  0.8831 -0.9740
11502TIP3   OH255920   3.430   5.271  15.818  0.1902 -0.0606 -0.3250
11502TIP3    H155921   3.344   5.234  15.799  1.2278 -1.6689 -2.1938
11502TIP3    H255922   3.428   5.358  15.779  0.5182 -1.4114 -3.7001
11503TIP3   OH255923   4.222   1.378  10.695  0.4919 -0.1062 -0.1664
11503TIP3    H155924   4.224   1.327  10.776 -1.3994  0.0398  0.0230
11503TIP3    H255925   4.190   1.464  10.722 -2.3336 -0.6892 -1.2855
11504TIP3   OH255926   4.544   5.318  17.110  0.1339 -0.1236  0.0452
11504TIP3    H155927   4.516   5.368  17.033  1.7357  0.0269 -0.4789
11504TIP3    H255928   4.463   5.282  17.146 -0.7162  0.2711 -1.3839
11505TIP3   OH255929   4.264   6.378   3.901 -0.4587 -0.3277  0.3121
11505TIP3    H155930   4.215   6.334   3.970 -0.1982 -1.5203 -0.2321
11505TIP3    H255931   4.273   6.312   3.832  0.0061  0.5675 -0.5135
11506TIP3   OH255932   4.758   3.930   6.423  0.3279 -0.3087 -0.1268
11506TIP3    H155933   4.691   3.875   6.463 -0.2488 -0.1243 -0.8220
11506TIP3    H255934   4.837   3.914   6.475 -0.0699 -1.0806  0.2491
11507TIP3   OH255935   1.978   3.797  13.636 -0.2688  0.5307  0.3142
11507TIP3    H155936   2.032   3.866  13.673 -0.5338  1.3995 -0.8658
11507TIP3    H255937   2.027   3.765  13.560  0.1422 -1.0331  1.1956
11508TIP3   OH255938   3.205   4.974   5.040 -0.2808 -0.9416  0.0005
11508TIP3    H155939   3.154   4.919   4.981 -0.4415 -1.1865  0.3647
11508TIP3    H255940   3.161   4.966   5.125 -1.0877  0.7673 -0.2123
11509TIP3   OH255941   2.644   6.074   1.120  0.5479 -0.5953 -0.3226
11509TIP3    H155942   2.696   6.153   1.136  0.8068 -0.8046 -0.1077
11509TIP3    H255943   2.559   6.106   1.091  1.1027 -0.2563 -1.6280
11510TIP3   OH255944   1.922   2.948   1.459 -0.4230  0.2526 -0.0231
11510TIP3    H155945   1.837   2.905   1.453 -0.5626  0.2032  1.6967
11510TIP3    H255946   1.984   2.885   1.424 -0.8274 -0.6707  0.8888
11511TIP3   OH255947   3.783   2.027  15.163  0.0692  0.2453  0.5106
11511TIP3    H155948   3.849   2.066  15.220 -0.1016 -3.2681  3.5490
11511TIP3    H255949   3.783   1.934  15.187 -3.5905 -0.5822 -1.8085
11512TIP3   OH255950   1.828   4.347  15.518 -0.2128 -0.5989 -0.4119
11512TIP3    H155951   1.912   4.347  15.471  0.1388 -0.5991  0.2159
11512TIP3    H255952   1.763   4.330  15.450  0.2996 -0.6447 -0.8967
11513TIP3   OH255953   4.633   2.126  15.084  0.5766  0.0019 -0.6522
11513TIP3    H155954   4.563   2.130  15.018  0.7536  1.9735 -0.7784
11513TIP3    H255955   4.601   2.178  15.157  0.4198 -2.1019  0.8659
11514TIP3   OH255956   4.038   0.334  12.715  0.4073  0.1042 -0.1036
11514TIP3    H155957   3.986   0.381  12.780  0.4195  0.0984 -0.0898
11514TIP3    H255958   3.985   0.337  12.635  0.6119  0.5456 -0.2320
11515TIP3   OH255959   4.599   3.112   0.867 -0.0965 -0.7092 -0.0203
11515TIP3    H155960   4.595   3.142   0.776 -2.3704 -0.6219  0.0556
11515TIP3    H255961   4.652   3.032   0.864  1.8483  0.5438 -1.0083
11516TIP3   OH255962   5.936   4.801   2.262  0.3517 -0.1900 -0.0114
11516TIP3    H155963   5.938   4.886   2.217 -0.8725 -0.1426 -0.0068
11516TIP3    H255964   5.883   4.816   2.339 -0.8202 -1.2232 -0.5847
11517TIP3   OH255965   6.489   2.323  11.118  0.4579 -0.4586  0.3527
11517TIP3    H155966   6.544   2.401  11.126  0.9202 -0.8949  1.7483
11517TIP3    H255967   6.507   2.291  11.029  1.8191 -0.1115  0.4662
11518TIP3   OH255968   2.423   1.756   0.478 -0.4209  0.2759  0.0134
11518TIP3    H155969   2.461   1.670   0.497 -1.6871  0.0218  1.6226
11518TIP3    H255970   2.394   1.788   0.563 -2.1281  1.2416 -0.8897
11519TIP3   OH255971   2.328   1.208  16.866  0.2144  0.3136 -0.5753
11519TIP3    H155972   2.420   1.192  16.884  0.0690  0.4378  0.2891
11519TIP3    H255973   2.317   1.302  16.877 -0.2261  0.1652  0.3068
11520TIP3   OH255974   4.392   5.268   1.778  0.1531 -0.0589 -0.0659
11520TIP3    H155975   4.297   5.252   1.778  0.0294  0.3605 -2.5272
11520TIP3    H255976   4.400   5.362   1.798  0.2990 -0.6290  3.1370
11521TIP3   OH255977   3.629   6.434  13.782 -0.2981 -0.2528  0.8616
11521TIP3    H155978   3.648   6.450  13.689 -0.9319 -0.8506  0.6139
11521TIP3    H255979   3.605   6.520  13.816  1.7243  0.3271  0.9404
11522TIP3   OH255980   4.729   3.379  11.328 -0.8002 -0.0379  0.0773
11522TIP3    H155981   4.815   3.409  11.355 -0.7903 -1.1553  1.4428
11522TIP3    H255982   4.740   3.285  11.313 -1.4847  0.0451 -1.0546
11523TIP3   OH255983   0.898   6.335  11.808  0.1469  0.0135  0.2940
11523TIP3    H155984   0.854   6.335  11.893 -0.4725  2.0889  0.0165
11523TIP3    H255985   0.828   6.342  11.744  0.7085  0.7096 -0.2686
11524TIP3   OH255986   6.654   2.844  11.226 -0.2963  0.1753 -0.3260
11524TIP3    H155987   6.650   2.759  11.270  0.1142 -0.3210 -1.2182
11524TIP3    H255988   6.603   2.902  11.282 -1.6699 -0.9417 -0.3503
11525TIP3   OH255989   0.925   2.238  14.360  0.5568  0.2253  0.3041
11525TIP3    H155990   0.850   2.201  14.313  1.1890 -1.7402  0.7196
11525TIP3    H255991   0.984   2.268  14.291  0.2963 -0.1294 -0.0798
11526TIP3   OH255992   1.383   6.713  16.866 -0.1305 -0.1811 -0.0497
11526TIP3    H155993   1.382   6.717  16.771  0.9618  0.2106 -0.0520
11526TIP3    H255994   1.433   6.790  16.893 -0.8223 -0.0315  0.8592
11527TIP3   OH255995   1.693   1.358   5.454 -0.1056  0.3155 -0.9417
11527TIP3    H155996   1.650   1.312   5.526  1.7213 -1.2079 -0.7812
11527TIP3    H255997   1.730   1.436   5.495  0.6357 -0.3689 -0.2870
11528TIP3   OH255998   2.726   4.318  14.535  0.4105  0.3011 -0.3545
11528TIP3    H155999   2.648   4.370  14.555  0.9961  1.2783 -0.5658
11528TIP3    H256000   2.756   4.287  14.621  0.2821  0.6398 -0.1825
11529TIP3   OH256001   5.579   5.945   2.950 -0.2185 -0.1375 -0.3547
11529TIP3    H156002   5.571   5.965   2.857  2.8409  1.0267 -0.4942
11529TIP3    H256003   5.580   5.849   2.954  1.7560 -0.2483 -1.8650
11530TIP3   OH256004   4.134   5.623   5.306 -0.1600  0.0186  0.0251
11530TIP3    H156005   4.134   5.603   5.213 -0.9537  0.0690  0.0036
11530TIP3    H256006   4.116   5.540   5.349 -1.4465  0.2748  0.0356
11531TIP3   OH256007   3.541   1.722  12.822 -0.1608  0.1504 -0.3486
11531TIP3    H156008   3.552   1.808  12.781 -0.6632 -0.6284 -2.2411
11531TIP3    H256009   3.617   1.671  12.793 -0.0655 -0.1535  0.4315
11532TIP3   OH256010   5.634   5.452   1.142  0.8887  0.2838 -0.1916
11532TIP3    H156011   5.607   5.543   1.130  0.0798  0.0485 -0.2125
11532TIP3    H256012   5.580   5.403   1.080  1.0245 -0.2589  0.1170
11533TIP3   OH256013   2.036   6.110  12.391 -0.4504 -0.0788  0.0286
11533TIP3    H156014   2.107   6.060  12.350 -0.4032 -0.2619  0.3299
11533TIP3    H256015   2.025   6.186  12.334 -1.7899 -1.3203 -1.4890
11534TIP3   OH256016   2.643   2.164   1.203 -0.3798  0.5759  0.1446
11534TIP3    H156017   2.707   2.103   1.239  0.4609  0.0299 -2.0971
11534TIP3    H256018   2.595   2.197   1.279 -1.3948 -3.4083  1.4717
11535TIP3   OH256019   5.715   0.114  15.369  0.0664  0.3153 -0.0514
11535TIP3    H156020   5.795   0.066  15.392 -0.8581 -0.7261  1.1513
11535TIP3    H256021   5.736   0.205  15.388  0.0641 -0.2411  3.2182
11536TIP3   OH256022   5.276   6.497   5.618 -0.0985 -0.7742 -0.0506
11536TIP3    H156023   5.335   6.422   5.624 -1.6644 -2.1485 -0.8390
11536TIP3    H256024   5.244   6.509   5.708  1.9845  0.5869  0.5834
11537TIP3   OH256025   3.847   0.001   4.532  0.0732 -0.0218  0.9190
11537TIP3    H156026   3.942  -0.010   4.543  0.2828 -0.0483 -0.6963
11537TIP3    H256027   3.809  -0.069   4.584  0.9642 -0.4396  1.0364
11538TIP3   OH256028   2.219   5.192  14.725 -0.1118 -0.4071  0.2011
11538TIP3    H156029   2.186   5.152  14.645 -0.9664  1.1886 -0.2965
11538TIP3    H256030   2.304   5.229  14.700  0.5262 -1.5809  0.5736
11539TIP3   OH256031   6.095   0.295   4.168 -0.1048  0.6308 -0.3443
11539TIP3    H156032   6.149   0.318   4.093 -0.8125  1.4127 -0.6302
11539TIP3    H256033   6.005   0.303   4.137 -0.4269  1.4525  0.7171
11540TIP3   OH256034   1.490   4.538  12.622  0.5079  0.5275  0.5487
11540TIP3    H156035   1.424   4.534  12.553  0.2850 -0.4080  0.7981
11540TIP3    H256036   1.519   4.448  12.633  1.3935  0.8386  0.8666
11541TIP3   OH256037   5.811   6.314  12.714  0.0934 -0.5485 -0.1574
11541TIP3    H156038   5.737   6.292  12.769  0.4863 -1.7199 -0.0615
11541TIP3    H256039   5.808   6.409  12.705 -1.0593 -0.5293  0.3303
11542TIP3   OH256040   1.489   6.324  14.775 -0.2886  0.4297 -0.7537
11542TIP3    H156041   1.510   6.331  14.868  1.6565  0.2435 -1.1407
11542TIP3    H256042   1.549   6.386  14.732 -2.3381  1.8182 -1.7741
11543TIP3   OH256043   0.298   3.740   2.359 -0.5674  0.5163  0.2934
11543TIP3    H156044   0.362   3.808   2.336  1.6572 -1.6403 -0.3409
11543TIP3    H256045   0.272   3.760   2.448  2.5482  0.4794  1.3351
11544TIP3   OH256046   5.931   6.170   0.413 -0.1809  0.0969 -0.1711
11544TIP3    H156047   5.992   6.236   0.446  0.4731 -0.3772 -0.4046
11544TIP3    H256048   5.985   6.113   0.359 -0.4843 -1.3506  1.0073
11545TIP3   OH256049   3.359   4.143   0.604  0.0726  0.0897  0.1333
11545TIP3    H156050   3.344   4.158   0.511  0.7858 -0.6254 -0.1060
11545TIP3    H256051   3.379   4.230   0.639  0.3459  0.2821 -0.4864
11546TIP3   OH256052   2.327   1.240   0.923  0.1393 -0.6879  0.0330
11546TIP3    H156053   2.332   1.242   0.827 -1.0791 -1.1708 -0.0661
11546TIP3    H256054   2.233   1.237   0.941  0.3670 -0.9162  1.2383
11547TIP3   OH256055   1.896   5.356   4.386  0.8026 -0.3485 -0.0387
11547TIP3    H156056   1.857   5.324   4.467  1.1170  1.1625  0.7539
11547TIP3    H256057   1.879   5.450   4.386  0.0444 -0.4196 -2.1739
11548TIP3   OH256058   5.850   0.701  12.913  0.0355 -0.5826  0.2789
11548TIP3    H156059   5.852   0.624  12.857  0.2829 -1.8887  1.9879
11548TIP3    H256060   5.941   0.713  12.941 -0.1571 -0.2658  0.7863
11549TIP3   OH256061   3.320   5.505  12.385 -0.2625 -0.5151 -0.2106
11549TIP3    H156062   3.244   5.536  12.433  0.6627  0.9914  0.3391
11549TIP3    H256063   3.375   5.463  12.451  0.2090  0.0140 -0.2561
11550TIP3   OH256064   1.445   4.672   4.410  0.3239 -0.3455 -0.4271
11550TIP3    H156065   1.502   4.739   4.372  2.1990 -2.0746 -0.8213
11550TIP3    H256066   1.407   4.627   4.335  0.7963 -1.1034 -0.2252
11551TIP3   OH256067   5.301   0.379  13.075  0.1814 -0.7530  1.2386
11551TIP3    H156068   5.211   0.387  13.045  0.3737 -0.5556  0.6989
11551TIP3    H256069   5.308   0.443  13.146 -0.0502 -0.6290  1.1523
11552TIP3   OH256070   5.109   1.459   3.189 -0.4410  0.1617  0.2318
11552TIP3    H156071   5.182   1.403   3.163 -0.0727  0.9105 -0.3841
11552TIP3    H256072   5.031   1.410   3.164 -0.1512 -0.4981  0.5902
11553TIP3   OH256073   0.918   1.631  15.659 -0.1066  0.5234 -0.1572
11553TIP3    H156074   0.902   1.721  15.686 -1.3801  0.1667  0.4029
11553TIP3    H256075   0.879   1.624  15.572  3.3701  1.4798 -1.9712
11554TIP3   OH256076   5.912   2.217   2.058 -0.2631  0.5852  0.0770
11554TIP3    H156077   5.858   2.295   2.056 -0.4270  0.4734 -1.7339
11554TIP3    H256078   5.849   2.144   2.059 -0.1155  0.4619  1.0079
11555TIP3   OH256079   5.860   2.252   5.727  0.1830  0.3043  0.5127
11555TIP3    H156080   5.877   2.345   5.710 -0.5669  0.3213 -0.1918
11555TIP3    H256081   5.769   2.248   5.754 -0.8462 -0.5569 -2.6849
11556TIP3   OH256082   3.730   5.580  13.233  0.1400 -0.3749  0.2554
11556TIP3    H156083   3.724   5.645  13.163 -0.3470 -1.4965 -0.7777
11556TIP3    H256084   3.822   5.579  13.257  0.1266  0.7923  0.3768
11557TIP3   OH256085   5.391   6.300   3.683  0.1712  0.2180  0.7911
11557TIP3    H156086   5.341   6.229   3.723 -0.4925 -0.3126 -0.8921
11557TIP3    H256087   5.474   6.301   3.731  0.6107 -2.3797  0.2644
11558TIP3   OH256088   3.081   6.491   0.580 -0.5057 -0.0196  1.3998
11558TIP3    H156089   3.087   6.396   0.569 -1.2643 -0.0084  0.8185
11558TIP3    H256090   3.166   6.516   0.616  1.1044 -0.4772 -1.6938
11559TIP3   OH256091   4.666   4.454  15.794  0.2331 -0.0867  0.6188
11559TIP3    H156092   4.660   4.463  15.889 -0.3380 -1.0759  0.6913
11559TIP3    H256093   4.724   4.379  15.781 -0.1008 -0.2720  0.1965
11560TIP3   OH256094   5.702   3.431  12.920  0.3796  0.3739  0.6634
11560TIP3    H156095   5.632   3.496  12.929  1.7746  2.2231 -0.8864
11560TIP3    H256096   5.774   3.480  12.881  1.6691 -2.0403 -0.1500
11561TIP3   OH256097   0.501   5.326  10.802  0.1289  0.2259  0.2455
11561TIP3    H156098   0.420   5.364  10.837 -0.6897 -2.2006  1.1930
11561TIP3    H256099   0.560   5.401  10.793 -1.6805  1.8472  1.0568
11562TIP3   OH256100   3.498   5.459   0.766  0.6040 -0.0914  0.1740
11562TIP3    H156101   3.472   5.458   0.858 -0.7216 -0.0128 -0.1819
11562TIP3    H256102   3.527   5.369   0.748 -0.6259 -0.5298  0.2785
11563TIP3   OH256103   3.507   1.283   5.811  0.2855 -0.3010  0.1261
11563TIP3    H156104   3.487   1.367   5.853 -0.5166  0.3813 -1.5064
11563TIP3    H256105   3.600   1.268   5.829  0.1673  0.3459  1.4018
11564TIP3   OH256106   2.563   3.953  11.022  0.3170  0.5581  0.0350
11564TIP3    H156107   2.592   3.895  10.951  0.0627 -0.9321  1.0893
11564TIP3    H256108   2.642   3.999  11.049  0.3520  1.4367 -1.4215
11565TIP3   OH256109   4.743   5.102  17.122  0.4947  0.8773 -0.2684
11565TIP3    H156110   4.672   5.166  17.125 -0.9077 -0.5722 -0.9797
11565TIP3    H256111   4.758   5.088  17.028 -0.7494 -1.3979 -0.1880
11566TIP3   OH256112   3.534   4.065   5.853 -0.3372 -0.1310  0.1257
11566TIP3    H156113   3.522   3.970   5.850 -1.2478 -0.0126 -0.6405
11566TIP3    H256114   3.628   4.078   5.858 -0.1102 -1.0698 -1.1990
11567TIP3   OH256115   1.202   4.915  11.621  0.6817 -0.2196  0.7287
11567TIP3    H156116   1.260   4.929  11.696 -0.3093  0.0322  1.4715
11567TIP3    H256117   1.150   4.838  11.645  0.0193  0.1597  0.5210
11568TIP3   OH256118   4.374   5.931   1.523 -0.2107  0.1478 -0.3529
11568TIP3    H156119   4.467   5.954   1.517 -0.5971  2.4972  1.4829
11568TIP3    H256120   4.330   6.012   1.547 -2.7997 -0.8903 -1.2131
11569TIP3   OH256121   2.310   1.370  14.268 -0.5729  0.2298  0.1042
11569TIP3    H156122   2.332   1.285  14.306 -0.2104  0.2786  0.0060
11569TIP3    H256123   2.215   1.376  14.278 -0.5442  0.0195  0.5372
11570TIP3   OH256124   0.146   5.253   4.862 -0.5155 -0.3751 -0.1156
11570TIP3    H156125   0.203   5.255   4.785  1.9938 -0.2008  1.6236
11570TIP3    H256126   0.062   5.223   4.829  0.4431 -0.2437 -2.9168
11571TIP3   OH256127   0.397   3.657   0.158  0.1764 -0.4031 -0.6506
11571TIP3    H156128   0.371   3.735   0.207  0.5946 -0.0439 -0.9930
11571TIP3    H256129   0.443   3.691   0.081  1.9499 -1.0220  0.0913
11572TIP3   OH256130   1.502   4.105  15.169 -0.2048 -0.0208 -0.6041
11572TIP3    H156131   1.422   4.060  15.194 -1.5909  3.5493  2.3565
11572TIP3    H256132   1.478   4.157  15.093 -0.8294  1.1084  0.3297
11573TIP3   OH256133   2.079   6.712  16.136 -0.2050  0.1781 -0.2758
11573TIP3    H156134   2.121   6.789  16.097  0.7012  1.4451  2.8494
11573TIP3    H256135   1.992   6.743  16.162 -0.8531 -0.6787 -1.3400
11574TIP3   OH256136   6.727   6.748  13.362  0.1003 -0.5813 -0.1895
11574TIP3    H156137   6.641   6.766  13.399 -1.1082 -1.4913 -2.3749
11574TIP3    H256138   6.727   6.654  13.344  0.1431 -0.0489 -3.4189
11575TIP3   OH256139   2.322   5.120   0.404 -0.0125 -0.8106 -0.3847
11575TIP3    H156140   2.313   5.197   0.461  2.1217 -1.1171  0.4745
11575TIP3    H256141   2.409   5.086   0.424 -0.2067 -2.4321 -2.0433
11576TIP3   OH256142   4.294   4.129  13.551  0.1334 -0.1472 -0.0263
11576TIP3    H156143   4.337   4.172  13.624 -1.4956 -0.6779  1.3039
11576TIP3    H256144   4.214   4.179  13.537  0.9928  0.7031 -2.3108
11577TIP3   OH256145   0.565   5.310  14.069  0.0825 -0.3130  0.0779
11577TIP3    H156146   0.602   5.316  14.157  0.3142  1.3359 -0.1068
11577TIP3    H256147   0.473   5.332  14.080  0.4717  1.6360 -0.3072
11578TIP3   OH256148   2.464   1.227  14.639 -0.3174  0.1696 -0.1460
11578TIP3    H156149   2.534   1.164  14.656  0.8012  1.4391  0.1386
11578TIP3    H256150   2.402   1.215  14.711  0.0417 -0.3667  0.0781
11579TIP3   OH256151   2.131   4.486   0.822 -0.1747  0.2115  0.2625
11579TIP3    H156152   2.159   4.576   0.837 -1.3800  0.5511  0.6162
11579TIP3    H256153   2.038   4.493   0.799 -0.0493 -0.8646 -0.7032
11580TIP3   OH256154   2.649   1.450   0.970  0.7315  0.3360 -0.5288
11580TIP3    H156155   2.707   1.497   1.030 -1.4312  0.6109  1.4978
11580TIP3    H256156   2.580   1.514   0.949 -2.3121 -1.6900  2.3021
11581TIP3   OH256157   3.491   2.161   4.408  0.3295  0.2595  0.6461
11581TIP3    H156158   3.546   2.090   4.377  0.3478  0.6670 -0.2805
11581TIP3    H256159   3.466   2.209   4.329 -0.5881  0.6312  1.1383
11582TIP3   OH256160   2.525   0.990  10.486  0.0915 -0.8858  0.0338
11582TIP3    H156161   2.583   1.024  10.555  0.4987  1.4840 -1.3385
11582TIP3    H256162   2.585   0.970  10.414 -0.6839  2.1478 -1.6219
11583TIP3   OH256163   3.235   1.859  12.193 -0.2467  0.2488  0.6057
11583TIP3    H156164   3.269   1.769  12.196  0.0362  0.3457  0.2380
11583TIP3    H256165   3.303   1.909  12.148 -2.0062 -0.0745 -2.7192
11584TIP3   OH256166   2.122   4.856  13.585 -0.1701  0.0889  0.0478
11584TIP3    H156167   2.179   4.789  13.624  0.1251  0.4010  0.1663
11584TIP3    H256168   2.046   4.808  13.554  0.2795 -0.3787 -0.3515
11585TIP3   OH256169   0.348   3.516   1.912 -0.2776 -0.5056 -0.3144
11585TIP3    H156170   0.284   3.561   1.856 -0.9503 -1.0914 -0.0300
11585TIP3    H256171   0.401   3.465   1.851  1.9880  2.3364 -0.9274
11586TIP3   OH256172   2.156   4.526  16.333  0.2550 -0.0658  0.9998
11586TIP3    H156173   2.101   4.540  16.410 -0.0031 -0.4981  0.8970
11586TIP3    H256174   2.152   4.432  16.317 -0.5293  0.1416 -0.1590
11587TIP3   OH256175   3.178   3.388   1.667 -0.9910 -0.2255 -0.4240
11587TIP3    H156176   3.212   3.348   1.747 -1.1327  0.6179  0.0795
11587TIP3    H256177   3.238   3.461   1.650 -1.2196 -0.1345 -0.8343
11588TIP3   OH256178   4.138   3.781  16.583  0.2441  0.4297 -0.2827
11588TIP3    H156179   4.223   3.823  16.593  0.8973 -0.7696 -0.5816
11588TIP3    H256180   4.094   3.793  16.667  0.6990  1.0700 -0.1360
11589TIP3   OH256181   4.107   0.868   0.603  0.0077 -0.2694  0.0028
11589TIP3    H156182   4.106   0.953   0.560 -1.8101 -0.4486 -0.3894
11589TIP3    H256183   4.190   0.866   0.651  0.7145  1.1378 -1.0920
11590TIP3   OH256184   5.279   4.991   1.539 -0.0173 -0.2674 -0.1103
11590TIP3    H156185   5.244   4.912   1.581 -1.3941  0.4886  0.2332
11590TIP3    H256186   5.373   4.974   1.529 -0.4328 -2.4036 -1.0535
11591TIP3   OH256187   6.712   0.915   1.943 -0.1103 -0.7647  0.0721
11591TIP3    H156188   6.781   0.858   1.977  1.5679  0.8347 -0.4929
11591TIP3    H256189   6.734   0.926   1.850 -2.3316 -1.8568 -0.6646
11592TIP3   OH256190   0.177   0.776  14.542 -0.3043  0.3666  0.2359
11592TIP3    H156191   0.132   0.758  14.624 -0.3532  0.2244  0.1774
11592TIP3    H256192   0.270   0.775  14.566 -0.3377  0.8927  0.4005
11593TIP3   OH256193   0.230   3.434   0.165 -0.0942  0.3593 -0.3062
11593TIP3    H156194   0.278   3.366   0.212  0.1580  0.5632 -0.2671
11593TIP3    H256195   0.284   3.512   0.174 -1.3126  1.0972  1.3688
11594TIP3   OH256196   3.098   0.374   5.089 -0.4699  0.0060  0.0054
11594TIP3    H156197   3.037   0.318   5.137 -1.2943  1.0286  0.1940
11594TIP3    H256198   3.057   0.461   5.091 -0.1040  0.2668 -1.8047
11595TIP3   OH256199   6.651   4.986   6.606  0.4843 -0.1395  0.2972
11595TIP3    H156200   6.719   5.047   6.578 -0.5919  0.6108 -0.8172
11595TIP3    H256201   6.596   5.036   6.667  0.6293 -0.5733  0.7920
11596TIP3   OH256202   2.222   3.200   5.817  0.2655 -0.7902 -0.4073
11596TIP3    H156203   2.204   3.164   5.904 -1.6245 -0.6121 -0.6899
11596TIP3    H256204   2.312   3.233   5.823 -0.2681  0.4672  1.9151
11597TIP3   OH256205   2.825   4.589   1.614 -0.8728  0.0474 -0.0381
11597TIP3    H156206   2.828   4.629   1.701  1.2313  2.5784 -1.1391
11597TIP3    H256207   2.733   4.566   1.601 -1.2889 -0.1898  2.7166
11598TIP3   OH256208   3.613   2.067  16.288 -0.3858 -0.5699  0.4133
11598TIP3    H156209   3.611   1.983  16.334  1.3733 -1.0864 -0.3562
11598TIP3    H256210   3.545   2.059  16.222  0.2282 -1.7045 -0.1156
11599TIP3   OH256211   2.565   1.951   4.868 -0.1106  0.1305  0.2528
11599TIP3    H156212   2.565   1.855   4.861  0.4250  0.1609 -0.3096
11599TIP3    H256213   2.568   1.981   4.777 -2.7962  0.7271  0.3013
11600TIP3   OH256214   3.537   2.530   1.190 -0.0643 -0.1724  0.4433
11600TIP3    H156215   3.545   2.493   1.278  1.3834 -0.3591  0.2578
11600TIP3    H256216   3.627   2.547   1.163 -0.4458 -0.6456 -1.2214
11601TIP3   OH256217   3.116   6.169  16.603  0.0503  0.2585 -0.0339
11601TIP3    H156218   3.037   6.151  16.654  0.0616 -2.1564 -0.7119
11601TIP3    H256219   3.119   6.264  16.595 -1.6748  0.5187  1.7184
11602TIP3   OH256220   1.636   4.575  16.158  0.1745  0.1405 -0.2285
11602TIP3    H156221   1.588   4.593  16.078 -0.5254 -0.5753  0.0123
11602TIP3    H256222   1.692   4.501  16.137 -0.9473 -0.8905  0.2692
11603TIP3   OH256223   2.579   2.788  15.741 -0.3115  0.2400 -0.4117
11603TIP3    H156224   2.669   2.794  15.773 -0.2063 -1.4619 -0.3111
11603TIP3    H256225   2.542   2.712  15.786 -1.0401 -0.5056 -2.1754
11604TIP3   OH256226   4.727   2.454   1.196 -0.8567 -0.1862  0.7994
11604TIP3    H156227   4.737   2.367   1.235  0.7305  0.1736  1.2373
11604TIP3    H256228   4.660   2.441   1.128  0.8652 -2.2569 -0.6528
11605TIP3   OH256229   4.630   4.661  12.174  0.0307 -0.4539  0.2124
11605TIP3    H156230   4.684   4.660  12.254  1.5466 -0.7106 -0.7812
11605TIP3    H256231   4.687   4.699  12.107 -1.4476  0.3870 -0.6127
11606TIP3   OH256232   3.995   3.045  16.380 -0.4756 -0.3618  0.0848
11606TIP3    H156233   4.070   3.000  16.419  1.5063  2.3370 -0.2872
11606TIP3    H256234   4.033   3.097  16.309 -2.4589  2.0712  0.6445
11607TIP3   OH256235   3.594   5.039   3.884  0.5501  0.2918  0.0110
11607TIP3    H156236   3.622   4.950   3.860  0.3123  0.5140 -1.1479
11607TIP3    H256237   3.670   5.076   3.929  0.5020 -0.6317  0.8889
11608TIP3   OH256238   3.866   2.221  11.337  0.0197  0.0078  0.6734
11608TIP3    H156239   3.790   2.279  11.341 -0.3023 -0.0359 -2.5093
11608TIP3    H256240   3.847   2.152  11.401 -3.1333 -0.5453 -0.6844
11609TIP3   OH256241   3.250   1.846   5.264  0.4615 -0.0460  0.0817
11609TIP3    H156242   3.163   1.884   5.277  1.7799  2.6443  1.8977
11609TIP3    H256243   3.305   1.889   5.329  2.7987 -3.1483  0.3985
11610TIP3   OH256244   2.451   0.381   1.388 -0.0517  0.3722 -0.4732
11610TIP3    H156245   2.456   0.442   1.461 -0.7555 -0.6211  0.4292
11610TIP3    H256246   2.537   0.387   1.345 -0.2106  2.2119 -0.6138
11611TIP3   OH256247   2.992   5.916   6.257 -0.2544  0.0402 -0.7007
11611TIP3    H156248   3.075   5.954   6.287 -1.1659  1.1286  0.5479
11611TIP3    H256249   3.014   5.826   6.234  1.0429 -0.0905  0.8444
11612TIP3   OH256250   3.960   5.104  15.490  0.2658  0.3545  0.7588
11612TIP3    H156251   4.051   5.125  15.511  0.8999  0.5654 -1.8753
11612TIP3    H256252   3.963   5.069  15.401 -1.9750 -1.8039  1.3867
11613TIP3   OH256253   6.037   0.212   4.772  0.4964  0.7356 -0.0875
11613TIP3    H156254   6.022   0.138   4.830  2.6082  0.2572 -0.0617
11613TIP3    H256255   6.008   0.288   4.821  1.4247  0.2437  1.2760
11614TIP3   OH256256   1.141   6.096   1.328  0.3462  0.0869  0.3963
11614TIP3    H156257   1.181   6.182   1.331 -0.3390  0.5598 -1.9221
11614TIP3    H256258   1.144   6.064   1.419  2.4429  1.6624  0.9453
11615TIP3   OH256259   4.129   5.368   1.887  0.3520  0.7396 -0.3454
11615TIP3    H156260   4.136   5.272   1.893  0.1561  0.6990 -0.7374
11615TIP3    H256261   4.125   5.397   1.978  0.4209  0.3755 -0.2226
11616TIP3   OH256262   3.912   5.228  17.093  0.5234 -0.2697  0.0346
11616TIP3    H156263   3.824   5.266  17.092  0.2478 -0.9015 -0.4393
11616TIP3    H256264   3.929   5.205  17.002  1.5073  0.5700 -0.0023
11617TIP3   OH256265   0.447   0.392  15.162 -0.2900  0.3920 -0.0505
11617TIP3    H156266   0.461   0.469  15.107  0.9800 -0.4237 -0.9325
11617TIP3    H256267   0.445   0.319  15.101 -1.5617 -0.2903  0.7659
11618TIP3   OH256268   1.444   3.633   0.743 -0.2198  0.7557 -0.5163
11618TIP3    H156269   1.375   3.580   0.701 -0.4338 -0.1760  0.9191
11618TIP3    H256270   1.485   3.680   0.671 -1.1001 -0.1441 -1.6590
11619TIP3   OH256271   5.947   5.154  14.584  0.4724 -0.5646  0.1577
11619TIP3    H156272   5.871   5.126  14.532  0.8441 -3.0337  0.7968
11619TIP3    H256273   5.989   5.072  14.610  2.0041  0.6809  1.8410
11620TIP3   OH256274   1.034   0.423  17.125 -0.0492 -0.6340 -0.3703
11620TIP3    H156275   1.120   0.383  17.139  0.1753 -0.2808 -0.7277
11620TIP3    H256276   1.052   0.503  17.076 -0.4775  0.0089  0.4967
11621TIP3   OH256277   5.817   1.261   0.685  0.4727  0.0422 -0.1333
11621TIP3    H156278   5.783   1.197   0.747  1.9286 -2.7572 -2.0272
11621TIP3    H256279   5.846   1.209   0.610  0.1832  3.0977 -2.5750
11622TIP3   OH256280   6.147   2.311   0.282  0.0033  0.0940 -0.3058
11622TIP3    H156281   6.237   2.345   0.280 -1.1050  3.3745 -0.1899
11622TIP3    H256282   6.124   2.299   0.190  0.7768 -1.5825 -0.3161
11623TIP3   OH256283   5.909   6.243  17.148 -0.0881  0.6089  0.2576
11623TIP3    H156284   5.924   6.164  17.096 -0.3423 -0.5940  1.9338
11623TIP3    H256285   5.960   6.229  17.228  1.0001  2.7995  0.0123
11624TIP3   OH256286   2.395   2.284   6.388  0.2610  0.0487  0.4373
11624TIP3    H156287   2.387   2.276   6.483  0.5627 -1.4506  0.3512
11624TIP3    H256288   2.488   2.297   6.373 -0.1018  3.8529  0.5254
11625TIP3   OH256289   0.569   5.095  10.460  0.1275 -0.1624 -0.0173
11625TIP3    H156290   0.616   5.155  10.402  0.2139  1.1512  1.3653
11625TIP3    H256291   0.480   5.130  10.464  0.1582 -0.1680  0.7509
11626TIP3   OH256292   6.443   0.181   4.253  0.2008 -0.1135 -0.1607
11626TIP3    H156293   6.507   0.246   4.226 -1.1099  1.0159 -0.6730
11626TIP3    H256294   6.425   0.200   4.345  1.1975 -0.9723  0.2290
11627TIP3   OH256295   3.245   5.175   3.687 -0.2981  0.5292 -0.4925
11627TIP3    H156296   3.186   5.120   3.634 -0.8470  0.7106 -0.0813
11627TIP3    H256297   3.332   5.152   3.656 -0.5343 -0.3253 -0.5769
11628TIP3   OH256298   0.351   6.695  16.716 -0.3074 -0.3833  0.2837
11628TIP3    H156299   0.433   6.685  16.669 -1.9497  2.8772 -3.9963
11628TIP3    H256300   0.291   6.634  16.672 -1.2315  0.7139 -0.0352
11629TIP3   OH256301   3.470   1.978  12.043 -0.1038 -0.1233 -0.4733
11629TIP3    H156302   3.558   2.009  12.021 -0.0623  0.1964  0.1287
11629TIP3    H256303   3.472   1.884  12.022  0.3703 -0.1142 -0.4900
11630TIP3   OH256304   6.355   1.873  14.588  0.6698  0.4252 -0.1598
11630TIP3    H156305   6.385   1.782  14.590 -0.7766 -0.0708  1.6208
11630TIP3    H256306   6.333   1.888  14.496  1.5590 -0.8046 -0.6039
11631TIP3   OH256307   4.050   4.478  15.972  0.2774 -0.1700 -0.4494
11631TIP3    H156308   4.071   4.385  15.981  0.5452 -0.0919 -0.2737
11631TIP3    H256309   3.984   4.494  16.039  0.8635 -0.0343  0.1015
11632TIP3   OH256310   0.124   2.910  13.387  0.0220 -0.4683 -0.5473
11632TIP3    H156311   0.135   2.836  13.447  1.9192  1.4256  1.6429
11632TIP3    H256312   0.214   2.934  13.363 -0.5482  1.1860 -1.1056
11633TIP3   OH256313   0.549   6.714  16.962  0.1504 -0.0990  0.0936
11633TIP3    H156314   0.611   6.772  17.006  0.2082 -0.1180  0.0358
11633TIP3    H256315   0.463   6.740  16.996  0.1327  0.3052 -0.2572
11634TIP3   OH256316   5.268   5.777  13.220  0.2454  0.1895 -0.2099
11634TIP3    H156317   5.244   5.855  13.270 -2.3111 -0.5286 -0.1792
11634TIP3    H256318   5.222   5.787  13.137 -1.5011 -2.0120  0.4234
11635TIP3   OH256319   5.336   4.453  14.651 -0.7207 -0.1449  0.2385
11635TIP3    H156320   5.415   4.399  14.659 -0.3188  0.1650 -1.2562
11635TIP3    H256321   5.272   4.394  14.611 -1.0864 -0.2328  0.9410
11636TIP3   OH256322   0.471   5.780   4.438  0.4158 -0.1505 -0.4661
11636TIP3    H156323   0.376   5.765   4.440  0.7276 -2.5298 -1.0213
11636TIP3    H256324   0.483   5.849   4.372 -1.0595  1.9333  1.3030
11637TIP3   OH256325   3.415   5.543  16.581 -0.0233  0.0431 -0.3083
11637TIP3    H156326   3.334   5.514  16.540 -1.1795  0.6066  1.4696
11637TIP3    H256327   3.459   5.462  16.607  0.0781 -0.2691 -1.4146
11638TIP3   OH256328   3.087   6.527   3.098 -0.2011  0.1121 -0.3680
11638TIP3    H156329   3.038   6.597   3.141  0.0107 -0.1027  0.2338
11638TIP3    H256330   3.026   6.453   3.096  0.2096 -0.2663  0.7049
11639TIP3   OH256331   4.079   2.396  12.335 -0.5156 -0.6641  0.1883
11639TIP3    H156332   4.071   2.445  12.417  0.5224  0.9234 -0.6077
11639TIP3    H256333   4.010   2.430  12.279 -0.0214 -0.3626 -0.2459
11640TIP3   OH256334   1.376   0.506   1.764 -0.1919 -0.5125  0.0876
11640TIP3    H156335   1.429   0.555   1.827  1.4810 -1.1400 -0.7542
11640TIP3    H256336   1.315   0.455   1.818 -0.6489  0.9748  1.0479
11641TIP3   OH256337   2.631   6.166  11.452 -0.0449 -0.6912  0.5930
11641TIP3    H156338   2.598   6.077  11.445  1.4790 -1.2270 -0.0674
11641TIP3    H256339   2.718   6.157  11.491 -0.4329  0.6411  1.8546
11642TIP3   OH256340   6.771   6.671   0.216 -0.6318 -0.1243 -0.6492
11642TIP3    H156341   6.726   6.589   0.237 -0.4955  0.5252  2.8606
11642TIP3    H256342   6.856   6.643   0.183 -0.3965 -1.5050  0.9347
11643TIP3   OH256343   1.425   6.342   0.792  0.0177  0.1563 -0.1467
11643TIP3    H156344   1.408   6.420   0.844  0.5876  0.0689  0.1809
11643TIP3    H256345   1.352   6.338   0.730  0.3686  1.3755 -0.6826
11644TIP3   OH256346   4.540   6.476  15.596 -0.3173  0.7064  0.0227
11644TIP3    H156347   4.635   6.462  15.595 -0.3164  0.6727  0.4331
11644TIP3    H256348   4.530   6.570  15.611 -0.3452  0.8239 -0.6914
11645TIP3   OH256349   3.719   1.769   5.800 -0.0631  0.1892  0.1091
11645TIP3    H156350   3.627   1.740   5.806 -0.0233  0.0886  0.2457
11645TIP3    H256351   3.737   1.770   5.706  0.0598 -0.6411  0.1110
11646TIP3   OH256352   3.306   1.613  13.384  0.4875 -0.2443  0.2317
11646TIP3    H156353   3.288   1.571  13.468 -0.1105 -1.3700 -0.4358
11646TIP3    H256354   3.275   1.702  13.395  0.6802 -0.2872  1.2935
11647TIP3   OH256355   3.616   0.905   0.707 -0.0986 -0.3447 -0.0990
11647TIP3    H156356   3.605   0.995   0.676  0.6936 -0.0994  0.3006
11647TIP3    H256357   3.609   0.851   0.629 -0.4009  0.0744 -0.3655
11648TIP3   OH256358   4.657   2.060   3.409  0.6584 -0.1537 -0.2342
11648TIP3    H156359   4.740   2.031   3.446  1.0400 -1.4292 -1.9654
11648TIP3    H256360   4.681   2.129   3.348  0.2461  0.5775  0.4100
11649TIP3   OH256361   3.682   0.805   3.510 -0.0144  0.5010 -0.3239
11649TIP3    H156362   3.756   0.835   3.457  1.3496 -0.9890  0.6385
11649TIP3    H256363   3.628   0.753   3.450 -0.0579  1.2150 -0.9197
11650TIP3   OH256364   1.053   0.582   2.857  0.4899  0.2663  0.8822
11650TIP3    H156365   1.026   0.632   2.934  0.7647  0.4660  0.8468
11650TIP3    H256366   1.138   0.618   2.832  0.1561  0.5762  0.1545
11651TIP3   OH256367   3.302   6.614   0.721  0.0718  0.1689 -0.0617
11651TIP3    H156368   3.389   6.575   0.729  0.8377  1.8875  0.4877
11651TIP3    H256369   3.317   6.708   0.731 -1.8001  0.5475 -0.4325
11652TIP3   OH256370   3.172   3.212   3.739  0.5967  0.0672 -0.0829
11652TIP3    H156371   3.249   3.246   3.785  0.6309 -1.3723  0.9673
11652TIP3    H256372   3.166   3.267   3.660  1.6084  1.3954  0.7092
11653TIP3   OH256373   5.121   0.742  13.848  0.1649  0.1976  0.6067
11653TIP3    H156374   5.150   0.825  13.811  1.2020 -0.7617 -0.8141
11653TIP3    H256375   5.112   0.684  13.772 -2.0567 -0.5775  1.3817
11654TIP3   OH256376   1.196   5.589  14.140  0.0569 -0.5431 -0.0859
11654TIP3    H156377   1.253   5.567  14.214  1.4023  0.4008 -0.7904
11654TIP3    H256378   1.255   5.628  14.075 -1.6027  2.0197 -0.2193
11655TIP3   OH256379   2.252   6.436   2.131 -0.2699  0.4475  0.3721
11655TIP3    H156380   2.247   6.355   2.080 -3.3580  0.1181  1.0187
11655TIP3    H256381   2.331   6.426   2.185  2.3338  0.1941 -3.1021
11656TIP3   OH256382   4.949   4.689   3.160 -0.0049 -0.2629 -0.4559
11656TIP3    H156383   5.000   4.730   3.230 -0.8913 -0.1331  0.1428
11656TIP3    H256384   5.004   4.695   3.083  0.0101  1.9116 -0.3527
11657TIP3   OH256385   5.954   5.047   3.324 -0.0015  0.2602 -0.6647
11657TIP3    H156386   5.991   5.120   3.374 -1.6174  0.4419  0.3581
11657TIP3    H256387   5.913   5.088   3.248  0.6041  0.2113 -1.0253
11658TIP3   OH256388   6.655   5.958   1.922 -0.0068 -0.1121  0.4047
11658TIP3    H156389   6.615   6.012   1.854  0.8711  1.1916  0.8861
11658TIP3    H256390   6.600   5.879   1.926 -1.4179  0.8028 -0.2120
11659TIP3   OH256391   2.891   1.947  15.506 -0.1404  0.1989 -0.4949
11659TIP3    H156392   2.982   1.920  15.508  0.2830  1.5135 -1.0303
11659TIP3    H256393   2.846   1.876  15.459  0.6548 -0.2817 -0.5534
11660TIP3   OH256394   5.107   2.772   5.248  0.5118 -0.5161 -0.1188
11660TIP3    H156395   5.136   2.766   5.157 -0.5034  1.2167 -0.6006
11660TIP3    H256396   5.187   2.790   5.297  0.7001  1.6101 -1.0948
11661TIP3   OH256397   5.376   2.753   6.441  0.2935 -0.3654 -0.1059
11661TIP3    H156398   5.283   2.732   6.440  0.4833 -1.3239 -2.0410
11661TIP3    H256399   5.420   2.671   6.416  1.6037  0.2321  0.1300
11662TIP3   OH256400   3.591   4.070  11.193 -0.2343  1.1132 -0.2909
11662TIP3    H156401   3.516   4.125  11.173 -1.1587 -0.1931 -0.5403
11662TIP3    H256402   3.555   3.997  11.245  0.8884  0.5741 -0.2265
11663TIP3   OH256403   1.910   0.857  16.796 -0.1184 -0.3604  0.2683
11663TIP3    H156404   1.873   0.887  16.713 -0.5682  0.5711  0.7837
11663TIP3    H256405   1.961   0.931  16.828  1.3101 -1.2412  0.1123
11664TIP3   OH256406   2.609   4.269   5.671  0.0420  0.5702  0.1467
11664TIP3    H156407   2.682   4.320   5.636  0.8139 -0.4480  0.2050
11664TIP3    H256408   2.608   4.288   5.764  1.6329 -1.0115  0.5426
11665TIP3   OH256409   3.186   0.559   4.680  0.9632  0.1313  0.0688
11665TIP3    H156410   3.162   0.478   4.634  0.7157  0.1512  0.1608
11665TIP3    H256411   3.235   0.529   4.757  0.6040  0.0459  0.2721
11666TIP3   OH256412   0.484   5.844  13.724  0.0149 -0.4334  0.0577
11666TIP3    H156413   0.486   5.931  13.686 -1.3907 -0.9825 -1.3883
11666TIP3    H256414   0.393   5.832  13.751 -0.7484 -2.6915 -2.9890
11667TIP3   OH256415   3.331   6.441   1.293 -0.4348  0.0885  0.2093
11667TIP3    H156416   3.357   6.371   1.353 -1.4753 -0.2763  0.2542
11667TIP3    H256417   3.259   6.485   1.338  1.0843  2.1126  0.8199
11668TIP3   OH256418   2.010   2.236   5.360 -0.5361  0.7870 -0.2748
11668TIP3    H156419   1.972   2.274   5.440  1.6580  2.3567  0.1311
11668TIP3    H256420   2.105   2.237   5.377 -0.1930 -3.0195 -1.1499
11669TIP3   OH256421   4.027   1.969  12.312 -0.0611  0.3143  0.3624
11669TIP3    H156422   4.082   1.894  12.336  1.7554  1.2609 -0.6054
11669TIP3    H256423   4.089   2.034  12.278 -1.9141  1.0044 -1.9468
11670TIP3   OH256424   4.400   2.493   1.509  0.5149 -0.0154  0.3005
11670TIP3    H156425   4.473   2.546   1.477 -0.0973  0.6738  0.0035
11670TIP3    H256426   4.353   2.551   1.569  0.0895 -0.3741  0.3232
11671TIP3   OH256427   2.163   3.086  12.545 -0.3892  0.0277 -0.1945
11671TIP3    H156428   2.121   3.167  12.573  0.5181  1.4067 -2.5293
11671TIP3    H256429   2.094   3.037  12.500 -0.6978 -0.0673  0.3735
11672TIP3   OH256430   2.335   2.445  13.712 -0.9250  0.2496 -0.6062
11672TIP3    H156431   2.313   2.506  13.641  0.6155  0.6697 -0.7519
11672TIP3    H256432   2.328   2.358  13.672  2.6582  0.5240 -2.2124
11673TIP3   OH256433   4.975   0.748  15.774  0.0124 -0.1569  0.1455
11673TIP3    H156434   4.972   0.724  15.682 -1.1220 -0.4335  0.2416
11673TIP3    H256435   5.065   0.777  15.789  0.3490 -0.6415 -0.9067
11674TIP3   OH256436   4.574   4.031  13.787 -0.4969 -0.1216 -0.4929
11674TIP3    H156437   4.524   4.113  13.790 -0.8569 -0.3386 -0.5323
11674TIP3    H256438   4.520   3.968  13.835  0.5256  0.0636  0.9701
11675TIP3   OH256439   0.315   3.475   2.206  0.6784  0.0941 -0.0388
11675TIP3    H156440   0.314   3.562   2.247 -0.7579 -0.0769  0.3656
11675TIP3    H256441   0.305   3.493   2.112 -1.2943  0.3734  0.1668
11676TIP3   OH256442   1.959   0.841   2.712  0.2740 -0.0628  0.3062
11676TIP3    H156443   1.945   0.747   2.698 -0.2301 -0.0513  0.7206
11676TIP3    H256444   2.030   0.845   2.777  2.3299 -0.1198 -1.8146
11677TIP3   OH256445   3.847   2.991   1.814 -0.1615  0.2654 -0.0842
11677TIP3    H156446   3.874   2.951   1.732 -0.2032 -0.6461  0.3321
11677TIP3    H256447   3.929   3.012   1.859 -0.0358 -2.5434  1.1998
11678TIP3   OH256448   1.582   5.142   0.529 -0.3084 -0.4849 -0.0120
11678TIP3    H156449   1.602   5.051   0.551 -0.4675 -1.7336 -4.2894
11678TIP3    H256450   1.667   5.187   0.533  0.1571 -1.3537 -0.0482
11679TIP3   OH256451   5.536   5.653   5.176  0.3620 -0.3975 -0.1736
11679TIP3    H156452   5.618   5.657   5.125  0.8375  1.4642  0.6311
11679TIP3    H256453   5.467   5.657   5.109  0.9632  3.1916 -0.8156
11680TIP3   OH256454   3.325   5.504  14.369 -0.2162 -0.4591  0.5098
11680TIP3    H156455   3.350   5.563  14.441 -0.8007 -1.3909  1.5051
11680TIP3    H256456   3.246   5.459  14.401 -0.3577 -1.0563 -0.6315
11681TIP3   OH256457   1.468   0.827  15.993 -0.0246  0.3609 -0.8391
11681TIP3    H156458   1.489   0.920  15.993 -0.6781  0.5193  0.2832
11681TIP3    H256459   1.532   0.787  16.051  1.2326 -0.1540 -2.5045
11682TIP3   OH256460   5.430   5.905  17.218  0.1387 -0.1168 -0.1381
11682TIP3    H156461   5.440   5.839  17.150  0.2998  0.0603 -0.2846
11682TIP3    H256462   5.515   5.908  17.262  0.1889  0.1297 -0.2543
11683TIP3   OH256463   5.978   5.984  15.226  0.6154  0.5959  0.7061
11683TIP3    H156464   5.961   5.975  15.320  0.5584 -0.7482  0.5785
11683TIP3    H256465   6.026   5.905  15.202  1.0661  1.1565 -0.3120
11684TIP3   OH256466   4.714   5.492  13.016  0.1715  0.0630 -0.5097
11684TIP3    H156467   4.807   5.468  13.018  0.5177  1.3363 -0.6067
11684TIP3    H256468   4.668   5.410  13.033  1.3181 -0.5511 -0.2608
11685TIP3   OH256469   0.699   2.590   1.467 -0.1846 -0.5196 -0.1075
11685TIP3    H156470   0.629   2.655   1.463  0.4481  0.2664  1.1147
11685TIP3    H256471   0.750   2.605   1.387  1.1616  1.9509  1.0964
11686TIP3   OH256472   2.227   1.285  12.013  0.2799 -0.4018 -0.7042
11686TIP3    H156473   2.179   1.326  11.941 -0.8996  1.8297  1.2030
11686TIP3    H256474   2.296   1.349  12.034 -1.2747  0.5036  2.0244
11687TIP3   OH256475   1.961   4.396   2.360 -0.3486 -0.0650  0.1712
11687TIP3    H156476   1.957   4.468   2.298  2.6765  0.6966  0.6722
11687TIP3    H256477   1.997   4.323   2.310  1.3540  0.3256  0.7344
11688TIP3   OH256478   1.829   3.221   2.131 -0.6710  0.6756 -0.4692
11688TIP3    H156479   1.867   3.224   2.044 -1.2734 -2.8005 -0.9774
11688TIP3    H256480   1.864   3.141   2.171 -3.1884  0.2078  1.0641
11689TIP3   OH256481   4.557   0.867   1.619 -0.1048 -0.2996  0.1232
11689TIP3    H156482   4.499   0.818   1.560  0.6495 -1.2370  0.1321
11689TIP3    H256483   4.581   0.803   1.687 -0.3348  0.5392  1.0168
11690TIP3   OH256484   0.308   2.399   6.399  0.0805  0.2348 -0.0482
11690TIP3    H156485   0.368   2.445   6.339 -1.4575 -1.1123 -2.8199
11690TIP3    H256486   0.224   2.442   6.385  0.0436  1.3674  2.9713
11691TIP3   OH256487   4.412   4.148  10.966 -0.8078 -0.2314  0.1351
11691TIP3    H156488   4.416   4.157  10.870 -2.9088 -1.6297 -0.1359
11691TIP3    H256489   4.408   4.238  10.998 -1.2916  0.2365 -1.1701
11692TIP3   OH256490   4.506   3.386   4.817  0.2601 -0.3445  0.6035
11692TIP3    H156491   4.484   3.365   4.908 -0.6975 -3.3172 -0.1915
11692TIP3    H256492   4.531   3.302   4.779  2.6487  1.1656 -1.4214
11693TIP3   OH256493   6.539   4.040   5.476  0.0570 -0.7070 -0.2037
11693TIP3    H156494   6.584   4.049   5.560 -0.2312 -0.5328 -0.0658
11693TIP3    H256495   6.565   3.954   5.444  0.8474 -0.4252 -0.3384
11694TIP3   OH256496   3.637   5.661  13.909 -0.0836 -0.4624 -0.6753
11694TIP3    H156497   3.621   5.724  13.979  1.4098 -1.1618  0.3632
11694TIP3    H256498   3.557   5.661  13.857 -0.9606  0.6142  0.6157
11695TIP3   OH256499   3.747   4.216  15.318 -0.1363 -0.2637 -0.7196
11695TIP3    H156500   3.828   4.239  15.272 -0.2015 -0.1303 -0.7670
11695TIP3    H256501   3.769   4.222  15.410  0.2592 -1.4449 -0.7248
11696TIP3   OH256502   4.862   4.555  15.328 -0.2567 -0.2170  0.3966
11696TIP3    H156503   4.839   4.557  15.236  1.0247  0.8139  0.0724
11696TIP3    H256504   4.956   4.533  15.329 -0.4866 -1.2838  1.5112
11697TIP3   OH256505   5.017   3.047  15.240  0.1899 -0.2885 -0.1523
11697TIP3    H156506   5.110   3.064  15.222 -0.1124 -1.5222 -3.4923
11697TIP3    H256507   4.970   3.111  15.187 -0.8286 -2.5715 -2.1475
11698TIP3   OH256508   0.533   0.181  14.979 -0.2703  0.1811  0.6883
11698TIP3    H156509   0.476   0.104  14.985 -0.5132  0.3532  0.5856
11698TIP3    H256510   0.543   0.196  14.885  0.6128 -0.3410  0.6800
11699TIP3   OH256511   3.049   3.482  14.410 -0.7801 -0.3202  0.4319
11699TIP3    H156512   3.027   3.574  14.401  0.1204  0.1147  2.2097
11699TIP3    H256513   2.969   3.436  14.385 -2.2401  1.0560  2.2816
11700TIP3   OH256514   2.314   4.922   4.686  0.3622 -0.2469  0.1911
11700TIP3    H156515   2.379   4.859   4.654 -0.1015  0.1938 -1.7328
11700TIP3    H256516   2.348   4.951   4.770  2.4293 -0.3862 -0.5431
11701TIP3   OH256517   5.579   2.243   1.160 -0.1004 -0.3158 -0.7058
11701TIP3    H156518   5.572   2.179   1.089  0.1398  1.8719 -2.8049
11701TIP3    H256519   5.652   2.300   1.135 -0.7113  1.1965  0.7475
11702TIP3   OH256520   4.713   3.813   2.210  0.6944  0.0878 -0.0003
11702TIP3    H156521   4.621   3.836   2.226  0.7319 -0.3068  0.8158
11702TIP3    H256522   4.714   3.782   2.120 -0.2241 -1.1008  0.3656
11703TIP3   OH256523   3.385   2.482  16.539  0.7031 -1.5530 -0.0927
11703TIP3    H156524   3.386   2.411  16.476 -2.8779 -1.7103 -0.2141
11703TIP3    H256525   3.391   2.562  16.486  0.7189 -1.7335 -0.3625
11704TIP3   OH256526   3.135   4.823   2.085  0.6736 -0.0563  0.0666
11704TIP3    H156527   3.194   4.847   2.014  1.3617  0.1012  0.6771
11704TIP3    H256528   3.118   4.905   2.130 -1.2530  0.1741 -1.0012
11705TIP3   OH256529   4.587   3.680  15.421 -0.0270  0.6606 -0.0588
11705TIP3    H156530   4.546   3.633  15.493 -0.0083  0.4910 -0.1581
11705TIP3    H256531   4.680   3.661  15.429 -0.0944  0.1275 -0.4988
11706TIP3   OH256532   3.839   4.948  12.144  0.0593 -0.1114 -0.2425
11706TIP3    H156533   3.915   4.998  12.174 -1.0668  1.0397  0.8108
11706TIP3    H256534   3.854   4.860  12.178  1.3374 -0.1210 -0.8040
11707TIP3   OH256535   4.508   3.354  12.295  0.4104 -0.0927 -0.1753
11707TIP3    H156536   4.499   3.442  12.260 -0.9932  0.9218  2.4411
11707TIP3    H256537   4.429   3.309  12.268  0.7728 -0.3173 -0.8735
11708TIP3   OH256538   3.882   3.470   3.945 -0.4073  0.2857 -0.3768
11708TIP3    H156539   3.849   3.555   3.916 -0.1110  1.1472  1.6049
11708TIP3    H256540   3.968   3.490   3.983 -1.0651 -0.5534  1.7005
11709TIP3   OH256541   1.790   1.571  16.828  0.3394  0.5219 -0.4902
11709TIP3    H156542   1.720   1.636  16.829  0.2881  0.4840 -1.2650
11709TIP3    H256543   1.768   1.512  16.757 -0.9329 -1.8462  1.7216
11710TIP3   OH256544   5.793   2.617   2.205 -0.2917  0.1226  0.3745
11710TIP3    H156545   5.777   2.523   2.197  3.0148 -0.5450 -0.0790
11710TIP3    H256546   5.767   2.638   2.294  0.1716 -1.5836  0.9605
11711TIP3   OH256547   3.039   1.190   1.829  0.0549 -0.4267  0.1698
11711TIP3    H156548   3.102   1.197   1.757 -3.0497 -1.4236 -2.9853
11711TIP3    H256549   3.073   1.120   1.884  1.6936 -0.9561 -1.4007
11712TIP3   OH256550   0.937   5.786   3.922 -0.3794  0.2004 -0.0673
11712TIP3    H156551   0.875   5.780   3.850 -1.2496 -0.6131  0.7149
11712TIP3    H256552   0.955   5.879   3.931 -2.0941  0.5391  0.1718
11713TIP3   OH256553   6.450   6.592   5.111  0.2462 -0.4246  0.0021
11713TIP3    H156554   6.423   6.675   5.073 -1.5068 -0.4968  0.9871
11713TIP3    H256555   6.368   6.546   5.129  1.1835 -2.6980 -1.1818
11714TIP3   OH256556   2.550   3.882  12.504 -0.7537  0.3225 -0.0411
11714TIP3    H156557   2.564   3.792  12.476 -0.3153  0.3487  0.0862
11714TIP3    H256558   2.600   3.935  12.442 -0.9558  0.4740 -0.0764
11715TIP3   OH256559   5.835   6.447  13.198  0.1156 -0.3686  0.4765
11715TIP3    H156560   5.892   6.394  13.143  0.9463  1.1728 -0.2140
11715TIP3    H256561   5.841   6.408  13.285  3.2478  0.4494  0.7371
11716TIP3   OH256562   0.031   0.133   6.154 -0.0585  0.4580  0.6427
11716TIP3    H156563   0.123   0.152   6.135 -0.3425  2.1928  0.8471
11716TIP3    H256564   0.005   0.201   6.216 -1.1342 -0.7919  1.5942
11717TIP3   OH256565   2.977   5.059   1.084 -0.0379 -0.0242  0.2918
11717TIP3    H156566   2.976   5.059   0.989  2.1777  0.4572  0.2004
11717TIP3    H256567   3.028   4.981   1.108  0.3765  0.4517  1.0250
11718TIP3   OH256568   5.022   1.729  10.704 -0.5257  0.0759 -0.5757
11718TIP3    H156569   5.049   1.807  10.752 -1.1893  0.8347 -1.4142
11718TIP3    H256570   5.087   1.720  10.634  0.0652 -0.6556  0.0461
11719TIP3   OH256571   1.222   5.537   0.623  0.2087 -0.0936 -0.2788
11719TIP3    H156572   1.206   5.468   0.686  1.6520  1.5277  2.0290
11719TIP3    H256573   1.292   5.503   0.567 -1.0513 -1.5283 -1.0353
11720TIP3   OH256574   0.878   5.717  16.519  0.1319 -0.1012 -0.5290
11720TIP3    H156575   0.916   5.647  16.572 -1.4197  0.3273  1.2504
11720TIP3    H256576   0.785   5.693  16.510 -0.6611  2.0708  0.8860
11721TIP3   OH256577   3.855   1.315   0.538  0.3198  0.2431  0.3419
11721TIP3    H156578   3.777   1.286   0.490  1.0070  2.2622 -2.1702
11721TIP3    H256579   3.919   1.245   0.522  0.2164  0.4024 -0.8820
11722TIP3   OH256580   3.239   0.533  12.540  0.3698  0.3911  0.1974
11722TIP3    H156581   3.187   0.531  12.460  0.8383 -1.5594 -0.1056
11722TIP3    H256582   3.192   0.477  12.601  0.9158  0.4783  0.7110
11723TIP3   OH256583   1.133   6.423  12.240 -0.0441  0.2385 -0.0996
11723TIP3    H156584   1.118   6.332  12.265 -1.2814  0.3511 -0.3624
11723TIP3    H256585   1.213   6.421  12.187 -0.7348 -0.8893 -1.1474
11724TIP3   OH256586   3.607   0.964  14.983  0.2726  0.0590  0.5411
11724TIP3    H156587   3.640   0.874  14.990  0.5628  0.0446 -0.7624
11724TIP3    H256588   3.644   1.009  15.058  0.6252 -0.7596  0.8699
11725TIP3   OH256589   4.710   2.123  12.373  0.0766 -0.3811 -0.7458
11725TIP3    H156590   4.762   2.204  12.371 -0.3272 -0.1254 -1.0772
11725TIP3    H256591   4.634   2.142  12.317  1.1451 -1.7738 -2.8165
11726TIP3   OH256592   5.849   0.260   3.761 -0.4523 -0.3051  0.3459
11726TIP3    H156593   5.829   0.353   3.758 -0.7717 -0.3896 -0.8607
11726TIP3    H256594   5.766   0.218   3.782 -0.3654 -0.3273  0.6390
11727TIP3   OH256595   0.237   3.198   1.350 -0.6098  0.5585  0.0805
11727TIP3    H156596   0.325   3.196   1.386 -0.2104  0.3752 -0.8843
11727TIP3    H256597   0.182   3.225   1.423 -0.0263 -1.1899  1.2280
11728TIP3   OH256598   4.407   6.705  16.342 -0.3193  0.3783  0.3294
11728TIP3    H156599   4.449   6.648  16.278  1.4547  1.8371  0.0869
11728TIP3    H256600   4.431   6.794  16.314 -1.3263  1.1490  1.7846
11729TIP3   OH256601   2.695   0.308  10.705  0.1533 -0.6502 -0.0329
11729TIP3    H156602   2.646   0.317  10.623  1.7148  1.1554 -0.8522
11729TIP3    H256603   2.735   0.394  10.718  1.5502 -1.4902  1.5942
11730TIP3   OH256604   1.144   5.714  13.584 -0.1346  0.4707  0.0506
11730TIP3    H156605   1.183   5.639  13.540 -0.1550  0.6821 -0.3255
11730TIP3    H256606   1.149   5.785  13.521 -2.3065  0.1809 -0.5333
11731TIP3   OH256607   6.273   4.697  15.448 -0.3258 -0.4833 -0.3175
11731TIP3    H156608   6.257   4.767  15.511  2.0131 -0.8230  0.7831
11731TIP3    H256609   6.194   4.644  15.449 -0.8767  0.3078  1.2932
11732TIP3   OH256610   3.188   3.447  12.834  0.2099  0.5648 -0.5634
11732TIP3    H156611   3.242   3.372  12.859 -0.7575 -0.5985 -1.7622
11732TIP3    H256612   3.167   3.491  12.916 -0.2668 -1.2477  0.3335
11733TIP3   OH256613   0.550   4.703  15.010 -0.0513 -0.1542 -0.2559
11733TIP3    H156614   0.573   4.611  15.019  1.1755  0.0351 -1.1434
11733TIP3    H256615   0.519   4.712  14.920 -2.0678 -0.0561  0.4139
11734TIP3   OH256616   1.889   2.317   5.797  0.1133 -0.0425 -0.2041
11734TIP3    H156617   1.915   2.409   5.808 -1.4314  0.3049  0.9047
11734TIP3    H256618   1.932   2.271   5.869 -1.9168  0.4891  1.4733
11735TIP3   OH256619   1.890   1.042   5.526  0.0853  0.1587 -0.5800
11735TIP3    H156620   1.873   1.032   5.432  0.2459 -0.9076 -0.5106
11735TIP3    H256621   1.803   1.053   5.564 -0.0089  0.2510 -0.8186
11736TIP3   OH256622   0.607   0.303  14.069 -0.1563  0.1712  0.0480
11736TIP3    H156623   0.511   0.302  14.072 -0.1535 -0.8263  0.0546
11736TIP3    H256624   0.628   0.382  14.019 -0.9708  0.5804  0.3258
11737TIP3   OH256625   0.304   6.615   3.937 -0.0423 -0.1607  0.3245
11737TIP3    H156626   0.395   6.586   3.937 -0.1912 -0.7220  1.8633
11737TIP3    H256627   0.270   6.587   3.852  1.1294 -0.2021 -0.1473
11738TIP3   OH256628   4.517   4.630   4.770  0.2597  0.1638 -0.3476
11738TIP3    H156629   4.565   4.550   4.749 -0.1149 -0.1293 -0.1091
11738TIP3    H256630   4.565   4.668   4.844  0.2524 -0.0160 -0.2484
11739TIP3   OH256631   3.845   3.970  14.510 -0.3464 -0.4381  0.1863
11739TIP3    H156632   3.873   3.921  14.433  0.3326  0.7284 -0.3379
11739TIP3    H256633   3.906   3.943  14.579  0.0512 -0.3052 -0.1108
11740TIP3   OH256634   1.159   5.197  12.458 -0.0980  0.2359 -0.2407
11740TIP3    H156635   1.094   5.135  12.490 -0.7212 -0.0854 -1.9823
11740TIP3    H256636   1.134   5.212  12.366  1.7481  0.8033 -0.6925
11741TIP3   OH256637   4.342   1.111   2.296  0.6162  0.2006 -0.1008
11741TIP3    H156638   4.404   1.178   2.269  2.6162 -1.0771  1.0396
11741TIP3    H256639   4.354   1.040   2.233  0.2481 -0.0218  0.0733
11742TIP3   OH256640   3.499   4.236   5.082  0.5972  0.3486 -0.6900
11742TIP3    H156641   3.549   4.290   5.143  0.3766  0.5157 -0.6537
11742TIP3    H256642   3.425   4.291   5.056 -1.1517 -0.8534  1.4258
11743TIP3   OH256643   6.655   6.564   2.794  0.2172 -0.1577 -0.2492
11743TIP3    H156644   6.594   6.616   2.847  0.8186  1.6751 -1.2601
11743TIP3    H256645   6.605   6.488   2.767 -0.9750  0.2864  0.6037
11744TIP3   OH256646   5.374   0.310   0.176 -0.3168  0.6353 -0.2774
11744TIP3    H156647   5.393   0.234   0.121 -1.6211 -0.5377  0.8374
11744TIP3    H256648   5.282   0.302   0.198 -0.7767  3.1437 -0.9814
11745TIP3   OH256649   3.934   3.347   2.617 -0.4737 -0.4174 -0.2722
11745TIP3    H156650   3.863   3.406   2.592 -0.3325 -0.5034 -0.8893
11745TIP3    H256651   3.917   3.267   2.567  0.6254 -0.0786 -1.2296
11746TIP3   OH256652   6.028   5.952  14.786  0.1893  0.1727 -0.3655
11746TIP3    H156653   5.977   5.874  14.807  0.4588  0.4638  1.6559
11746TIP3    H256654   5.962   6.020  14.769 -0.0700 -0.0976 -0.4466
11747TIP3   OH256655   4.661   4.727   5.389  0.0172 -0.0477  0.4248
11747TIP3    H156656   4.724   4.799   5.402 -1.5020  1.1721  1.4910
11747TIP3    H256657   4.595   4.764   5.330 -0.6480 -0.6491  0.7786
11748TIP3   OH256658   3.773   1.377   5.428 -0.0721  0.2071  0.0342
11748TIP3    H156659   3.817   1.405   5.509 -0.6723  0.8273  0.1601
11748TIP3    H256660   3.722   1.301   5.454  0.7282 -0.3745 -0.0591
11749TIP3   OH256661   0.515   2.866   0.929  0.0892 -0.5659 -0.0105
11749TIP3    H156662   0.482   2.933   0.988  2.0048  0.0688  0.3839
11749TIP3    H256663   0.555   2.914   0.857  1.9402 -1.2077  0.5201
11750TIP3   OH256664   1.894   1.037   6.566 -0.0528 -0.6649 -0.6333
11750TIP3    H156665   1.839   0.960   6.552  0.0302 -0.5117 -1.9104
11750TIP3    H256666   1.837   1.111   6.546 -0.4365 -0.3049  1.5585
11751TIP3   OH256667   5.220   3.078   3.061  0.0199 -0.4125  0.2542
11751TIP3    H156668   5.167   3.068   2.981 -0.6737 -1.4127  0.8171
11751TIP3    H256669   5.223   3.172   3.075  0.8520 -0.1499 -1.4019
11752TIP3   OH256670   4.857   0.218  14.941  0.7848  0.1371  0.0050
11752TIP3    H156671   4.828   0.308  14.925 -0.3088 -0.0588  0.7847
11752TIP3    H256672   4.930   0.205  14.881  0.9228  1.5292 -0.1531
11753TIP3   OH256673   0.461   1.869   1.347 -0.2886 -0.1360  0.3995
11753TIP3    H156674   0.503   1.796   1.302  2.1723  0.8518  0.9206
11753TIP3    H256675   0.468   1.942   1.286  1.2679  0.7113  1.5119
11754TIP3   OH256676   6.462   5.076   4.013  0.2475 -0.0476 -0.0574
11754TIP3    H156677   6.404   5.126   4.070 -0.9635  1.0912 -2.1853
11754TIP3    H256678   6.545   5.072   4.061 -0.9211  0.1858  2.0856
11755TIP3   OH256679   6.736   2.983  12.532  0.6172 -0.0837 -0.1320
11755TIP3    H156680   6.746   2.890  12.515  0.6877 -0.0357 -0.3629
11755TIP3    H256681   6.825   3.016  12.542  0.6059  0.0080 -0.3269
11756TIP3   OH256682   2.114   0.346  16.898  0.1976 -0.2521 -0.1225
11756TIP3    H156683   2.139   0.435  16.920  0.3176 -0.6025  1.2713
11756TIP3    H256684   2.194   0.306  16.864 -0.4047  0.8038 -3.1123
11757TIP3   OH256685   0.396   6.085   0.641 -0.0728  0.3899  0.4022
11757TIP3    H156686   0.476   6.031   0.636 -1.1023 -1.0923 -1.4817
11757TIP3    H256687   0.334   6.031   0.690 -1.0314 -0.0873 -1.2609
11758TIP3   OH256688   6.104   6.409   2.125  0.3694 -0.0571  0.2090
11758TIP3    H156689   6.111   6.497   2.089 -2.2161 -0.2425 -0.9763
11758TIP3    H256690   6.066   6.421   2.212 -0.4891  0.0001 -0.1640
11759TIP3   OH256691   5.654   6.315   4.761 -0.5954  0.0695 -0.0709
11759TIP3    H156692   5.605   6.233   4.756 -0.9380  0.2348  0.4641
11759TIP3    H256693   5.730   6.301   4.704 -0.8977 -0.4443 -0.3583
11760TIP3   OH256694   0.725   1.034  10.948 -0.1038 -0.2074 -0.0145
11760TIP3    H156695   0.757   0.956  10.994 -1.7825 -1.1384 -0.3355
11760TIP3    H256696   0.646   1.004  10.904 -0.6215  1.6349 -0.3980
11761TIP3   OH256697   3.033   3.311   3.121 -0.4329 -0.1456 -0.6075
11761TIP3    H156698   3.088   3.310   3.042  0.8611  2.2079  0.1811
11761TIP3    H256699   2.949   3.275   3.091  0.4512 -0.6548 -2.6866
11762TIP3   OH256700   5.833   2.852   0.540 -0.6190  0.2139  1.1954
11762TIP3    H156701   5.866   2.924   0.486 -1.2243 -0.9263 -0.7923
11762TIP3    H256702   5.910   2.820   0.587  0.6676 -0.7538 -1.4019
11763TIP3   OH256703   3.244   3.081  15.983  0.0104 -0.4817 -0.2594
11763TIP3    H156704   3.257   3.001  15.933 -1.8063 -1.3615  0.5807
11763TIP3    H256705   3.284   3.150  15.929  3.4317 -2.1316 -0.0621
11764TIP3   OH256706   1.627   4.281   1.567 -0.7975 -0.3364  0.3569
11764TIP3    H156707   1.640   4.253   1.477  1.2191  3.2516 -0.6663
11764TIP3    H256708   1.534   4.304   1.572 -0.5772  1.1547 -1.4290
11765TIP3   OH256709   5.787   1.028  16.855  0.0785  0.6351  0.0201
11765TIP3    H156710   5.769   0.955  16.795  0.5316  1.0376 -0.6232
11765TIP3    H256711   5.701   1.064  16.875 -0.1516 -0.0934  0.3677
11766TIP3   OH256712   2.833   0.994   2.355 -0.1142 -0.0452 -0.1103
11766TIP3    H156713   2.904   0.935   2.380 -2.3717 -2.6745  0.7016
11766TIP3    H256714   2.775   0.995   2.430 -0.7595  2.4140 -0.5558
11767TIP3   OH256715   0.334   0.862  11.683  0.6753  0.0969  0.2827
11767TIP3    H156716   0.293   0.777  11.665 -2.2949  0.9177  2.3744
11767TIP3    H256717   0.307   0.917  11.610 -1.0108  0.2699  0.9825
11768TIP3   OH256718   0.674   0.636  16.994 -0.3533  0.1238 -0.0844
11768TIP3    H156719   0.756   0.647  16.946 -0.9023  0.0567 -1.0654
11768TIP3    H256720   0.646   0.725  17.015  0.6081  0.1125  1.4093
11769TIP3   OH256721   0.778   2.219   1.548  0.2006 -0.0061 -0.4474
11769TIP3    H156722   0.731   2.137   1.560  0.0451  0.2864  1.1279
11769TIP3    H256723   0.722   2.286   1.588 -1.8268  1.7168 -5.3507
11770TIP3   OH256724   5.776   1.746  10.552  0.4537  0.8676 -0.1527
11770TIP3    H156725   5.842   1.744  10.484  0.5692  0.3723 -0.0306
11770TIP3    H256726   5.801   1.676  10.612 -2.1738 -1.9014 -2.0030
11771TIP3   OH256727   0.856   5.417  10.975 -0.0450 -0.6517  0.2013
11771TIP3    H156728   0.868   5.323  10.969 -0.4053 -0.6854  0.0086
11771TIP3    H256729   0.799   5.440  10.901  0.1116 -0.2719  0.1926
11772TIP3   OH256730   4.692   4.015   5.174  0.2177  0.2939 -0.0505
11772TIP3    H156731   4.621   3.965   5.134  0.0787  1.4255 -1.2859
11772TIP3    H256732   4.712   4.084   5.111  0.4365  1.7782  1.5655
11773TIP3   OH256733   0.503   0.315   3.543 -0.0077  0.0994  0.1557
11773TIP3    H156734   0.420   0.276   3.572  0.6211 -1.4922 -0.0954
11773TIP3    H256735   0.486   0.409   3.542 -1.6308 -0.1585  0.6723
11774TIP3   OH256736   3.249   3.528  10.648 -0.3365  0.2443  0.1528
11774TIP3    H156737   3.177   3.492  10.699  0.6980  0.6028  1.9614
11774TIP3    H256738   3.328   3.502  10.696  1.0069 -2.4074 -3.1534
11775TIP3   OH256739   5.318   2.196  14.748  0.3004 -0.1371  0.6480
11775TIP3    H156740   5.228   2.226  14.759  0.1993 -0.0824 -0.2658
11775TIP3    H256741   5.364   2.229  14.825  0.0370  1.7381  0.0534
11776TIP3   OH256742   5.790   6.672   2.508  0.0004  0.0853 -0.1273
11776TIP3    H156743   5.802   6.766   2.522  0.0992  0.1312 -0.4945
11776TIP3    H256744   5.697   6.663   2.487 -0.0215  0.0928 -0.0346
11777TIP3   OH256745   0.273   4.442   2.662  0.0897 -0.0200 -0.1619
11777TIP3    H156746   0.204   4.423   2.725  0.0733  1.5258  0.3153
11777TIP3    H256747   0.353   4.448   2.714  0.5687 -1.4779 -0.6715
11778TIP3   OH256748   2.806   4.612   0.273  0.2995  0.1126 -0.2205
11778TIP3    H156749   2.899   4.627   0.253  0.2455  0.7574 -0.0069
11778TIP3    H256750   2.769   4.583   0.190  1.1149 -2.2866  0.1860
11779TIP3   OH256751   0.063   0.765  14.794  0.0350  0.1572  0.6015
11779TIP3    H156752  -0.001   0.717  14.846 -1.6377  0.1730 -1.3428
11779TIP3    H256753   0.031   0.855  14.795 -0.1930  0.0989 -0.6790
11780TIP3   OH256754   5.598   0.738  14.486 -0.2982  0.5429 -0.3318
11780TIP3    H156755   5.580   0.702  14.399  0.2219  0.0174 -0.2272
11780TIP3    H256756   5.511   0.752  14.524 -0.5664 -1.9311  0.1576
11781TIP3   OH256757   4.103   2.362   5.099  0.5609 -0.4175  0.6967
11781TIP3    H156758   4.128   2.451   5.124 -0.9408 -0.0779  1.0527
11781TIP3    H256759   4.127   2.308   5.175 -1.1509  0.1464  1.6844
11782TIP3   OH256760   3.937   0.705  16.036  0.1346  0.0364  0.1748
11782TIP3    H156761   3.866   0.764  16.062  0.8714  0.7291  0.6892
11782TIP3    H256762   3.911   0.671  15.950 -0.2661  1.2095 -0.1830
11783TIP3   OH256763   1.379   5.965   2.186 -0.2896 -0.1089 -0.2110
11783TIP3    H156764   1.316   6.036   2.194  0.2388  0.4927 -1.2081
11783TIP3    H256765   1.345   5.910   2.115 -0.7205 -0.8946  0.5827
11784TIP3   OH256766   4.889   5.283   1.945  0.1251 -0.0097 -0.0768
11784TIP3    H156767   4.974   5.321   1.967  0.3852 -1.0555  0.8240
11784TIP3    H256768   4.846   5.349   1.890  0.8329  1.2602  0.8432
11785TIP3   OH256769   6.243   5.965   2.033 -0.1185 -0.1081 -0.2506
11785TIP3    H156770   6.324   5.997   2.074  0.8565 -2.0794 -0.4949
11785TIP3    H256771   6.173   6.007   2.083  1.0554  0.2491  1.1821
11786TIP3   OH256772   1.540   4.644   4.929 -0.0037  0.3167 -0.9791
11786TIP3    H156773   1.579   4.716   4.977 -2.0008  1.9929 -1.6928
11786TIP3    H256774   1.560   4.663   4.837  1.1048 -1.1378 -1.0656
11787TIP3   OH256775   6.454   4.126  16.560 -0.1557 -0.1826 -0.2214
11787TIP3    H156776   6.401   4.081  16.626 -0.2860  0.4160  0.0874
11787TIP3    H256777   6.435   4.079  16.479 -0.9026 -0.1956 -0.0539
11788TIP3   OH256778   0.081   5.258   4.083  0.4801  0.1746 -0.4662
11788TIP3    H156779   0.084   5.174   4.037  0.0607 -0.4950  0.6741
11788TIP3    H256780   0.003   5.302   4.048  0.7004  0.0868 -1.0700
11789TIP3   OH256781   0.581   3.717   1.624  0.0339 -0.2262  0.1186
11789TIP3    H156782   0.544   3.650   1.566  0.0797 -0.6912  0.6304
11789TIP3    H256783   0.513   3.785   1.628 -0.2493 -0.5042  0.0591
11790TIP3   OH256784   6.438   5.446   1.248  0.0533  0.0237  0.0782
11790TIP3    H156785   6.345   5.428   1.255 -0.0402  0.7582  0.7758
11790TIP3    H256786   6.478   5.403   1.323 -0.1353  2.3248  1.5906
11791TIP3   OH256787   5.021   1.936  12.167 -0.2788 -0.8635 -0.4000
11791TIP3    H156788   5.025   2.025  12.203  0.2736 -0.1419 -2.0821
11791TIP3    H256789   4.985   1.882  12.237  0.6214  0.4436  1.1291
11792TIP3   OH256790   4.746   2.615  13.295  0.2950  0.4759  0.5475
11792TIP3    H156791   4.711   2.585  13.211 -1.1088 -1.7663  1.8363
11792TIP3    H256792   4.762   2.708  13.282 -0.5129  0.3487 -1.9867
11793TIP3   OH256793   5.874   1.064  15.904 -0.0056  0.0904  0.7658
11793TIP3    H156794   5.797   1.069  15.848 -0.7859 -0.7775  1.7174
11793TIP3    H256795   5.840   1.036  15.990  1.1473  1.3087  1.6621
11794TIP3   OH256796   3.891   4.540   4.373  0.1929  0.2345 -0.3601
11794TIP3    H156797   3.858   4.517   4.286  0.4997 -1.6234 -0.0234
11794TIP3    H256798   3.981   4.567   4.359  0.1153  0.3297 -0.6694
11795TIP3   OH256799   5.748   6.563  14.094 -0.3442 -0.0875  0.6878
11795TIP3    H156800   5.668   6.549  14.044  0.2736 -2.0075  0.1773
11795TIP3    H256801   5.723   6.540  14.184 -0.3230 -0.9255  0.4889
11796TIP3   OH256802   2.996   2.954  11.923 -0.0888  0.0069 -0.2819
11796TIP3    H156803   2.967   2.883  11.980 -1.7146 -0.5007 -1.6601
11796TIP3    H256804   3.049   3.011  11.979 -0.8077 -0.9909  1.4547
11797TIP3   OH256805   3.505   3.785   2.574 -0.0820 -0.1442  0.1298
11797TIP3    H156806   3.439   3.760   2.509 -0.2399 -1.1775  0.6728
11797TIP3    H256807   3.586   3.793   2.523 -0.7509  2.1402 -0.7349
11798TIP3   OH256808   6.571   0.615   5.784 -0.4285 -0.1456  0.5268
11798TIP3    H156809   6.657   0.654   5.791 -0.4486  0.1745 -0.7654
11798TIP3    H256810   6.544   0.599   5.875 -0.2728  2.5002  1.1176
11799TIP3   OH256811   4.413   2.842  12.898  0.6836 -0.4171 -0.3997
11799TIP3    H156812   4.418   2.789  12.818 -1.7641  0.6155 -1.3264
11799TIP3    H256813   4.434   2.931  12.868 -2.7251  0.4692 -0.5520
11800TIP3   OH256814   1.096   3.602  16.399 -0.1488  0.2238 -0.0649
11800TIP3    H156815   1.041   3.554  16.461 -0.2249  0.8565  0.3709
11800TIP3    H256816   1.142   3.534  16.350 -0.5470 -0.2971  0.2710
11801TIP3   OH256817   0.892   6.001   1.483  0.1337  0.9649 -0.3489
11801TIP3    H156818   0.982   6.010   1.513  0.3203  0.0170 -0.5655
11801TIP3    H256819   0.899   5.991   1.388 -0.1017 -0.1331 -0.2650
11802TIP3   OH256820   5.985   3.057  14.863  0.0020 -0.3746  0.3227
11802TIP3    H156821   5.946   3.060  14.951  1.4837 -1.4826  1.0453
11802TIP3    H256822   5.909   3.052  14.804 -1.0449  0.8935  1.4748
11803TIP3   OH256823   2.633   6.283  12.896  0.7473 -0.1732  0.0125
11803TIP3    H156824   2.692   6.214  12.863  0.6855  0.0670 -0.6172
11803TIP3    H256825   2.688   6.361  12.900  0.4458  0.0795 -0.6881
11804TIP3   OH256826   2.576   2.431  13.255  0.1544  0.1422  0.0309
11804TIP3    H156827   2.590   2.339  13.233 -2.7951 -0.7624  1.3958
11804TIP3    H256828   2.621   2.443  13.338 -1.0011 -0.6788  0.8165
11805TIP3   OH256829   1.884   5.909  14.444  0.4098  0.1811  0.3884
11805TIP3    H156830   1.962   5.913  14.500 -0.3760 -1.6417  1.7009
11805TIP3    H256831   1.823   5.971  14.483  0.7336  0.6997  0.0865
11806TIP3   OH256832   4.436   5.342  13.637  0.0104 -0.0565  0.3266
11806TIP3    H156833   4.394   5.276  13.581  0.2613 -0.3898  0.5306
11806TIP3    H256834   4.510   5.373  13.586  0.8120 -1.0548  0.8499
11807TIP3   OH256835   3.143   3.772  14.338  0.0586  0.1019  0.4445
11807TIP3    H156836   3.075   3.777  14.405 -0.8150  0.4485 -0.4410
11807TIP3    H256837   3.143   3.858  14.297 -1.4214 -0.8782 -1.8555
11808TIP3   OH256838   2.057   0.006  17.195 -0.0591  0.2320 -0.1229
11808TIP3    H156839   2.020  -0.034  17.116  1.4858 -0.4414 -0.5454
11808TIP3    H256840   1.988   0.065  17.226 -0.3292  1.3765 -2.6161
11809TIP3   OH256841   0.041   5.909  14.058 -0.2674  0.4145 -0.1888
11809TIP3    H156842   0.018   5.847  14.127  1.2537  0.7903  0.6983
11809TIP3    H256843   0.134   5.893  14.041 -0.3915  0.9754 -1.4790
11810TIP3   OH256844   1.581   1.953   4.223  0.3983  0.5688 -0.4593
11810TIP3    H156845   1.541   1.869   4.199  1.8669 -0.4283  0.4164
11810TIP3    H256846   1.509   2.016   4.219 -0.9886 -0.9246 -0.0794
11811TIP3   OH256847   3.899   3.792  11.819  0.0512  0.0887  0.1906
11811TIP3    H156848   3.806   3.792  11.797  0.2575 -1.3661 -0.8440
11811TIP3    H256849   3.905   3.843  11.900 -1.6849 -0.0778  0.4555
11812TIP3   OH256850   1.891   6.687   4.360  0.1350 -0.3920  0.6408
11812TIP3    H156851   1.848   6.648   4.284 -1.0926 -0.8624  1.5536
11812TIP3    H256852   1.949   6.618   4.393  0.1542 -0.4249  0.5386
11813TIP3   OH256853   0.317   4.904  10.996  0.1386 -0.4666 -0.2170
11813TIP3    H156854   0.283   4.994  11.002  1.2748  0.0118 -0.6178
11813TIP3    H256855   0.284   4.873  10.911  0.3948 -0.1376 -0.4413
11814TIP3   OH256856   5.099   1.906   4.108 -0.1021  0.1718  0.0226
11814TIP3    H156857   5.188   1.897   4.074 -0.7015 -0.3696 -1.4834
11814TIP3    H256858   5.095   1.846   4.182  0.5421 -0.4334 -0.4241
11815TIP3   OH256859   5.481   1.023   1.499  0.5880  1.1541 -0.2771
11815TIP3    H156860   5.507   0.950   1.554 -0.4355  0.4131 -0.7298
11815TIP3    H256861   5.563   1.063   1.470  1.1650  0.1420 -0.0745
11816TIP3   OH256862   3.875   6.537   6.612 -0.3262 -0.0605  0.4089
11816TIP3    H156863   3.887   6.451   6.651  2.1006 -0.6643 -1.4331
11816TIP3    H256864   3.823   6.520   6.533  1.2845 -0.1286 -0.6884
11817TIP3   OH256865   2.487   1.781  11.451  0.3668  0.2652  0.5642
11817TIP3    H156866   2.459   1.854  11.506 -1.2473  1.1956 -1.3992
11817TIP3    H256867   2.582   1.774  11.466  0.2271  1.4900  2.2204
11818TIP3   OH256868   4.011   0.488   4.486 -0.4900 -0.3451 -0.2249
11818TIP3    H156869   3.990   0.503   4.579  1.1358 -0.2438  0.1556
11818TIP3    H256870   3.980   0.566   4.442  1.2458  0.9370  0.6829
11819TIP3   OH256871   2.454   3.996   2.987 -0.5835  0.1785  0.0174
11819TIP3    H156872   2.450   4.089   3.007 -0.0383  0.0459  0.7730
11819TIP3    H256873   2.542   3.982   2.952 -0.5869 -0.0880  0.1123
11820TIP3   OH256874   5.901   3.564   3.596  0.2168  0.4702 -0.0464
11820TIP3    H156875   5.849   3.514   3.532 -0.6178  0.6741  0.4611
11820TIP3    H256876   5.992   3.550   3.568  0.0120 -1.2318  0.0062
11821TIP3   OH256877   5.936   2.219   6.011  0.3515 -0.2047 -0.3065
11821TIP3    H156878   5.990   2.141   6.024  0.7577  0.1570  0.2154
11821TIP3    H256879   5.892   2.204   5.927 -1.0874 -1.8677  0.6912
11822TIP3   OH256880   3.166   1.576  15.544 -0.4210 -0.5822 -0.4022
11822TIP3    H156881   3.245   1.622  15.572  0.1614 -0.8407 -1.5591
11822TIP3    H256882   3.180   1.485  15.570 -1.0082 -0.3688  0.7258
11823TIP3   OH256883   1.105   0.896   0.784  0.5473  0.0686  0.2018
11823TIP3    H156884   1.052   0.890   0.863 -0.9891 -0.7789 -0.8215
11823TIP3    H256885   1.193   0.871   0.811 -0.0315 -0.5732  1.5650
11824TIP3   OH256886   4.721   4.097  11.948 -0.4301  0.7698 -0.1846
11824TIP3    H156887   4.634   4.066  11.972 -0.0149 -0.0930  0.2475
11824TIP3    H256888   4.728   4.081  11.854  0.2529 -1.7707  0.2177
11825TIP3   OH256889   1.233   4.105   3.269  0.2174  0.2035 -0.9196
11825TIP3    H156890   1.319   4.123   3.231 -0.1186 -1.5894 -2.6909
11825TIP3    H256891   1.181   4.183   3.249  1.1634  0.9161 -0.6511
11826TIP3   OH256892   0.749   1.869  16.295 -0.1367 -0.4030  0.4860
11826TIP3    H156893   0.773   1.842  16.206  1.5621 -2.1267  1.3776
11826TIP3    H256894   0.832   1.869  16.343 -1.0030  0.5291  2.0757
11827TIP3   OH256895   5.806   3.134   2.857  0.7705  0.2829  0.4896
11827TIP3    H156896   5.864   3.209   2.868  1.0454  0.1829 -0.2667
11827TIP3    H256897   5.832   3.073   2.927  0.9977  0.6011  0.6831
11828TIP3   OH256898   5.920   1.005   4.531  0.5140  0.0285  0.4696
11828TIP3    H156899   5.943   0.917   4.561 -0.9785 -1.3095 -1.9915
11828TIP3    H256900   5.975   1.064   4.584  1.9638 -2.3695  1.8035
11829TIP3   OH256901   6.603   3.394   1.727 -0.3545 -0.3093  0.2647
11829TIP3    H156902   6.667   3.374   1.796 -0.7291 -0.7857  0.4728
11829TIP3    H256903   6.600   3.315   1.673 -1.6069 -0.7219  0.9094
11830TIP3   OH256904   2.799   5.632  16.559 -0.6575 -0.7401 -0.3243
11830TIP3    H156905   2.807   5.613  16.466 -0.4077 -3.8002  0.1900
11830TIP3    H256906   2.705   5.641  16.575 -0.7086 -0.3632 -0.8494
11831TIP3   OH256907   3.031   2.921  16.534  0.2208 -0.3322  0.8762
11831TIP3    H156908   3.007   2.900  16.625 -0.3738 -1.9668  0.3876
11831TIP3    H256909   3.125   2.936  16.537  0.4618 -1.7828  1.5752
11832TIP3   OH256910   2.605   3.846   3.217 -0.5060 -0.1553  0.0649
11832TIP3    H156911   2.518   3.820   3.248 -0.8298  3.0631  2.3187
11832TIP3    H256912   2.604   3.941   3.218  3.4664  0.0741  1.6083
11833TIP3   OH256913   3.529   1.548   0.964  0.4918  0.4207  0.0273
11833TIP3    H156914   3.460   1.513   1.020 -0.8743  2.2138 -0.4674
11833TIP3    H256915   3.560   1.472   0.914 -1.5933 -0.3180 -0.2470
11834TIP3   OH256916   3.900   2.301  14.478  0.2453  0.2924 -0.1737
11834TIP3    H156917   3.851   2.350  14.413  0.1026 -0.8040 -0.9284
11834TIP3    H256918   3.983   2.280  14.436  0.6781  0.6694  0.4743
11835TIP3   OH256919   6.288   4.955   6.182 -0.5307  0.0879 -0.0337
11835TIP3    H156920   6.252   5.020   6.121  3.1675  0.9155 -1.6447
11835TIP3    H256921   6.287   4.999   6.267  0.0105  1.4955 -0.7195
11836TIP3   OH256922   0.019   6.561  12.958 -0.5575  0.4414 -0.4130
11836TIP3    H156923  -0.071   6.553  12.991  0.2390 -2.3702  1.4839
11836TIP3    H256924   0.065   6.612  13.025 -0.4690  0.8207 -0.7616
11837TIP3   OH256925   5.392   3.690  16.097 -0.3315 -0.0096 -0.1739
11837TIP3    H156926   5.303   3.711  16.123 -0.3022  1.0980 -0.9145
11837TIP3    H256927   5.420   3.764  16.044  0.3601 -1.1920 -1.5466
11838TIP3   OH256928   0.281   4.710   4.567  0.2259 -0.3821  0.6146
11838TIP3    H156929   0.257   4.799   4.594  2.3682  0.0713  1.2151
11838TIP3    H256930   0.222   4.691   4.494  1.2954  2.5441 -1.2138
11839TIP3   OH256931   4.143   2.889   2.527 -0.1444  0.2665  0.2923
11839TIP3    H156932   4.164   2.827   2.458  0.9966 -0.0715  0.9090
11839TIP3    H256933   4.063   2.854   2.567  0.4083 -0.7576  0.5517
11840TIP3   OH256934   4.888   4.209   5.284  0.2309  0.0555 -0.2590
11840TIP3    H156935   4.807   4.250   5.317  1.1299  0.8595  1.0571
11840TIP3    H256936   4.865   4.117   5.272 -0.3153 -0.2419  2.3212
11841TIP3   OH256937   0.987   5.921   0.977 -0.1751  0.1595  0.0154
11841TIP3    H156938   0.931   5.907   0.900  0.7072 -3.1706 -0.1944
11841TIP3    H256939   1.044   5.994   0.952 -2.8655  2.2030 -0.5957
11842TIP3   OH256940   0.142   6.127  14.383 -0.0790  0.5568  0.2988
11842TIP3    H156941   0.097   6.186  14.444 -0.4857 -0.0992  0.6503
11842TIP3    H256942   0.174   6.055  14.438 -1.4020 -0.6099 -0.3635
11843TIP3   OH256943   6.094   5.158  14.253  0.5035 -0.4561 -0.4526
11843TIP3    H156944   6.000   5.149  14.240  0.4860 -1.0056  0.0121
11843TIP3    H256945   6.131   5.157  14.164 -0.1099  2.3391 -0.8210
11844TIP3   OH256946   2.902   1.357  15.886 -0.0254 -0.4603 -0.1263
11844TIP3    H156947   2.960   1.285  15.913  0.1905 -0.5992 -0.9454
11844TIP3    H256948   2.837   1.361  15.955  1.1939 -0.0167  1.0477
11845TIP3   OH256949   4.387   4.883   0.788  0.3389  0.1419  0.2526
11845TIP3    H156950   4.348   4.970   0.780  1.1927  0.5513  0.4261
11845TIP3    H256951   4.397   4.853   0.697  0.6114  0.4838  0.1676
11846TIP3   OH256952   4.798   6.330  11.518  0.1305 -0.5173  0.1336
11846TIP3    H156953   4.883   6.339  11.475  0.6078  1.0331  1.3208
11846TIP3    H256954   4.737   6.314  11.447  1.0238  1.0825 -1.0624
11847TIP3   OH256955   0.674   4.420   6.579 -0.5784  0.1675 -0.2614
11847TIP3    H156956   0.672   4.324   6.585 -1.7673  0.0610 -1.8026
11847TIP3    H256957   0.594   4.443   6.531 -0.5205  1.9708  0.4241
11848TIP3   OH256958   2.357   2.325   6.666  0.7170  0.3711  0.2969
11848TIP3    H156959   2.447   2.292   6.667  1.3010  1.8521  1.7108
11848TIP3    H256960   2.310   2.269   6.728  1.2308  0.9604  1.2371
11849TIP3   OH256961   2.983   5.429   5.357  0.6345  0.0934 -0.4021
11849TIP3    H156962   3.050   5.385   5.305  0.1976 -0.2749 -0.6629
11849TIP3    H256963   2.928   5.358   5.390 -0.8843  0.4734 -1.9354
11850TIP3   OH256964   5.091   0.995  16.104  0.3361  0.4235 -0.0678
11850TIP3    H156965   5.072   0.966  16.193 -0.3595 -1.0039 -0.6566
11850TIP3    H256966   5.117   0.916  16.058 -0.8189  0.8537 -1.5277
11851TIP3   OH256967   4.275   6.544  16.957  0.0099  0.0121 -0.3036
11851TIP3    H156968   4.308   6.500  17.035  0.7143  2.3689  0.7951
11851TIP3    H256969   4.186   6.570  16.980  0.9492  2.7116  0.7005
11852TIP3   OH256970   4.454   1.925  12.427 -0.3816  0.3681  0.5918
11852TIP3    H156971   4.494   1.931  12.340  1.3952 -0.5245  1.2900
11852TIP3    H256972   4.481   2.006  12.471 -1.9838  1.2234  0.0877
11853TIP3   OH256973   3.571   3.785  10.532  0.1683 -0.2642  0.1518
11853TIP3    H156974   3.489   3.766  10.578  0.2202 -0.7314  0.0640
11853TIP3    H256975   3.594   3.701  10.490 -1.4604  0.7907 -3.2781
11854TIP3   OH256976   1.206   0.249   4.401 -0.9650 -0.2432 -0.1003
11854TIP3    H156977   1.220   0.197   4.480 -0.2588  1.7527  1.1781
11854TIP3    H256978   1.279   0.225   4.344 -0.5025 -0.4880  0.5694
11855TIP3   OH256979   6.274   0.306   3.572  0.3742 -0.2008  0.0060
11855TIP3    H156980   6.252   0.380   3.628  1.1552  0.9264 -1.1115
11855TIP3    H256981   6.261   0.339   3.482  1.6756 -1.0671 -0.5377
11856TIP3   OH256982   0.289   0.181   2.209 -0.1630  0.5976  0.0129
11856TIP3    H156983   0.208   0.216   2.247 -1.2253  0.1740 -1.7728
11856TIP3    H256984   0.356   0.199   2.275 -1.7104  0.9042  1.5671
11857TIP3   OH256985   4.967   0.717   1.311 -0.0451  0.7206  0.4142
11857TIP3    H156986   5.018   0.666   1.248  0.4814  0.8539  0.7243
11857TIP3    H256987   5.011   0.701   1.395 -1.2420 -0.1384  0.9043
11858TIP3   OH256988   3.730   3.584  13.169 -0.2181 -0.3481  0.0508
11858TIP3    H156989   3.721   3.605  13.262 -3.1566 -0.7597 -0.0592
11858TIP3    H256990   3.781   3.503  13.168 -0.6525 -0.6681  1.3400
11859TIP3   OH256991   4.410   1.801   4.258  0.2115  0.2931 -0.4079
11859TIP3    H156992   4.459   1.869   4.210  0.4931  0.9155  0.7239
11859TIP3    H256993   4.335   1.848   4.294 -0.8402 -0.5021 -1.5080
11860TIP3   OH256994   5.573   2.582   3.520 -0.0760  0.2863  0.4103
11860TIP3    H156995   5.553   2.494   3.489  0.7185  0.3903 -0.4545
11860TIP3    H256996   5.523   2.591   3.601  0.1973 -1.1276  0.7637
11861TIP3   OH256997   4.931   0.003   0.173  0.3784  0.4839  0.4279
11861TIP3    H156998   4.976  -0.040   0.101  1.1557  1.9402 -0.0080
11861TIP3    H256999   4.840   0.011   0.144  0.4344 -0.0110  0.1217
11862TIP3   OH257000   0.317   6.372  10.602 -0.2631 -0.4394  0.3088
11862TIP3    H157001   0.321   6.442  10.667  0.8519  0.4468 -0.6789
11862TIP3    H257002   0.248   6.399  10.542 -2.0190 -1.7550  1.6007
11863TIP3   OH257003   2.386   0.767   6.181  0.4015 -0.4060  0.3103
11863TIP3    H157004   2.446   0.821   6.130 -0.4186  0.4589  0.2464
11863TIP3    H257005   2.410   0.677   6.159  0.6276 -0.0554 -0.9287
11864TIP3   OH257006   3.657   3.969  12.028  0.0064 -0.0992  0.4843
11864TIP3    H157007   3.738   3.946  12.074  0.0858 -0.3964  0.2000
11864TIP3    H257008   3.590   3.913  12.068 -0.0220  0.0066  0.5850
11865TIP3   OH257009   6.106   6.427  12.459 -0.0212 -0.0616  0.3158
11865TIP3    H157010   6.017   6.461  12.453 -0.8994 -2.1278  0.8412
11865TIP3    H257011   6.132   6.413  12.368  0.2743  1.6469  0.0946
11866TIP3   OH257012   4.542   3.922   1.973  0.0826 -0.7827  0.3139
11866TIP3    H157013   4.464   3.867   1.982 -0.8942  0.6918  1.2381
11866TIP3    H257014   4.513   3.996   1.919  1.7777 -1.8173 -2.2075
11867TIP3   OH257015   4.763   6.664  14.394  0.1125 -0.1859 -0.6047
11867TIP3    H157016   4.781   6.732  14.459 -0.4840 -0.9083  0.3418
11867TIP3    H257017   4.679   6.690  14.356 -0.0037 -0.2623 -0.4055
11868TIP3   OH257018   4.029   2.846   5.640  0.1067 -0.6337 -0.4262
11868TIP3    H157019   3.982   2.864   5.722 -0.0214 -0.0207 -0.6322
11868TIP3    H257020   4.064   2.931   5.613 -2.4864 -0.1567 -2.6778
11869TIP3   OH257021   1.795   0.622   0.744 -0.0420 -0.4567  0.1443
11869TIP3    H157022   1.744   0.703   0.740  0.6874 -0.0337 -1.4594
11869TIP3    H257023   1.884   0.651   0.765  0.2207 -0.8325 -0.4264
11870TIP3   OH257024   6.203   1.617   4.338 -0.2202 -0.0057  0.3296
11870TIP3    H157025   6.196   1.525   4.363 -0.2505  0.0391  0.4859
11870TIP3    H257026   6.195   1.617   4.243  1.3795 -0.3202  0.1760
11871TIP3   OH257027   2.607   0.231  16.289 -0.6007  0.2233 -0.0120
11871TIP3    H157028   2.633   0.156  16.236 -1.7543  0.5854 -1.1356
11871TIP3    H257029   2.582   0.298  16.226 -2.0976  0.6316  0.9635
11872TIP3   OH257030   1.012   4.072  14.933  0.1586 -0.1877  0.1598
11872TIP3    H157031   0.962   3.994  14.958 -1.9544  1.1528  0.4321
11872TIP3    H257032   0.985   4.140  14.995  1.1705  1.0300 -0.6609
11873TIP3   OH257033   5.133   5.250   5.647  0.3405 -0.4658  0.4826
11873TIP3    H157034   5.221   5.272   5.677 -1.0612  1.4032  3.7411
11873TIP3    H257035   5.083   5.233   5.728 -2.2710 -1.6180 -1.2184
11874TIP3   OH257036   6.271   0.051  11.879 -0.0136  0.1186  0.3754
11874TIP3    H157037   6.342  -0.001  11.843 -0.9145  0.1727 -1.6057
11874TIP3    H257038   6.259   0.123  11.817 -3.3490 -1.2189 -0.7165
11875TIP3   OH257039   3.496   5.125   6.026  0.3077  0.0407 -0.4369
11875TIP3    H157040   3.435   5.090   5.962  1.2167  0.9966 -1.9014
11875TIP3    H257041   3.582   5.095   5.995  0.7547  0.4734  0.3721
11876TIP3   OH257042   2.721   1.490  15.107 -0.1162 -0.0375 -0.2713
11876TIP3    H157043   2.812   1.515  15.117 -0.7962  1.8239  1.7204
11876TIP3    H257044   2.719   1.397  15.132  0.7847  0.6579  2.7319
11877TIP3   OH257045   2.886   6.583   2.270 -0.2263 -0.1244 -0.2813
11877TIP3    H157046   2.862   6.586   2.363 -0.1625  0.8803 -0.2874
11877TIP3    H257047   2.802   6.577   2.224 -0.2480 -0.8890 -0.1662
11878TIP3   OH257048   2.790   2.574   1.324  0.0958  0.5680  0.1160
11878TIP3    H157049   2.789   2.534   1.237  2.1271  1.4922 -0.3850
11878TIP3    H257050   2.760   2.664   1.310  0.0577  0.6070  0.4449
11879TIP3   OH257051   5.841   0.373   4.323 -0.0294  0.2994 -1.1824
11879TIP3    H157052   5.837   0.385   4.229  1.3409  2.4968 -1.0341
11879TIP3    H257053   5.908   0.305   4.336  0.4916  0.6886 -1.7740
11880TIP3   OH257054   4.840   1.914  12.931 -0.0019 -0.4560 -0.5124
11880TIP3    H157055   4.916   1.969  12.912 -0.5572  0.2250 -0.7689
11880TIP3    H257056   4.765   1.971  12.920 -0.4639 -0.3936  2.3130
11881TIP3   OH257057   2.534   6.265   0.622 -0.2972  0.3569  0.0379
11881TIP3    H157058   2.476   6.212   0.676 -0.6209  1.1306  0.4640
11881TIP3    H257059   2.548   6.213   0.543  0.2222 -0.8071  0.8811
11882TIP3   OH257060   2.405   5.211   1.666  0.0210 -0.0911  0.6660
11882TIP3    H157061   2.338   5.218   1.734 -1.2593  0.0311 -0.5769
11882TIP3    H257062   2.377   5.271   1.597  0.4531 -1.3364 -0.6564
11883TIP3   OH257063   6.077   3.989  16.142  0.2501  0.2851  0.1904
11883TIP3    H157064   5.982   3.977  16.154  0.4314  0.6530  2.4404
11883TIP3    H257065   6.115   3.960  16.225  2.3548 -2.0196 -1.4803
11884TIP3   OH257066   4.901   5.187   2.770  0.1191  0.1032 -0.0327
11884TIP3    H157067   4.845   5.264   2.764 -0.4806 -0.3764 -0.8201
11884TIP3    H257068   4.896   5.147   2.683  0.3932 -0.8329  0.3643
11885TIP3   OH257069   3.432   6.036   3.777  0.3267 -0.1476  0.1550
11885TIP3    H157070   3.460   6.003   3.863  0.7962 -0.8487 -0.2523
11885TIP3    H257071   3.355   6.090   3.796  2.0116  1.9829  1.3299
11886TIP3   OH257072   2.687   5.916  11.650  0.3768 -0.2501  0.5984
11886TIP3    H157073   2.674   5.894  11.558 -0.7728 -1.8825  1.0899
11886TIP3    H257074   2.778   5.946  11.656  0.8004 -1.1570 -0.8890
11887TIP3   OH257075   3.039   2.367  16.240  0.0358  0.1686 -0.4552
11887TIP3    H157076   3.064   2.276  16.259  0.2081  0.1746 -0.6483
11887TIP3    H257077   3.012   2.365  16.148  2.6468  0.8293 -1.3463
11888TIP3   OH257078   3.431   5.105  10.851 -0.3448  0.4954  0.0428
11888TIP3    H157079   3.345   5.104  10.811  0.2079  0.4395 -1.1820
11888TIP3    H257080   3.483   5.042  10.801  0.6869  1.2700  0.0939
11889TIP3   OH257081   1.180   5.692  17.058  0.8646  0.4961 -0.4033
11889TIP3    H157082   1.185   5.712  16.965  0.6697  1.5873 -0.1969
11889TIP3    H257083   1.180   5.778  17.101  0.4338  0.0280  0.5727
11890TIP3   OH257084   3.250   0.979  14.733  0.0107  0.1159  0.2667
11890TIP3    H157085   3.189   0.906  14.722  0.1975 -0.0462  0.2963
11890TIP3    H257086   3.223   1.044  14.668  1.3431 -0.9832 -1.4581
11891TIP3   OH257087   1.289   0.264   2.161  0.2504  0.4993  0.0944
11891TIP3    H157088   1.345   0.243   2.236 -0.1131  0.2598  0.3047
11891TIP3    H257089   1.340   0.325   2.109  0.6099  0.4712  0.4092
11892TIP3   OH257090   2.151   0.997   5.561 -0.2829  0.5516  0.6109
11892TIP3    H157091   2.056   1.007   5.556 -0.1839  1.8385  0.9620
11892TIP3    H257092   2.185   1.062   5.500  0.3754 -0.2310  0.1286
11893TIP3   OH257093   1.628   1.230  13.955 -0.4753  0.1152  0.0246
11893TIP3    H157094   1.650   1.211  14.047 -1.9792 -2.8098 -0.1081
11893TIP3    H257095   1.665   1.157  13.906 -1.2325  0.7095 -1.4869
11894TIP3   OH257096   6.449   6.681   3.491 -0.3153 -0.2420 -0.3142
11894TIP3    H157097   6.536   6.714   3.467  0.6457 -0.0779  2.9004
11894TIP3    H257098   6.420   6.740   3.560 -2.5571 -0.9449 -0.5966
11895TIP3   OH257099   3.987   0.198   6.525 -0.0698  0.0964  0.1395
11895TIP3    H157100   4.067   0.161   6.489  0.4249  0.1190  1.1818
11895TIP3    H257101   4.009   0.289   6.545 -0.1289 -0.0842  1.0746
11896TIP3   OH257102   4.690   6.267  13.109 -0.3195 -0.7526 -0.1919
11896TIP3    H157103   4.626   6.336  13.125  0.2639  0.1016 -1.4338
11896TIP3    H257104   4.725   6.286  13.022  0.6553 -1.9760 -0.0929
11897TIP3   OH257105   5.518   6.031  14.732  0.4527 -0.5776 -0.2966
11897TIP3    H157106   5.433   6.016  14.691  0.1325  0.6937 -0.1358
11897TIP3    H257107   5.566   5.950  14.717 -0.7765 -1.3200 -0.3991
11898TIP3   OH257108   2.854   5.776   5.225 -0.2892 -0.1623  0.1183
11898TIP3    H157109   2.759   5.771   5.212 -0.8502  0.2329  3.2788
11898TIP3    H257110   2.868   5.862   5.265  0.7573 -1.7011  3.4036
11899TIP3   OH257111   5.788   5.408   2.624  0.1343 -0.0703  0.4749
11899TIP3    H157112   5.708   5.363   2.597 -1.0857 -0.0151  3.5406
11899TIP3    H257113   5.837   5.341   2.673  1.8358  0.0079 -1.0470
11900TIP3   OH257114   4.000   4.031  16.065  0.4127  0.2715  0.1296
11900TIP3    H157115   3.958   4.093  16.125  1.0810  1.3044 -0.4349
11900TIP3    H257116   3.942   3.955  16.064 -0.5879  1.0112  0.6081
11901TIP3   OH257117   3.877   4.011  10.852 -0.4594  0.3759  0.1050
11901TIP3    H157118   3.962   3.970  10.871 -0.5390 -0.4586 -1.1803
11901TIP3    H257119   3.898   4.104  10.841 -0.3753  0.9105  3.6988
11902TIP3   OH257120   5.695   3.055  13.175 -0.5905 -0.0087 -0.3137
11902TIP3    H157121   5.628   2.990  13.156 -0.5399  0.0703 -0.7880
11902TIP3    H257122   5.647   3.136  13.192 -0.6278 -0.0164 -0.3818
11903TIP3   OH257123   1.183   0.982   1.163  0.1045  0.0621  0.0088
11903TIP3    H157124   1.152   1.072   1.172 -2.7439 -0.9630  2.0705
11903TIP3    H257125   1.139   0.948   1.086  2.3863  0.7631 -1.7085
11904TIP3   OH257126   5.672   3.687  10.661 -0.0334 -0.4375  0.4016
11904TIP3    H157127   5.728   3.679  10.738  0.5629  2.1825  0.3372
11904TIP3    H257128   5.584   3.668  10.693 -0.1365  2.6374  2.3432
11905TIP3   OH257129   0.920   0.669   3.103  0.0985  0.0886 -0.9858
11905TIP3    H157130   0.836   0.622   3.094 -0.5372  0.7911  0.8596
11905TIP3    H257131   0.982   0.601   3.131 -0.5917  0.0978  0.6956
11906TIP3   OH257132   2.740   6.423   1.649 -0.1207 -0.1740  0.2775
11906TIP3    H157133   2.733   6.362   1.723 -1.2955 -0.4201 -0.0142
11906TIP3    H257134   2.660   6.475   1.654  0.4581  0.7577 -0.0085
11907TIP3   OH257135   2.852   1.815  14.986  0.5925 -0.4235 -0.5314
11907TIP3    H157136   2.917   1.877  15.019 -0.5696  0.2501  0.5409
11907TIP3    H257137   2.811   1.779  15.064  0.2779 -1.5188 -1.1802
11908TIP3   OH257138   4.313   6.062  14.831 -0.0612 -0.1491  0.3018
11908TIP3    H157139   4.283   6.037  14.918  0.8536  0.2851  0.7590
11908TIP3    H257140   4.240   6.041  14.773 -1.6139  1.6498  1.4757
11909TIP3   OH257141   2.586   1.368   2.094 -0.3222  0.3385 -0.6806
11909TIP3    H157142   2.508   1.314   2.085 -0.2837  0.4044 -1.4525
11909TIP3    H257143   2.651   1.327   2.037  0.6300 -0.4473  0.8995
11910TIP3   OH257144   5.912   4.195   4.567  0.0050 -0.1531  0.0889
11910TIP3    H157145   5.931   4.105   4.542  0.5519 -0.3136  1.0434
11910TIP3    H257146   5.937   4.247   4.490 -0.5277 -0.8227 -0.5493
11911TIP3   OH257147   0.038   6.066   5.045 -0.2307  0.4578  0.3487
11911TIP3    H157148   0.116   6.107   5.081  0.4335 -1.0605  0.7352
11911TIP3    H257149   0.003   6.014   5.117  0.4464 -1.6708 -0.7703
11912TIP3   OH257150   0.307   6.459  12.238  0.6226  0.0583 -0.3400
11912TIP3    H157151   0.235   6.484  12.296  1.2991 -0.7873  0.9109
11912TIP3    H257152   0.313   6.530  12.175 -1.5323 -0.0160 -0.7072
11913TIP3   OH257153   0.376   0.566  13.156 -0.1378  0.3942 -0.4872
11913TIP3    H157154   0.451   0.521  13.118 -1.0499 -1.3612 -0.2984
11913TIP3    H257155   0.369   0.647  13.106 -0.1531 -0.9636 -2.7968
11914TIP3   OH257156   0.380   4.707   0.122 -0.1771 -0.1805  0.3311
11914TIP3    H157157   0.297   4.658   0.125  0.1678 -0.7727  0.3422
11914TIP3    H257158   0.397   4.730   0.213  0.8136 -2.0269  0.6520
11915TIP3   OH257159   6.263   1.347  14.246 -0.4602 -0.3113  0.2853
11915TIP3    H157160   6.286   1.331  14.154 -0.6835 -3.9891  0.7177
11915TIP3    H257161   6.346   1.367  14.289  0.1203 -1.4717 -0.2592
11916TIP3   OH257162   5.849   6.403  12.312  0.3257 -0.2358 -0.1625
11916TIP3    H157163   5.900   6.349  12.252  0.6437  1.4880 -1.5401
11916TIP3    H257164   5.760   6.372  12.303  0.5625 -0.8004 -0.6119
11917TIP3   OH257165   5.241   6.025   0.473 -0.0484  0.5248  0.4109
11917TIP3    H157166   5.307   6.070   0.525  2.4708 -1.1563 -1.0768
11917TIP3    H257167   5.240   6.073   0.390  1.3680 -1.0058 -0.5432
11918TIP3   OH257168   1.127   5.084   6.604  0.0559  0.4827 -0.0366
11918TIP3    H157169   1.198   5.080   6.540  0.3960 -1.8965  0.3908
11918TIP3    H257170   1.134   5.002   6.653 -2.2995  0.6877  0.7879
11919TIP3   OH257171   2.405   3.297   5.020  0.2771 -0.5485 -0.3521
11919TIP3    H157172   2.333   3.289   4.957 -0.5917  0.1350  0.5362
11919TIP3    H257173   2.419   3.391   5.029  0.6445 -0.6494  0.1990
11920TIP3   OH257174   0.751   4.407  12.467  0.0047 -0.6423  0.4606
11920TIP3    H157175   0.739   4.485  12.522 -0.6650 -0.0032 -0.5397
11920TIP3    H257176   0.716   4.335  12.519  1.4385 -0.4479  1.7690
11921TIP3   OH257177   6.107   4.677   2.564 -0.4096 -0.6539  0.3027
11921TIP3    H157178   6.130   4.635   2.481 -0.7745  0.5645 -0.4350
11921TIP3    H257179   6.110   4.606   2.628 -0.9962 -1.7969 -0.8965
11922TIP3   OH257180   1.133   5.943   3.726  0.5074 -0.1106 -0.1628
11922TIP3    H157181   1.065   5.895   3.680 -0.2212  1.1296 -0.4411
11922TIP3    H257182   1.195   5.969   3.658  1.8827 -2.1464  0.2323
11923TIP3   OH257183   6.342   6.741  14.901 -0.1433 -0.2913 -0.0703
11923TIP3    H157184   6.277   6.678  14.868  0.2755 -1.5301  1.3317
11923TIP3    H257185   6.374   6.785  14.823 -0.8979 -1.4065 -1.0570
11924TIP3   OH257186   4.671   4.167  12.960 -0.2207  0.4224 -0.1389
11924TIP3    H157187   4.765   4.156  12.942 -0.0784  1.8789 -0.4293
11924TIP3    H257188   4.639   4.078  12.973  1.1871 -0.1159 -0.1086
11925TIP3   OH257189   2.928   3.722   2.997  0.1821  0.1015  0.4455
11925TIP3    H157190   2.961   3.665   3.067 -0.7122  0.9365  1.5760
11925TIP3    H257191   2.837   3.695   2.985 -0.3912  1.5847  1.3181
11926TIP3   OH257192   2.121   1.988  14.744  0.4633  0.5246 -0.6493
11926TIP3    H157193   2.075   2.050  14.800 -0.2877 -0.7376  0.1932
11926TIP3    H257194   2.191   2.039  14.704  0.9649  1.5147  1.3414
11927TIP3   OH257195   4.648   6.092  12.151 -0.0123 -0.1814  0.2246
11927TIP3    H157196   4.563   6.130  12.127 -0.6060 -0.5309  1.6727
11927TIP3    H257197   4.712   6.154  12.117 -0.9270  1.6555  1.6785
11928TIP3   OH257198   6.348   4.401  10.880  0.3070  0.2255 -0.4846
11928TIP3    H157199   6.313   4.314  10.863  0.6897  0.1901 -1.1140
11928TIP3    H257200   6.368   4.401  10.974 -3.0175  0.8455  0.3648
11929TIP3   OH257201   2.317   4.259  14.951  0.4371  0.5732  0.3040
11929TIP3    H157202   2.411   4.269  14.937  0.2049  2.8980 -0.0189
11929TIP3    H257203   2.292   4.186  14.894  2.2095 -0.9837  1.4090
11930TIP3   OH257204   5.230   0.783   5.434 -0.0969  0.4173 -0.1042
11930TIP3    H157205   5.195   0.753   5.518  0.5251 -2.0394 -0.6461
11930TIP3    H257206   5.161   0.761   5.370 -0.5488  2.2241 -0.3048
11931TIP3   OH257207   5.018   3.024  14.199  0.0532  0.0934 -0.1419
11931TIP3    H157208   5.089   3.042  14.137 -1.5874  0.1963 -2.1065
11931TIP3    H257209   5.054   2.957  14.257  2.2859  1.3041 -0.0293
11932TIP3   OH257210   2.247   5.278  15.544  0.0856  0.0451  0.3608
11932TIP3    H157211   2.330   5.289  15.588  0.1295  0.2641  0.2218
11932TIP3    H257212   2.241   5.183  15.527 -0.2692 -0.1504  1.4843
11933TIP3   OH257213   4.192   4.972  13.014  0.4598 -0.0637  0.2919
11933TIP3    H157214   4.138   5.039  13.058  0.9915 -0.0174  0.8855
11933TIP3    H257215   4.170   4.981  12.921  1.1921  1.5880  0.2327
11934TIP3   OH257216   6.772   2.346   1.585  0.1293 -0.0911  0.4027
11934TIP3    H157217   6.733   2.335   1.499 -0.1083 -0.0140  0.4992
11934TIP3    H257218   6.826   2.268   1.598 -0.7089 -0.6437  0.6452
11935TIP3   OH257219   2.781   6.343   3.724 -0.0659 -0.0498 -0.0641
11935TIP3    H157220   2.832   6.272   3.762  2.0419  1.6185  0.3988
11935TIP3    H257221   2.819   6.357   3.637  1.1363  1.9157  0.6906
11936TIP3   OH257222   1.950   6.018  16.241 -0.3555 -0.8287 -0.3360
11936TIP3    H157223   1.957   5.984  16.330 -1.6546  1.1563  0.6009
11936TIP3    H257224   2.041   6.020  16.210  0.0072 -2.6293  0.4814
11937TIP3   OH257225   0.740   4.378  14.778  0.1572  0.0912  0.1992
11937TIP3    H157226   0.753   4.336  14.864 -0.7280 -1.8843 -0.5581
11937TIP3    H257227   0.741   4.305  14.716 -0.0377  1.3941 -1.4002
11938TIP3   OH257228   3.062   6.269   6.416 -0.6978  0.0695  0.1146
11938TIP3    H157229   3.101   6.184   6.438 -1.5616 -0.1286  0.9654
11938TIP3    H257230   3.130   6.313   6.365 -0.2017 -1.0942 -0.2869
11939TIP3   OH257231   6.225   2.611   3.852 -0.0019  0.1583  0.3819
11939TIP3    H157232   6.319   2.614   3.868  0.5050 -3.6027 -0.7985
11939TIP3    H257233   6.208   2.686   3.794  1.9329  1.7111  1.6895
11940TIP3   OH257234   4.837   4.206  14.794 -0.5455 -0.0012  0.6804
11940TIP3    H157235   4.793   4.226  14.877  0.0406  1.5686  0.6481
11940TIP3    H257236   4.773   4.233  14.728 -0.8196 -0.8011  0.6115
11941TIP3   OH257237   5.336   3.930  11.520  0.0398  0.0350 -0.1841
11941TIP3    H157238   5.323   3.992  11.448 -0.8344  0.4371  0.3031
11941TIP3    H257239   5.288   3.851  11.492  0.4504 -0.1290 -0.4325
11942TIP3   OH257240   2.680   5.735   4.600  0.5323 -0.3105  0.2771
11942TIP3    H157241   2.688   5.831   4.600  0.3012 -0.2227  2.8754
11942TIP3    H257242   2.769   5.703   4.588  0.5197  0.1892 -1.3521
11943TIP3   OH257243   5.116   0.101  15.227  0.3105 -0.0878  0.0387
11943TIP3    H157244   5.061   0.040  15.178  0.2373 -0.1966  0.2557
11943TIP3    H257245   5.158   0.154  15.160  3.7904 -3.1638 -0.5103
11944TIP3   OH257246   0.827   4.598  16.482  0.0278 -0.3363  0.2363
11944TIP3    H157247   0.768   4.641  16.419 -0.9542 -0.3678  1.1044
11944TIP3    H257248   0.837   4.509  16.449 -1.5153 -0.7376  0.7778
11945TIP3   OH257249   2.797   2.994   5.942 -0.0772 -0.3392 -0.0618
11945TIP3    H157250   2.844   3.060   5.993  1.9839 -0.9919 -1.0201
11945TIP3    H257251   2.833   3.001   5.854 -1.8004 -0.9086 -0.8710
11946TIP3   OH257252   0.541   1.969   5.269 -0.1088 -0.1533  0.9523
11946TIP3    H157253   0.554   1.879   5.242  2.5065  0.1577  0.9186
11946TIP3    H257254   0.519   1.963   5.362  2.4401 -0.7901  1.5755
11947TIP3   OH257255   0.524   1.669  14.373  0.0051 -0.0406  0.3384
11947TIP3    H157256   0.577   1.592  14.353  0.6059  0.0070  1.6409
11947TIP3    H257257   0.507   1.709  14.288  2.5943  0.2969 -0.0904
11948TIP3   OH257258   6.274   1.499   6.616  0.3840  0.0458  0.4254
11948TIP3    H157259   6.192   1.461   6.585  0.5697  0.2358 -0.3051
11948TIP3    H257260   6.270   1.490   6.711  0.3156 -1.5804  0.3015
11949TIP3   OH257261   5.109   6.508   3.724 -0.2335  0.5470  0.2373
11949TIP3    H157262   5.087   6.436   3.664  0.5406  0.6798 -0.2136
11949TIP3    H257263   5.059   6.488   3.803 -1.1027  0.2496 -0.3589
11950TIP3   OH257264   2.389   0.619  14.162 -0.2669 -0.7182 -0.1941
11950TIP3    H157265   2.429   0.611  14.249  0.6841 -2.5397 -0.7563
11950TIP3    H257266   2.381   0.714  14.149 -0.0189 -0.3941  1.6844
11951TIP3   OH257267   5.978   2.111   2.529  0.0473 -0.0113  0.1191
11951TIP3    H157268   5.938   2.198   2.532  0.9205  0.3914  0.5843
11951TIP3    H257269   5.908   2.052   2.557 -0.9753  0.3513 -1.5167
11952TIP3   OH257270   4.819   5.324  14.950 -0.0600 -0.0659 -0.5560
11952TIP3    H157271   4.745   5.265  14.933  0.4385 -0.8731  0.0040
11952TIP3    H257272   4.817   5.386  14.877 -1.3956  0.0420 -0.4511
11953TIP3   OH257273   5.294   3.185   0.575 -0.2920  0.3705 -0.2654
11953TIP3    H157274   5.272   3.256   0.636  0.8640  0.9798 -0.5196
11953TIP3    H257275   5.384   3.161   0.598  0.8122  1.7640 -2.7616
11954TIP3   OH257276   6.214   2.915   2.820 -0.2451 -0.5865  0.5005
11954TIP3    H157277   6.149   2.865   2.771 -0.1865  1.3384 -1.7145
11954TIP3    H257278   6.296   2.867   2.806 -0.3986 -0.5555 -0.5456
11955TIP3   OH257279   3.504   4.370   1.529  0.0702  0.1799 -0.7146
11955TIP3    H157280   3.486   4.283   1.566  1.9673 -0.2054 -0.6194
11955TIP3    H257281   3.425   4.391   1.479 -0.6207 -1.3865 -0.3452
11956TIP3   OH257282   0.523   4.471   4.450  0.1943  0.3781  0.3697
11956TIP3    H157283   0.563   4.553   4.476  0.1704  1.2493 -2.0701
11956TIP3    H257284   0.594   4.420   4.410  0.2114 -0.8482  1.8460
11957TIP3   OH257285   5.855   1.169   2.551 -1.0449  0.1063 -0.2513
11957TIP3    H157286   5.901   1.121   2.483  2.6069 -0.3604  2.2766
11957TIP3    H257287   5.860   1.260   2.524 -0.1745 -0.1262 -0.9053
11958TIP3   OH257288   1.875   3.939  11.472  0.4185 -0.3582  0.5106
11958TIP3    H157289   1.954   3.992  11.483  0.8884 -1.0220  0.4194
11958TIP3    H257290   1.827   3.951  11.554  0.5657  0.1162  0.5346
11959TIP3   OH257291   0.298   0.444  13.791 -0.7360  0.1404 -0.2335
11959TIP3    H157292   0.329   0.531  13.767 -1.7199  0.8310  0.9004
11959TIP3    H257293   0.261   0.455  13.879 -3.1032 -0.8858 -1.0370
11960TIP3   OH257294   1.336   4.633   5.133  0.4449  0.3087 -0.6038
11960TIP3    H157295   1.376   4.648   5.219  0.1536 -2.9115  0.2251
11960TIP3    H257296   1.410   4.607   5.077  0.1835 -1.1002 -0.3212
11961TIP3   OH257297   0.126   6.575   4.363 -0.2929 -0.1300  0.0641
11961TIP3    H157298   0.187   6.644   4.388  0.8075 -1.2134  0.4779
11961TIP3    H257299   0.160   6.543   4.279  0.4532 -1.5441  0.8657
11962TIP3   OH257300   1.860   2.526   0.067 -0.1189 -0.2725  0.2459
11962TIP3    H157301   1.863   2.444   0.117 -1.7593 -1.6621 -1.7387
11962TIP3    H257302   1.938   2.523   0.012 -0.2250 -0.5695  0.1092
11963TIP3   OH257303   4.957   4.247  15.175 -0.2654  0.5341  0.6293
11963TIP3    H157304   5.014   4.321  15.197  1.4053 -0.5485  0.1100
11963TIP3    H257305   4.872   4.288  15.156  1.0597  2.5889 -1.5074
11964TIP3   OH257306   0.331   0.404  14.084  0.1949  0.3956 -0.4718
11964TIP3    H157307   0.367   0.492  14.074  1.0347  0.0642 -0.4633
11964TIP3    H257308   0.283   0.406  14.167 -0.9492  1.2156 -1.1244
11965TIP3   OH257309   3.087   1.183   4.772 -0.3938  0.3304 -0.3504
11965TIP3    H157310   3.160   1.122   4.777  1.0337  1.9653 -0.4202
11965TIP3    H257311   3.123   1.266   4.802 -1.7690  1.5893 -2.0226
11966TIP3   OH257312   4.815   6.576  12.563  0.1556 -0.7536  0.1577
11966TIP3    H157313   4.743   6.516  12.545 -0.7180  0.8657 -2.1662
11966TIP3    H257314   4.786   6.624  12.641 -1.5114  0.1035 -0.9257
11967TIP3   OH257315   3.350   6.034   1.087 -0.5039  0.2688  0.0329
11967TIP3    H157316   3.298   6.109   1.115  2.1471  2.8915 -1.5133
11967TIP3    H257317   3.440   6.065   1.090  0.5599 -2.0173 -3.0669
11968TIP3   OH257318   4.681   2.335  10.719  0.0577 -0.3358  0.3250
11968TIP3    H157319   4.760   2.387  10.732 -1.2776  1.6522  1.1335
11968TIP3    H257320   4.665   2.338  10.624 -0.9495  2.3950  0.4980
11969TIP3   OH257321   1.919   0.895   4.079  0.2955  0.1036 -0.0099
11969TIP3    H157322   1.857   0.968   4.074 -0.1786 -0.2811  0.2150
11969TIP3    H257323   1.975   0.917   4.153 -1.7991 -1.2354  2.1430
11970TIP3   OH257324   6.099   2.266   2.334 -0.3750  0.0550  0.1942
11970TIP3    H157325   6.083   2.193   2.394  0.3808  0.1617  0.5320
11970TIP3    H257326   6.015   2.280   2.290 -0.2235 -1.8863 -0.8409
11971TIP3   OH257327   4.687   0.505   5.247 -0.0564 -0.0337 -0.3380
11971TIP3    H157328   4.630   0.479   5.175  0.5731 -0.4773 -0.6832
11971TIP3    H257329   4.719   0.422   5.284  0.0453  0.2008  0.1113
11972TIP3   OH257330   3.691   4.064  12.781  0.2131 -0.1070  0.2675
11972TIP3    H157331   3.728   3.984  12.817 -0.1398 -0.4415 -0.1105
11972TIP3    H257332   3.724   4.133  12.839  0.9275 -0.4609  0.2967
11973TIP3   OH257333   5.676   1.526  15.145  0.2222  0.4327  0.0254
11973TIP3    H157334   5.585   1.544  15.168 -0.0225 -0.3304 -0.3252
11973TIP3    H257335   5.673   1.495  15.055  0.7755 -0.0657  0.1689
11974TIP3   OH257336   4.033   1.235  10.571  0.0265  0.0832 -0.3731
11974TIP3    H157337   4.099   1.269  10.631 -1.2067 -0.8895  1.6708
11974TIP3    H257338   3.954   1.228  10.624 -1.0766 -1.1361 -2.0545
11975TIP3   OH257339   2.572   2.275   3.506 -0.0306 -0.4822 -0.4706
11975TIP3    H157340   2.494   2.237   3.546 -0.4235 -0.8745 -1.5988
11975TIP3    H257341   2.561   2.262   3.412  1.5241 -0.8061 -0.6386
11976TIP3   OH257342   1.457   5.256   3.890 -0.4868 -0.2204  0.2471
11976TIP3    H157343   1.395   5.215   3.949 -0.2316 -1.4731 -0.3258
11976TIP3    H257344   1.427   5.347   3.883 -1.0609 -0.2938  1.5407
11977TIP3   OH257345   6.366   5.477   5.373  0.0723  0.0517 -0.1039
11977TIP3    H157346   6.281   5.440   5.348 -0.0722 -0.4593  1.0585
11977TIP3    H257347   6.373   5.558   5.323 -0.2051 -0.8920 -1.7224
11978TIP3   OH257348   3.645   2.764  15.242  0.6178  0.0052  0.3275
11978TIP3    H157349   3.654   2.737  15.151 -1.0834 -1.6477  0.5879
11978TIP3    H257350   3.575   2.829  15.242  0.2303 -0.4059  0.5067
11979TIP3   OH257351   0.695   6.678  13.100 -0.7646  0.2704  0.5313
11979TIP3    H157352   0.609   6.647  13.129  0.3601 -1.6831  2.0328
11979TIP3    H257353   0.743   6.598  13.078  0.6699  1.3233 -0.2982
11980TIP3   OH257354   1.800   4.268   0.551 -0.4290 -0.8525  0.1744
11980TIP3    H157355   1.781   4.224   0.467 -0.8723 -0.1484 -0.1007
11980TIP3    H257356   1.791   4.361   0.532  1.7228 -0.5248  0.4285
11981TIP3   OH257357   3.809   4.547  13.313  0.0909 -0.2938  0.1055
11981TIP3    H157358   3.777   4.465  13.350 -1.3896  0.5705  0.8130
11981TIP3    H257359   3.874   4.578  13.377 -0.0272 -0.4650  0.3099
11982TIP3   OH257360   4.820   2.998   5.377  0.3803 -0.1140 -0.2362
11982TIP3    H157361   4.839   2.985   5.284  0.1296  2.7195 -0.7753
11982TIP3    H257362   4.900   3.036   5.413 -1.1223  3.9667 -0.6571
11983TIP3   OH257363   5.530   6.009  12.809 -0.4695 -0.3298 -0.2535
11983TIP3    H157364   5.483   6.012  12.726  0.1551  0.6770 -0.5893
11983TIP3    H257365   5.622   6.022  12.785 -0.2808 -0.0551  0.5875
11984TIP3   OH257366   4.273   0.311  16.366  0.3674 -0.0116 -0.3455
11984TIP3    H157367   4.305   0.396  16.335  1.2181 -0.6472 -1.2630
11984TIP3    H257368   4.288   0.252  16.292  3.0049 -1.7381  1.4222
11985TIP3   OH257369   3.053   0.996   2.103 -0.3840 -0.4397 -0.5799
11985TIP3    H157370   3.081   0.914   2.064 -0.8340 -0.7054 -0.3478
11985TIP3    H257371   2.963   0.981   2.131 -0.3422  0.0042 -0.1778
11986TIP3   OH257372   0.100   6.101  12.501  0.1027 -0.4761 -0.0759
11986TIP3    H157373   0.150   6.091  12.582 -1.3331 -1.6790  0.7213
11986TIP3    H257374   0.103   6.014  12.461 -0.1920 -0.1922 -0.7222
11987TIP3   OH257375   1.894   1.227   6.291  0.4630  0.3253 -0.2309
11987TIP3    H157376   1.904   1.311   6.336  0.1391  0.8584 -1.1159
11987TIP3    H257377   1.800   1.219   6.276  0.4697 -0.3101  0.0458
11988TIP3   OH257378   2.518   4.821   2.520  0.3709  0.5159 -0.1999
11988TIP3    H157379   2.470   4.741   2.539  1.2349 -0.0049 -0.1320
11988TIP3    H257380   2.481   4.853   2.438  0.6857 -0.5037 -0.7548
11989TIP3   OH257381   1.143   2.761  16.700 -0.6376 -0.7816  0.5190
11989TIP3    H157382   1.181   2.751  16.613 -3.8094 -0.4621 -1.0653
11989TIP3    H257383   1.218   2.768  16.759  1.6866  0.5615 -2.3415
11990TIP3   OH257384   2.164   5.601  16.840 -0.3084 -0.0846 -0.2208
11990TIP3    H157385   2.075   5.568  16.852  0.2761 -1.5677  0.2510
11990TIP3    H257386   2.186   5.581  16.749 -0.1629 -0.4684 -0.1015
11991TIP3   OH257387   3.042   3.938   5.878 -0.4679 -0.2477 -0.0332
11991TIP3    H157388   2.992   3.978   5.806  0.0418  2.0450  0.8167
11991TIP3    H257389   3.128   3.980   5.874 -0.6530  0.4819  2.3321
11992TIP3   OH257390   6.635   4.686  12.722  0.1879  0.1665 -0.0507
11992TIP3    H157391   6.684   4.613  12.686 -0.9762  0.5249 -2.5313
11992TIP3    H257392   6.693   4.722  12.790  2.2704 -0.9082 -1.1579
11993TIP3   OH257393   0.271   6.554  11.831  0.1731 -0.5372  0.1171
11993TIP3    H157394   0.184   6.514  11.830  0.4003 -1.1159  1.3996
11993TIP3    H257395   0.288   6.575  11.739 -1.4614 -0.0685 -0.1168
11994TIP3   OH257396   4.595   2.178   4.824 -0.1471  0.8877  0.1881
11994TIP3    H157397   4.648   2.258   4.830  2.5664 -0.7482 -0.6830
11994TIP3    H257398   4.652   2.109   4.857 -0.7078 -1.3790 -3.1555
11995TIP3   OH257399   5.673   4.361  16.415  0.1271  0.4085  0.0339
11995TIP3    H157400   5.656   4.380  16.507 -0.0003  2.0230 -0.3041
11995TIP3    H257401   5.767   4.376  16.404  0.5027 -1.5379  0.2810
11996TIP3   OH257402   4.478   3.663  13.374  0.0443  0.1663 -0.6367
11996TIP3    H157403   4.491   3.666  13.468  0.8628  1.0100 -0.7678
11996TIP3    H257404   4.438   3.577  13.358 -0.3131  0.1093  0.4894
11997TIP3   OH257405   3.720   2.048   5.061  0.3231  0.2308 -0.3190
11997TIP3    H157406   3.665   1.986   5.109  0.0968 -1.0232 -2.0805
11997TIP3    H257407   3.785   2.077   5.125 -0.8503 -0.1921  1.1233
11998TIP3   OH257408   5.366   6.209  12.907  0.1831  0.1458  0.2187
11998TIP3    H157409   5.423   6.143  12.868  0.9445  0.3120  1.0069
11998TIP3    H257410   5.426   6.277  12.937 -0.6434  1.7557 -1.5728
11999TIP3   OH257411   2.626   1.469  13.335  0.6555 -0.0274  0.2427
11999TIP3    H157412   2.667   1.549  13.300  1.1456  0.6234  2.2045
11999TIP3    H257413   2.616   1.486  13.428  0.6911 -2.2450  0.6978
12000TIP3   OH257414   3.589   1.223  12.109  0.4136 -0.2477 -0.2416
12000TIP3    H157415   3.665   1.279  12.125  0.9554 -0.4342 -1.9813
12000TIP3    H257416   3.602   1.148  12.168  1.0383  0.2013  0.2115
12001TIP3   OH257417   0.311   1.642   3.577 -0.2005  0.0232 -0.1920
12001TIP3    H157418   0.326   1.563   3.524 -0.0381  0.2020 -0.4171
12001TIP3    H257419   0.389   1.695   3.562  0.3683 -0.4012  1.0970
12002TIP3   OH257420   6.756   1.412   2.780 -0.3215 -0.4043 -0.2886
12002TIP3    H157421   6.747   1.462   2.861  0.5612 -0.6001 -0.0604
12002TIP3    H257422   6.839   1.365   2.790 -1.6780 -2.8754  0.0308
12003TIP3   OH257423   5.674   4.490  11.783 -0.0976 -0.1277  0.6511
12003TIP3    H157424   5.769   4.495  11.778 -0.2004  1.0500 -1.1417
12003TIP3    H257425   5.651   4.409  11.736 -0.0178  0.1949  0.0432
12004TIP3   OH257426   3.541   2.136  15.718  0.0441 -0.1875 -0.2298
12004TIP3    H157427   3.465   2.123  15.661  0.8920  0.7237 -1.6075
12004TIP3    H257428   3.525   2.076  15.791 -0.6520 -2.0716 -1.8268
12005TIP3   OH257429   5.001   5.047   1.149  0.8419 -0.1933 -0.0077
12005TIP3    H157430   5.018   5.085   1.235  1.2303  3.6015 -1.5914
12005TIP3    H257431   4.908   5.066   1.133  0.9144 -0.3824 -0.6686
12006TIP3   OH257432   6.633   2.058  15.289  0.6895  0.9523 -0.5479
12006TIP3    H157433   6.600   1.969  15.308  0.8292  1.0338  0.1139
12006TIP3    H257434   6.728   2.050  15.296  0.8236  0.7977 -2.1185
12007TIP3   OH257435   0.787   6.471   5.701  0.0621  0.4849 -0.5054
12007TIP3    H157436   0.820   6.420   5.775 -1.0835  0.0111 -0.2996
12007TIP3    H257437   0.773   6.559   5.737 -0.2558  0.3183 -0.2158
12008TIP3   OH257438   0.090   3.145   4.918  0.4535  0.2555 -0.3960
12008TIP3    H157439   0.058   3.095   4.993  3.1335  0.3261  0.8986
12008TIP3    H257440   0.184   3.132   4.919  0.8026  2.1008 -2.4420
12009TIP3   OH257441   2.750   5.666   3.194  0.3056 -0.3385  0.9071
12009TIP3    H157442   2.680   5.613   3.232  0.6722 -1.1481  0.4985
12009TIP3    H257443   2.739   5.752   3.232 -0.7994 -0.5003  0.9935
12010TIP3   OH257444   0.928   6.067   3.422 -0.1821 -0.4760  0.2730
12010TIP3    H157445   0.999   6.058   3.358  0.4497 -1.1406  1.0433
12010TIP3    H257446   0.941   6.154   3.459 -0.5341 -0.0984 -0.4719
12011TIP3   OH257447   6.101   6.585  15.899 -0.1529 -0.4323 -0.2467
12011TIP3    H157448   6.190   6.579  15.933 -0.3174  1.7940  0.7175
12011TIP3    H257449   6.091   6.676  15.872 -2.7131 -0.1517  1.3330
12012TIP3   OH257450   3.594   5.539  14.637  0.3425 -0.2809  0.1224
12012TIP3    H157451   3.510   5.583  14.651 -0.5002 -1.8672  0.3511
12012TIP3    H257452   3.570   5.448  14.618  1.9921 -0.6123 -0.5056
12013TIP3   OH257453   2.490   3.100  13.558  0.8406 -0.8317  0.3916
12013TIP3    H157454   2.409   3.064  13.523  0.6841 -0.1591  0.0433
12013TIP3    H257455   2.505   3.180  13.508  0.4276  0.3483  2.0773
12014TIP3   OH257456   0.610   5.622  14.667  0.5534 -0.6221  0.4522
12014TIP3    H157457   0.529   5.581  14.637 -0.3395  0.0845  1.7731
12014TIP3    H257458   0.669   5.617  14.592 -1.8247  1.9358 -1.8339
12015TIP3   OH257459   1.621   3.654   2.821 -0.0757  0.8183 -0.1008
12015TIP3    H157460   1.611   3.581   2.760  0.0475  1.8429 -1.3877
12015TIP3    H257461   1.534   3.693   2.828  0.1649  1.4711 -0.6316
12016TIP3   OH257462   0.489   0.614  14.101 -0.4424 -0.0813 -0.1081
12016TIP3    H157463   0.551   0.618  14.174 -1.3492 -2.5227  0.9178
12016TIP3    H257464   0.415   0.666  14.130 -0.4947 -0.4417  0.4205
12017TIP3   OH257465   5.591   3.440  16.295  0.0274  0.0486  0.6852
12017TIP3    H157466   5.531   3.511  16.317 -0.3677 -0.2091  0.4527
12017TIP3    H257467   5.663   3.449  16.357 -1.0224 -0.6226  2.0631
12018TIP3   OH257468   2.455   5.424  13.597 -0.1577  0.1253  0.7578
12018TIP3    H157469   2.441   5.341  13.552  0.7746 -0.2764  1.1844
12018TIP3    H257470   2.448   5.403  13.690 -1.8284  0.9051  0.8374
12019TIP3   OH257471   3.137   1.995   1.957  0.3842  0.5272  0.1304
12019TIP3    H157472   3.173   1.921   1.907  0.9990  0.2063  1.0370
12019TIP3    H257473   3.143   2.069   1.897 -0.7730 -0.2422 -1.0079
12020TIP3   OH257474   4.703   4.752  15.983  0.3883  0.5697  0.1646
12020TIP3    H157475   4.616   4.774  16.015  0.6040  0.0056  1.2072
12020TIP3    H257476   4.743   4.702  16.055  0.4946 -1.7937 -1.4319
12021TIP3   OH257477   1.439   6.746   2.402 -0.2052  0.2104 -0.5691
12021TIP3    H157478   1.522   6.736   2.449 -0.1844 -0.2050 -0.6870
12021TIP3    H257479   1.399   6.660   2.406 -1.1477  0.6773  0.4248
12022TIP3   OH257480   4.211   1.789   3.227  0.1440  0.5521  0.4217
12022TIP3    H157481   4.273   1.837   3.172 -1.0009  2.0771  0.4135
12022TIP3    H257482   4.159   1.857   3.270 -1.2328 -0.6756  0.7769
12023TIP3   OH257483   4.683   2.736   5.700  0.1219 -0.3214  0.1575
12023TIP3    H157484   4.646   2.649   5.709  0.7941 -0.8041 -1.4315
12023TIP3    H257485   4.773   2.727   5.733  0.4429 -0.4446 -0.7241
12024TIP3   OH257486   6.268   2.610  10.954  0.2273  0.3302  0.2014
12024TIP3    H157487   6.303   2.533  10.909  0.5230  1.0454 -0.7985
12024TIP3    H257488   6.334   2.630  11.021  0.5139  0.1732 -0.0309
12025TIP3   OH257489   1.721   5.588   0.724 -0.4665  0.3729  0.4115
12025TIP3    H157490   1.678   5.580   0.639  0.0646  0.4562  0.1323
12025TIP3    H257491   1.652   5.568   0.788 -0.2948 -2.1418 -0.0933
12026TIP3   OH257492   0.414   3.333   2.774  0.1054 -0.2582  0.0429
12026TIP3    H157493   0.333   3.328   2.825 -0.8223 -1.8599 -1.4985
12026TIP3    H257494   0.397   3.400   2.708  0.6154  0.4552  0.6121
12027TIP3   OH257495   3.240   4.980  13.322  0.3439 -0.1459 -0.4711
12027TIP3    H157496   3.300   5.052  13.299  0.9064 -0.5332 -0.2551
12027TIP3    H257497   3.289   4.930  13.388 -0.1882 -0.5243 -0.3644
12028TIP3   OH257498   6.139   0.533  17.181 -0.3948  0.5037 -0.5650
12028TIP3    H157499   6.149   0.618  17.224 -1.5905  0.4447 -0.1468
12028TIP3    H257500   6.068   0.546  17.118  2.2788  1.0439 -3.7850
12029TIP3   OH257501   0.882   6.263  15.549 -0.3888  0.5212  0.0654
12029TIP3    H157502   0.890   6.315  15.629 -2.3122  0.6966  0.1872
12029TIP3    H257503   0.792   6.231  15.551 -0.1273 -0.3641 -1.4980
12030TIP3   OH257504   3.466   2.360  12.999 -0.4027 -0.0043  0.2181
12030TIP3    H157505   3.437   2.287  13.053  0.8894  0.3125  1.4012
12030TIP3    H257506   3.489   2.320  12.915  0.2391 -0.9577  0.8288
12031TIP3   OH257507   0.470   0.462   2.229  0.6283 -0.0604 -0.0131
12031TIP3    H157508   0.486   0.404   2.303  1.0476 -0.5961 -0.5194
12031TIP3    H257509   0.557   0.490   2.201  0.4040  1.6635  0.8785
12032TIP3   OH257510   0.471   2.106  15.780  0.4535 -0.0546  0.0817
12032TIP3    H157511   0.567   2.101  15.779  0.4339 -0.4312  0.1497
12032TIP3    H257512   0.442   2.021  15.813  0.1257  0.4991  1.2793
12033TIP3   OH257513   0.235   5.929  11.937 -0.4607  0.1958 -0.2435
12033TIP3    H157514   0.248   6.001  11.874 -2.6197  0.4420 -0.4763
12033TIP3    H257515   0.151   5.891  11.913  0.4235 -2.1873  0.1505
12034TIP3   OH257516   1.260   4.903  10.386  0.2642  0.0712  0.2579
12034TIP3    H157517   1.335   4.850  10.414  0.3411  0.5102  0.9017
12034TIP3    H257518   1.299   4.978  10.342  0.1369 -0.8633 -1.5686
12035TIP3   OH257519   5.282   0.447  12.487  0.5613 -0.1937  0.7556
12035TIP3    H157520   5.369   0.440  12.447  0.9747  2.0447  1.1253
12035TIP3    H257521   5.226   0.394  12.431  1.4311  1.5027 -1.8992
12036TIP3   OH257522   2.735   6.708  10.717 -0.3050 -0.2100 -0.4626
12036TIP3    H157523   2.640   6.702  10.705 -0.2784  2.3054 -2.9786
12036TIP3    H257524   2.771   6.656  10.645  0.2760 -0.9804  0.3568
12037TIP3   OH257525   4.528   5.742  12.555 -0.1433 -0.5840  0.1671
12037TIP3    H157526   4.461   5.805  12.581  0.4168  0.1872 -0.2359
12037TIP3    H257527   4.576   5.785  12.485  0.7846 -1.1220  0.4532
12038TIP3   OH257528   3.295   2.550   3.128 -0.1465 -0.3019  0.1074
12038TIP3    H157529   3.201   2.546   3.109 -0.2382  0.9346  0.1854
12038TIP3    H257530   3.307   2.637   3.167  1.1913 -0.0331 -0.8394
12039TIP3   OH257531   5.597   3.911   5.492 -0.2223 -0.1178  0.1709
12039TIP3    H157532   5.592   3.895   5.586  0.6471 -3.1432 -0.2126
12039TIP3    H257533   5.658   3.984   5.483  0.9402 -0.8338  1.8743
12040TIP3   OH257534   1.110   1.909  11.829  1.0523  0.0885  0.1072
12040TIP3    H157535   1.204   1.893  11.833  1.2088  0.9650  0.1989
12040TIP3    H257536   1.094   1.973  11.898  0.2579 -0.6215  0.5936
12041TIP3   OH257537   3.330   6.059  15.484  0.0058  0.2025 -0.9631
12041TIP3    H157538   3.258   6.051  15.547 -0.0612  0.9485 -0.9341
12041TIP3    H257539   3.390   6.121  15.524  0.0858  0.4911 -1.5224
12042TIP3   OH257540   3.346   2.636   0.748 -0.2644  0.2049 -0.5982
12042TIP3    H157541   3.409   2.643   0.820 -0.2316 -1.5132 -0.4194
12042TIP3    H257542   3.264   2.669   0.785 -0.3552 -1.0602  0.3944
12043TIP3   OH257543   6.252   1.863   1.153 -0.8969  0.1817 -0.4767
12043TIP3    H157544   6.206   1.788   1.117 -0.9744 -0.5862  1.1079
12043TIP3    H257545   6.263   1.842   1.246  0.9482  1.1920 -0.4033
12044TIP3   OH257546   2.336   2.676  16.154  0.4330  0.5222  0.7220
12044TIP3    H157547   2.263   2.698  16.212  0.7731  2.6869  0.4155
12044TIP3    H257548   2.296   2.623  16.085 -0.3925 -0.2345  1.7534
12045TIP3   OH257549   6.470   4.558   6.307  0.0010 -0.0330  0.1527
12045TIP3    H157550   6.508   4.475   6.334  0.8710  0.4374  0.4198
12045TIP3    H257551   6.398   4.573   6.368  0.9984  0.2910  1.2762
12046TIP3   OH257552   2.440   3.804  14.221  0.0902  0.4953  0.0746
12046TIP3    H157553   2.505   3.811  14.291  0.6530  0.7913 -0.4604
12046TIP3    H257554   2.391   3.724  14.240  0.0539  0.7236  0.9500
12047TIP3   OH257555   6.563   1.485  11.998  0.1098  0.2418  0.1095
12047TIP3    H157556   6.556   1.412  11.937  0.2578  0.7629 -0.5410
12047TIP3    H257557   6.658   1.499  12.008  0.0903 -0.0102  0.6639
12048TIP3   OH257558   6.226   3.117  12.783 -0.5304 -0.4858  0.0340
12048TIP3    H157559   6.296   3.180  12.772  1.1559 -2.1513  0.7221
12048TIP3    H257560   6.190   3.136  12.870  0.1984 -0.7011  0.3824
12049TIP3   OH257561   3.863   3.077  15.418  0.1312 -0.1980 -0.2383
12049TIP3    H157562   3.893   3.051  15.506  0.5055 -1.5622 -0.7330
12049TIP3    H257563   3.891   3.005  15.362  0.0990  0.7682 -1.5259
12050TIP3   OH257564   5.175   1.124  15.025  0.1225 -0.4935  0.2905
12050TIP3    H157565   5.080   1.121  15.037  0.2645 -1.4958  1.3775
12050TIP3    H257566   5.203   1.202  15.074  0.0531 -1.3524  1.7667
12051TIP3   OH257567   5.681   4.479   1.712 -0.3577  0.2442  0.0573
12051TIP3    H157568   5.692   4.512   1.623  1.8852  1.3172  0.6590
12051TIP3    H257569   5.763   4.433   1.732 -0.2905  1.0872  1.9701
12052TIP3   OH257570   4.140   0.840  13.396 -0.1064 -0.0323  0.4923
12052TIP3    H157571   4.071   0.874  13.339 -1.1497 -1.6175  0.7284
12052TIP3    H257572   4.138   0.896  13.474 -0.8047  0.2330  0.2852
12053TIP3   OH257573   0.436   3.347   0.343  0.1894  0.1721 -0.4462
12053TIP3    H157574   0.504   3.284   0.366 -0.6237 -0.9852 -1.0701
12053TIP3    H257575   0.450   3.421   0.403  0.3258 -1.1874  1.2950
12054TIP3   OH257576   2.232   4.558   4.225 -0.1137  0.4896  0.4255
12054TIP3    H157577   2.141   4.534   4.207  0.6017 -2.5831  0.2378
12054TIP3    H257578   2.227   4.619   4.298 -2.3666  1.8797 -0.7790
12055TIP3   OH257579   6.193   3.538   5.276  0.1025  0.5611  0.5962
12055TIP3    H157580   6.262   3.601   5.295  1.4279 -0.4517 -0.6662
12055TIP3    H257581   6.122   3.591   5.240  0.7560  1.4488  0.5812
12056TIP3   OH257582   6.403   6.596  12.711  0.1230 -1.2475  0.5541
12056TIP3    H157583   6.309   6.616  12.701  0.3253  0.3610  1.4532
12056TIP3    H257584   6.425   6.632  12.797  2.1206  0.8073 -0.7032
12057TIP3   OH257585   1.629   2.110  15.192 -0.3382  0.6162  0.2626
12057TIP3    H157586   1.684   2.188  15.183  1.3058 -0.6114 -0.7100
12057TIP3    H257587   1.666   2.047  15.132 -2.3501 -0.5674  0.1807
12058TIP3   OH257588   0.976   3.988  16.954  0.2540 -0.0613 -0.0381
12058TIP3    H157589   0.923   4.067  16.966  1.8356  1.0698 -0.1186
12058TIP3    H257590   0.961   3.962  16.863  0.1464  0.4999 -0.1862
12059TIP3   OH257591   0.767   1.024   1.990  0.0285 -0.3917 -0.2730
12059TIP3    H157592   0.862   1.020   2.002 -0.0010  0.7182  0.5763
12059TIP3    H257593   0.747   0.952   1.931  1.4109 -0.5977 -0.5334
12060TIP3   OH257594   5.752   1.925   0.532 -0.4257 -0.5232 -0.4946
12060TIP3    H157595   5.819   1.980   0.571  0.2198  0.2510 -2.5596
12060TIP3    H257596   5.797   1.843   0.512 -0.2673 -0.2703 -1.2065
12061TIP3   OH257597   2.378   3.334  13.362 -0.7228  0.4012 -0.3551
12061TIP3    H157598   2.323   3.407  13.332 -0.4900  1.0736  0.8121
12061TIP3    H257599   2.446   3.375  13.415 -2.1431 -0.8389  2.6411
12062TIP3   OH257600   0.210   3.246  11.708 -0.0134 -0.2413 -0.3999
12062TIP3    H157601   0.300   3.245  11.673 -0.4842 -1.8440 -1.6992
12062TIP3    H257602   0.204   3.167  11.762 -0.5092  0.0829  0.0236
12063TIP3   OH257603   6.124   4.938   5.801  0.6773  0.0972 -0.0266
12063TIP3    H157604   6.052   4.943   5.738 -1.0864  2.4273  1.9422
12063TIP3    H257605   6.097   4.871   5.864  0.8293  0.0768  0.0172
12064TIP3   OH257606   1.916   0.738   1.108 -0.1268  0.0292 -0.5038
12064TIP3    H157607   1.941   0.743   1.200  0.9150 -1.9463 -0.6117
12064TIP3    H257608   1.867   0.818   1.092 -0.0567  0.5811  1.6752
12065TIP3   OH257609   3.144   3.398  12.226 -0.5829 -0.4813  0.0398
12065TIP3    H157610   3.164   3.412  12.319  0.3360  1.3798 -0.3917
12065TIP3    H257611   3.085   3.469  12.202  0.7022  0.2136 -1.2297
12066TIP3   OH257612   1.518   4.622  10.961 -0.0584 -0.5509 -0.3803
12066TIP3    H157613   1.554   4.603  10.875 -0.4953  1.6981 -1.1407
12066TIP3    H257614   1.439   4.568  10.966 -1.1040  0.7002 -2.2623
12067TIP3   OH257615   4.980   5.842   0.939  0.1660 -0.5092  0.1244
12067TIP3    H157616   4.965   5.910   1.004  0.5842 -0.3390  0.0437
12067TIP3    H257617   4.897   5.794   0.936 -1.1701  1.6489 -1.7625
12068TIP3   OH257618   2.825   6.741  11.683 -0.6564 -0.2750  0.7657
12068TIP3    H157619   2.768   6.734  11.606 -0.5520 -2.4145  0.8269
12068TIP3    H257620   2.912   6.752  11.647 -0.6886 -0.6061  0.5801
12069TIP3   OH257621   3.572   5.299   5.428  1.0791  0.0043  0.6038
12069TIP3    H157622   3.501   5.357   5.402  1.1495  0.1847  0.8059
12069TIP3    H257623   3.552   5.277   5.520  0.4715 -1.1531  0.2150
12070TIP3   OH257624   4.454   2.639   4.007 -0.2243 -1.1204  0.0208
12070TIP3    H157625   4.432   2.687   4.086 -0.8740  0.0404 -0.8301
12070TIP3    H257626   4.496   2.559   4.038  2.0100  0.5221  1.4703
12071TIP3   OH257627   2.534   4.495   6.341 -0.0362  0.4392 -0.0094
12071TIP3    H157628   2.549   4.573   6.287  0.7299 -0.3821 -1.0181
12071TIP3    H257629   2.544   4.421   6.281  0.2943 -0.4921  1.1430
12072TIP3   OH257630   3.327   1.589   3.881  0.0695 -0.6379 -0.4309
12072TIP3    H157631   3.281   1.505   3.870  0.8374 -1.3319  1.2930
12072TIP3    H257632   3.282   1.630   3.955  1.4197 -0.7996  0.5161
12073TIP3   OH257633   1.688   6.151   0.022  0.5755 -0.1703  0.1609
12073TIP3    H157634   1.678   6.186  -0.066 -1.2575 -0.1406  0.3333
12073TIP3    H257635   1.720   6.226   0.074 -0.5102  0.4696 -0.0538
12074TIP3   OH257636   5.583   2.788  13.321  0.2639  0.0719  0.1879
12074TIP3    H157637   5.668   2.787  13.277 -1.0313 -0.7205 -2.4825
12074TIP3    H257638   5.542   2.705  13.296 -1.2298  0.3311  1.6172
12075TIP3   OH257639   0.823   3.370   2.910 -0.1542 -0.2575  0.2427
12075TIP3    H157640   0.830   3.356   2.816  0.8230 -0.3629  0.3220
12075TIP3    H257641   0.731   3.393   2.924 -0.4606 -0.8757 -0.6474
12076TIP3   OH257642   5.605   0.382   3.289 -0.0295 -0.0371 -0.0964
12076TIP3    H157643   5.659   0.461   3.290  0.9079 -0.6736  0.2478
12076TIP3    H257644   5.527   0.408   3.240  0.2979  1.0776 -0.0602
12077TIP3   OH257645   3.004   2.363  15.492 -0.0673  0.1356 -0.1812
12077TIP3    H157646   3.078   2.408  15.535 -1.1341  0.4461  1.4115
12077TIP3    H257647   2.937   2.430  15.484 -0.3547 -0.2601 -1.2150
12078TIP3   OH257648   5.461   0.747   1.597  0.0915  0.8341  0.1375
12078TIP3    H157649   5.394   0.751   1.666  0.7344  3.4352  0.7249
12078TIP3    H257650   5.525   0.683   1.629 -1.0168 -0.0728  0.5911
12079TIP3   OH257651   0.203   3.559   3.105  0.0667  0.1620 -0.8420
12079TIP3    H157652   0.130   3.534   3.162  1.2863  0.6566  1.0338
12079TIP3    H257653   0.217   3.482   3.049 -0.2035 -0.9737  0.5836
12080TIP3   OH257654   3.644   3.397   4.496 -0.3897  0.4775  0.2899
12080TIP3    H157655   3.649   3.431   4.407  0.8614  0.0256  0.1653
12080TIP3    H257656   3.619   3.305   4.485  1.1290  0.0405  0.2928
12081TIP3   OH257657   6.362   6.659   2.325 -0.1136  0.1251 -0.0700
12081TIP3    H157658   6.360   6.606   2.405  0.9415 -2.0633 -1.4018
12081TIP3    H257659   6.278   6.643   2.283 -0.7100  1.3563  0.6002
12082TIP3   OH257660   0.225   3.496   5.185  0.1917 -0.0769 -0.1019
12082TIP3    H157661   0.234   3.402   5.202  0.3910 -0.0916 -0.2791
12082TIP3    H257662   0.135   3.516   5.209 -0.3342 -0.6284 -1.4704
12083TIP3   OH257663   0.086   3.303  12.556  0.5542 -0.2533  0.0370
12083TIP3    H157664   0.107   3.255  12.635  0.9538 -1.2417 -0.6495
12083TIP3    H257665   0.168   3.345  12.530  0.2911  0.5245  0.4418
12084TIP3   OH257666   3.503   1.328  11.627  0.1701 -0.3181  0.5233
12084TIP3    H157667   3.476   1.420  11.618 -0.3119 -0.5051 -0.0658
12084TIP3    H257668   3.549   1.325  11.710 -1.4635  0.0692  1.5049
12085TIP3   OH257669   2.689   5.496   6.614 -0.3683 -0.1207  0.3204
12085TIP3    H157670   2.783   5.486   6.598 -0.2921  0.4279  0.4081
12085TIP3    H257671   2.660   5.408   6.639  0.0659 -0.3553  0.0208
12086TIP3   OH257672   0.853   2.638   0.621  0.4397 -0.3380 -0.2920
12086TIP3    H157673   0.919   2.689   0.669  0.3458  0.1376 -0.6576
12086TIP3    H257674   0.904   2.577   0.568  0.5709 -0.2568 -0.2597
12087TIP3   OH257675   0.544   2.965   4.283  0.7556  0.3915 -0.4517
12087TIP3    H157676   0.521   2.925   4.200 -0.3175 -0.9991  0.4642
12087TIP3    H257677   0.571   3.054   4.261 -2.2514  1.0397 -2.0152
12088TIP3   OH257678   1.161   4.799   6.292 -0.0499 -0.3416  0.4404
12088TIP3    H157679   1.235   4.792   6.352 -0.0327 -2.2080  0.2691
12088TIP3    H257680   1.089   4.753   6.336 -1.6619  2.7469  1.3029
12089TIP3   OH257681   1.843   1.286  11.241 -0.3137 -0.4098 -0.7722
12089TIP3    H157682   1.778   1.304  11.310 -0.6979  0.6738 -1.3773
12089TIP3    H257683   1.885   1.371  11.227 -1.0223 -0.3242 -2.6289
12090TIP3   OH257684   2.508   5.504   4.656 -0.0609  0.3172  0.7591
12090TIP3    H157685   2.598   5.486   4.684  0.0141  0.6270  0.7230
12090TIP3    H257686   2.508   5.597   4.634 -0.3945  0.3209  0.7702
12091TIP3   OH257687   3.937   4.419  13.735  0.5464  0.7700  0.2843
12091TIP3    H157688   3.852   4.420  13.778  0.5546  1.0288  0.2972
12091TIP3    H257689   4.000   4.430  13.807  0.6107  0.2037  0.3169
12092TIP3   OH257690   2.820   5.396   0.089 -0.1149  0.3752 -0.0250
12092TIP3    H157691   2.886   5.437   0.146 -0.2757 -0.3624  0.7125
12092TIP3    H257692   2.810   5.308   0.125 -1.3749  0.4244 -0.2384
12093TIP3   OH257693   5.107   5.784  14.672 -0.3582  0.2763  0.7380
12093TIP3    H157694   5.064   5.869  14.671  0.0807  0.5099  1.1526
12093TIP3    H257695   5.036   5.721  14.684 -0.7975  0.4982 -0.5192
12094TIP3   OH257696   3.895   3.023   5.398 -0.4380 -0.0003  0.3721
12094TIP3    H157697   3.880   3.075   5.319 -1.5307  0.3187  0.7739
12094TIP3    H257698   3.827   3.052   5.459 -1.2668 -2.0594  0.5315
12095TIP3   OH257699   4.254   4.695   3.121 -0.9493  0.0669 -0.2849
12095TIP3    H157700   4.217   4.766   3.173 -1.0747  0.3763 -0.7809
12095TIP3    H257701   4.345   4.722   3.105 -1.0793  0.2604 -0.7163
12096TIP3   OH257702   0.555   6.729  11.364  0.4143  1.1162 -0.9812
12096TIP3    H157703   0.468   6.735  11.327  2.0001  1.2229 -5.2065
12096TIP3    H257704   0.589   6.819  11.361  1.4012  0.7422 -1.5591
12097TIP3   OH257705   2.795   3.759  15.392  0.0669  0.1313 -0.0711
12097TIP3    H157706   2.727   3.825  15.407 -1.6219 -1.4179 -0.4730
12097TIP3    H257707   2.787   3.739  15.299  1.1579 -0.0216 -0.1367
12098TIP3   OH257708   0.247   3.099  13.751 -0.0111  0.1478  0.2826
12098TIP3    H157709   0.177   3.034  13.749 -0.4364  0.6069 -0.4582
12098TIP3    H257710   0.311   3.068  13.687 -0.3735  0.6079 -0.3219
12099TIP3   OH257711   2.707   6.752   1.380  0.2443 -0.1258  0.3423
12099TIP3    H157712   2.751   6.768   1.464  0.6589 -1.6696  0.4576
12099TIP3    H257713   2.616   6.776   1.396  0.3602 -0.1953  1.1844
12100TIP3   OH257714   1.206   2.547  13.070 -0.3973  0.3769 -0.2925
12100TIP3    H157715   1.142   2.490  13.112 -0.9344  0.6922 -0.6799
12100TIP3    H257716   1.205   2.520  12.978  1.3060 -0.8262 -0.0297
12101TIP3   OH257717   0.141   5.554   3.345 -0.1832  0.1181  0.7477
12101TIP3    H157718   0.081   5.605   3.290  0.8207 -0.1691 -0.6721
12101TIP3    H257719   0.088   5.526   3.419 -1.8447 -0.2632 -0.5406
12102TIP3   OH257720   0.637   0.165   1.303  0.2308  0.1158  0.1313
12102TIP3    H157721   0.689   0.092   1.269  0.2766  0.2355 -0.0588
12102TIP3    H257722   0.669   0.178   1.392  2.3466  1.8640 -0.8048
12103TIP3   OH257723   5.567   5.922   2.658  0.2233 -0.0606 -0.3407
12103TIP3    H157724   5.495   5.883   2.608 -1.1530  1.2933  0.4795
12103TIP3    H257725   5.600   5.992   2.601  0.9340 -0.6835 -0.7182
12104TIP3   OH257726   3.727   4.145  16.599 -0.3391 -0.5315 -0.2302
12104TIP3    H157727   3.739   4.239  16.616  0.2970 -0.4459 -1.1235
12104TIP3    H257728   3.787   4.102  16.660 -3.0459 -0.5797  2.7107
12105TIP3   OH257729   2.163   6.017  15.764 -0.0118  0.5293 -0.1950
12105TIP3    H157730   2.137   6.085  15.826  0.4800  0.1665  0.4230
12105TIP3    H257731   2.082   5.993  15.720 -0.7773 -0.5784  1.6776
12106TIP3   OH257732   4.207   3.948   2.248 -0.3162  0.8270  0.7915
12106TIP3    H157733   4.179   3.989   2.330  2.7542  2.0003  1.4054
12106TIP3    H257734   4.174   4.007   2.180 -0.6223  1.3137  1.3510
12107TIP3   OH257735   3.822   5.518   0.890  0.3144  0.1404 -0.5584
12107TIP3    H157736   3.848   5.502   0.799 -2.5528  0.3609 -1.5165
12107TIP3    H257737   3.859   5.604   0.910 -0.1916  0.7299 -2.0277
12108TIP3   OH257738   3.260   6.416  14.758 -0.0704  0.4865 -0.2803
12108TIP3    H157739   3.180   6.468  14.751  0.9018  1.9659 -0.9088
12108TIP3    H257740   3.328   6.471  14.719  0.8995 -1.5867 -1.6654
12109TIP3   OH257741   6.287   2.949  15.201  0.1818  0.1109  0.0464
12109TIP3    H157742   6.354   2.882  15.214 -0.0706  0.1604  1.8310
12109TIP3    H257743   6.332   3.032  15.219 -0.5052  0.0907  2.0130
12110TIP3   OH257744   1.744   3.673   3.057 -0.5535 -0.4629  0.4763
12110TIP3    H157745   1.687   3.691   2.982 -1.2245  0.7129  1.2455
12110TIP3    H257746   1.815   3.620   3.020 -0.7156  0.3083 -1.0460
12111TIP3   OH257747   0.140   1.004  16.744 -0.6520 -0.5589 -0.1899
12111TIP3    H157748   0.162   1.054  16.822 -1.2395  1.6494 -1.3491
12111TIP3    H257749   0.200   1.038  16.677  0.4708 -3.0456 -0.5397
12112TIP3   OH257750   3.047   0.317   1.235 -0.7400  0.5004 -0.3214
12112TIP3    H157751   3.139   0.335   1.254 -0.1335 -0.9183 -1.6883
12112TIP3    H257752   3.018   0.262   1.307 -1.1109  2.4333  1.0987
12113TIP3   OH257753   3.205   4.630   1.704 -0.1454  0.1877 -0.3900
12113TIP3    H157754   3.166   4.682   1.775 -0.6490 -0.1667 -0.3982
12113TIP3    H257755   3.275   4.581   1.747  0.5894  1.1449 -0.4588
12114TIP3   OH257756   6.002   5.897  13.883  1.1135  0.0399  0.1166
12114TIP3    H157757   6.033   5.962  13.820 -1.8924  0.5095 -1.0332
12114TIP3    H257758   5.986   5.946  13.964  2.9059 -0.1617  0.6419
12115TIP3   OH257759   0.258   5.727   3.836  0.1902 -0.0538  0.1084
12115TIP3    H157760   0.282   5.752   3.747  1.6555  0.9189  0.7351
12115TIP3    H257761   0.182   5.669   3.825  0.9933 -0.8258 -1.8126
12116TIP3   OH257762   3.323   4.344  12.836 -0.4204 -0.5546 -0.0516
12116TIP3    H157763   3.342   4.430  12.798 -2.6819 -0.2183 -0.5722
12116TIP3    H257764   3.398   4.290  12.810  0.3370  0.8614 -1.0025
12117TIP3   OH257765   2.051   4.148   6.713  0.5175  0.2994  0.2017
12117TIP3    H157766   1.990   4.120   6.781  1.1208  0.6512  0.9001
12117TIP3    H257767   2.013   4.115   6.632 -1.8616  2.5357  0.2848
12118TIP3   OH257768   0.413   1.828  13.046 -0.3448 -0.2924  0.5336
12118TIP3    H157769   0.467   1.838  12.967 -0.7103  1.7240  0.4961
12118TIP3    H257770   0.463   1.769  13.102  0.2744 -1.1625 -0.8778
12119TIP3   OH257771   6.321   0.333   2.186 -0.1293  0.1056  0.3419
12119TIP3    H157772   6.393   0.310   2.128 -1.0497  2.2781 -1.8398
12119TIP3    H257773   6.244   0.288   2.149 -0.4908  0.3785  0.7438
12120TIP3   OH257774   2.042   2.656   6.132  0.6513  0.2367 -0.2449
12120TIP3    H157775   1.947   2.648   6.134  0.6482  0.3585  1.2718
12120TIP3    H257776   2.059   2.748   6.154  1.1529 -0.1843  1.1905
12121TIP3   OH257777   2.641   1.361   5.367 -0.0004  0.1629 -0.2495
12121TIP3    H157778   2.692   1.436   5.398 -1.0249 -0.1511  2.5258
12121TIP3    H257779   2.574   1.398   5.310  1.6332  0.8870 -1.7669
12122TIP3   OH257780   5.912   6.691   0.583  0.2002 -0.4996 -0.0831
12122TIP3    H157781   5.985   6.748   0.607 -0.0436  0.0022 -0.5068
12122TIP3    H257782   5.877   6.730   0.503 -1.7657  0.4176  1.1429
12123TIP3   OH257783   4.746   4.581   2.476 -0.4474 -0.1289  0.1711
12123TIP3    H157784   4.832   4.541   2.468 -0.8827 -0.8722 -0.9688
12123TIP3    H257785   4.762   4.665   2.520  1.0493  0.4189 -1.3403
12124TIP3   OH257786   5.827   3.368  13.415  0.3130  0.2499  0.1963
12124TIP3    H157787   5.905   3.340  13.368 -0.0373 -0.5062  0.0598
12124TIP3    H257788   5.832   3.323  13.500  0.1682  0.4245  0.2998
12125TIP3   OH257789   3.775   5.700  11.221 -0.0412  0.0372 -0.1063
12125TIP3    H157790   3.786   5.636  11.151  1.8239  0.5206 -0.2965
12125TIP3    H257791   3.856   5.750  11.221 -0.5405  0.9170  1.5485
12126TIP3   OH257792   3.035   3.376  16.808 -0.6007  0.6603 -0.4652
12126TIP3    H157793   3.069   3.301  16.857  1.1582  1.5616 -0.2368
12126TIP3    H257794   2.955   3.400  16.855 -1.2260 -1.0697 -0.5649
12127TIP3   OH257795   4.197   5.846   0.359  0.0659  0.2130  0.8484
12127TIP3    H157796   4.124   5.794   0.394 -1.5359  2.6388  1.4007
12127TIP3    H257797   4.158   5.933   0.343  1.6391  0.3548 -3.4258
12128TIP3   OH257798   3.727   2.762   3.557 -0.6060  0.2667  0.2265
12128TIP3    H157799   3.715   2.752   3.462 -1.1429  0.3720  0.2800
12128TIP3    H257800   3.753   2.854   3.568  1.3839 -0.2225  0.0124
12129TIP3   OH257801   5.219   0.008   0.301  0.2111  0.1044  0.5120
12129TIP3    H157802   5.273  -0.056   0.255 -0.3038 -1.6947  2.2639
12129TIP3    H257803   5.132  -0.002   0.264  0.5306  1.2793 -0.6193
12130TIP3   OH257804   2.525   4.128   2.165  0.3275 -0.2424  0.5055
12130TIP3    H157805   2.474   4.128   2.084  2.2819  3.3649 -0.9821
12130TIP3    H257806   2.486   4.197   2.218  1.5121  0.2277  0.8039
12131TIP3   OH257807   5.281   5.838   2.632  0.1756  0.2485  0.2463
12131TIP3    H157808   5.294   5.761   2.688 -1.0449 -1.6642 -1.9183
12131TIP3    H257809   5.198   5.876   2.663 -0.3493 -0.6312 -0.0466
12132TIP3   OH257810   5.807   1.693   2.347 -0.4581 -0.4935  0.6233
12132TIP3    H157811   5.852   1.716   2.428 -1.4061 -1.7384  1.5555
12132TIP3    H257812   5.738   1.759   2.337  0.9796  0.9190 -0.3576
12133TIP3   OH257813   0.622   1.035   2.955 -0.2693 -0.2200  0.3564
12133TIP3    H157814   0.599   0.985   3.034  0.7463  0.9709  1.4648
12133TIP3    H257815   0.717   1.033   2.953 -0.2588  0.5800 -0.2986
12134TIP3   OH257816   0.412   4.717   2.721 -0.1677  0.4746  0.4880
12134TIP3    H157817   0.350   4.685   2.787 -0.6320 -0.4964 -0.3820
12134TIP3    H257818   0.357   4.745   2.648  0.3978 -0.7267 -0.4347
12135TIP3   OH257819   1.428   6.529   2.107  0.2736 -0.4428  0.9132
12135TIP3    H157820   1.460   6.619   2.115 -1.0177  0.0353  0.9048
12135TIP3    H257821   1.436   6.509   2.014  1.9368 -0.8932  1.1128
12136TIP3   OH257822   5.425   1.906   0.449  0.3048  0.0365 -0.0274
12136TIP3    H157823   5.336   1.930   0.424  1.0957  0.7574 -2.4080
12136TIP3    H257824   5.423   1.903   0.544 -2.1044  0.6278  0.0101
12137TIP3   OH257825   6.597   2.098  12.579 -0.1822  0.6696  0.1808
12137TIP3    H157826   6.531   2.114  12.512 -1.0659 -1.7090  0.4094
12137TIP3    H257827   6.653   2.029  12.542 -0.3252 -0.2557  1.6149
12138TIP3   OH257828   0.859   3.361  16.886 -0.2161  0.0649  0.0890
12138TIP3    H157829   0.775   3.358  16.931 -0.7291 -3.1996 -0.8583
12138TIP3    H257830   0.874   3.272  16.855  3.4136  0.5952 -0.1885
12139TIP3   OH257831   2.309   0.443   6.302 -0.5440 -0.9754  0.4419
12139TIP3    H157832   2.296   0.369   6.361 -0.1881 -0.1705  1.5737
12139TIP3    H257833   2.360   0.506   6.354 -1.7442  0.5125 -0.1129
12140TIP3   OH257834   2.155   3.260   1.623 -0.3989 -0.3283  0.4534
12140TIP3    H157835   2.204   3.236   1.545 -0.8099 -2.4433  0.7736
12140TIP3    H257836   2.082   3.312   1.591 -0.5651 -1.1689 -0.5779
12141TIP3   OH257837   1.702   0.309   2.010 -0.3915 -0.2906 -0.3270
12141TIP3    H157838   1.778   0.286   2.063 -0.5368  1.0535  0.5250
12141TIP3    H257839   1.652   0.369   2.065 -1.0136  0.4591 -1.6551
12142TIP3   OH257840   2.792   3.061  10.609 -0.2483 -0.0734  0.0206
12142TIP3    H157841   2.797   3.133  10.547 -0.7094 -1.0287 -1.1660
12142TIP3    H257842   2.732   2.998  10.568  0.4719 -1.3204  0.8132
12143TIP3   OH257843   4.697   3.658  12.671 -0.2321  0.2901  0.7340
12143TIP3    H157844   4.761   3.593  12.699  0.3226  0.4936 -0.0360
12143TIP3    H257845   4.625   3.649  12.734  0.9825  0.7866  2.2431
12144TIP3   OH257846   6.539   5.067  13.058 -0.6685  0.1871  0.1195
12144TIP3    H157847   6.458   5.115  13.073 -1.4631 -0.5908 -1.3992
12144TIP3    H257848   6.511   4.976  13.046  0.3340 -0.0012 -1.0298
12145TIP3   OH257849   3.974   3.405   4.624  0.2433 -0.2833 -0.6379
12145TIP3    H157850   3.883   3.422   4.650  0.4222  0.2082 -0.3042
12145TIP3    H257851   3.974   3.314   4.596 -0.2908 -0.3828 -0.3472
12146TIP3   OH257852   0.447   5.913   2.334 -0.0915  0.1064  0.1515
12146TIP3    H157853   0.422   6.005   2.335  0.8117  0.3586  0.7508
12146TIP3    H257854   0.472   5.894   2.424 -0.5232 -0.8056  0.0936
12147TIP3   OH257855   6.238   5.986   3.568 -0.0374 -0.4910  0.4692
12147TIP3    H157856   6.326   5.971   3.602  1.4992  2.2980 -1.7842
12147TIP3    H257857   6.214   6.072   3.602 -0.7876 -0.1059 -0.9465
12148TIP3   OH257858   4.553   4.264  11.371  0.1167 -0.1937 -0.7851
12148TIP3    H157859   4.626   4.295  11.318 -0.0141 -0.6522 -1.2380
12148TIP3    H257860   4.591   4.245  11.456  0.5007 -0.3242 -0.9855
12149TIP3   OH257861   6.252   0.032  11.429 -0.0651  0.5487  0.3945
12149TIP3    H157862   6.232  -0.060  11.413  0.2314 -0.0709  3.0736
12149TIP3    H257863   6.226   0.077  11.348 -0.2638 -1.8478 -0.9647
12150TIP3   OH257864   5.170   5.094   4.851  0.2881  0.0452  0.1904
12150TIP3    H157865   5.079   5.117   4.872  0.1273  2.0278 -2.3013
12150TIP3    H257866   5.165   5.003   4.821 -0.8860  0.1426  0.0311
12151TIP3   OH257867   5.528   3.649  17.001 -0.0974 -0.0594  0.1224
12151TIP3    H157868   5.597   3.682  17.059  1.7625 -1.4824 -1.1723
12151TIP3    H257869   5.508   3.561  17.035 -1.0240  0.1886  0.2554
12152TIP3   OH257870   4.717   2.268   2.347 -0.0274 -0.0247  0.2290
12152TIP3    H157871   4.677   2.261   2.261 -1.3085 -1.8216  0.8992
12152TIP3    H257872   4.808   2.242   2.334  0.0339  0.6294 -0.7285
12153TIP3   OH257873   3.880   4.888  12.515  0.8276  0.4395  0.2955
12153TIP3    H157874   3.871   4.793  12.525 -0.2417  0.4263 -0.5078
12153TIP3    H257875   3.947   4.899  12.448  0.1470  0.1884 -0.4550
12154TIP3   OH257876   5.109   3.613   0.441  0.1336  0.5329 -0.5517
12154TIP3    H157877   5.014   3.616   0.434  0.0761  1.1110  0.3256
12154TIP3    H257878   5.140   3.682   0.382  0.0696 -0.3603 -1.6536
12155TIP3   OH257879   1.669   6.403  10.978  0.6603 -0.0069  0.4454
12155TIP3    H157880   1.609   6.414  11.051  0.7724  1.2539  0.3609
12155TIP3    H257881   1.622   6.438  10.902  0.7212 -0.8846 -0.0146
12156TIP3   OH257882   5.006   2.934  12.296 -0.2782  0.2612 -0.4356
12156TIP3    H157883   5.063   2.913  12.222 -0.0429 -0.4881 -0.0505
12156TIP3    H257884   5.065   2.945  12.370 -0.6560 -1.6730  0.2304
12157TIP3   OH257885   2.836   2.819  13.148  0.2980  0.3381  0.0014
12157TIP3    H157886   2.827   2.903  13.193  1.1140  0.8061 -0.6812
12157TIP3    H257887   2.860   2.757  13.217  0.4563  0.8191  0.3849
12158TIP3   OH257888   1.178   4.949   3.305  0.2769 -0.3696 -0.3180
12158TIP3    H157889   1.185   5.001   3.385  0.3970 -0.9108  0.0292
12158TIP3    H257890   1.262   4.963   3.260 -0.3304  1.0862 -1.0798
12159TIP3   OH257891   2.094   5.539   3.709  0.1172 -0.5251 -0.0841
12159TIP3    H157892   2.151   5.551   3.633  2.6605 -1.0690  1.6379
12159TIP3    H257893   2.101   5.622   3.757  2.0542 -1.6569  1.7339
12160TIP3   OH257894   3.930   0.311   6.166  0.5772 -0.1169 -0.3186
12160TIP3    H157895   3.927   0.355   6.251 -2.4195  3.2373 -1.8886
12160TIP3    H257896   3.853   0.253   6.167  0.3292  0.1974 -0.8294
12161TIP3   OH257897   4.242   2.782   3.305 -0.1516 -0.5433  0.0244
12161TIP3    H157898   4.206   2.768   3.217  1.3450  0.0497 -0.7097
12161TIP3    H257899   4.337   2.777   3.293  0.4026  4.2686  0.6616
12162TIP3   OH257900   1.202   0.465   1.450 -0.0915  0.2072  0.2202
12162TIP3    H157901   1.237   0.402   1.514 -3.3090  0.0529  2.0149
12162TIP3    H257902   1.216   0.550   1.491 -0.4392  0.2475  0.2583
12163TIP3   OH257903   0.135   2.054  15.771  0.3260  0.0107 -0.3004
12163TIP3    H157904   0.187   2.134  15.767 -1.1044  0.9234 -1.5364
12163TIP3    H257905   0.060   2.071  15.713 -1.2387 -1.3409  1.2352
12164TIP3   OH257906   5.596   5.172  11.750 -0.4327 -0.3629 -0.0591
12164TIP3    H157907   5.658   5.106  11.782 -0.2490 -0.9670 -1.5976
12164TIP3    H257908   5.553   5.131  11.675 -1.3895  0.7301 -0.1469
12165TIP3   OH257909   1.022   0.063  11.635  0.1549 -0.3191  0.3293
12165TIP3    H157910   0.993   0.102  11.552  0.1758 -1.6372 -0.3281
12165TIP3    H257911   1.005  -0.030  11.624  1.1303 -0.6428  1.4204
12166TIP3   OH257912   3.670   5.360  17.106  0.1312 -0.0453 -0.2702
12166TIP3    H157913   3.603   5.391  17.046 -0.0057  2.0413  0.8799
12166TIP3    H257914   3.622   5.323  17.180  0.2171  1.2243  0.4408
12167TIP3   OH257915   4.446   1.717  15.789  0.8384  0.2428  0.4014
12167TIP3    H157916   4.443   1.628  15.755 -0.0589  0.9405 -1.4688
12167TIP3    H257917   4.524   1.755  15.749  1.5915  0.1156  1.7199
12168TIP3   OH257918   0.715   0.176  13.059  0.5560 -0.1156 -0.0339
12168TIP3    H157919   0.719   0.083  13.081  1.5574 -0.2198 -0.6333
12168TIP3    H257920   0.775   0.187  12.986  0.9077  1.1134  0.4033
12169TIP3   OH257921   2.075   6.771   5.646 -0.1848  0.5797 -0.3999
12169TIP3    H157922   2.164   6.779   5.611  0.0333  0.2651  0.0794
12169TIP3    H257923   2.087   6.758   5.740 -0.7391  0.5535 -0.3297
12170TIP3   OH257924   3.902   1.856  15.613 -0.4529  0.2157 -0.2992
12170TIP3    H157925   3.909   1.799  15.537  0.6620  1.3092 -1.0612
12170TIP3    H257926   3.919   1.799  15.688  1.0359 -0.4050 -1.0627
12171TIP3   OH257927   5.380   5.739  16.139 -0.0614 -0.8125 -0.3529
12171TIP3    H157928   5.366   5.830  16.112 -0.4189 -0.6321  0.4112
12171TIP3    H257929   5.466   5.740  16.182  0.7861 -1.2197 -1.9519
12172TIP3   OH257930   4.807   4.049  16.408  0.3397 -0.0617  0.3835
12172TIP3    H157931   4.798   3.982  16.476  0.5287 -0.0896  0.3817
12172TIP3    H257932   4.728   4.042  16.356  1.4787 -2.0371 -1.2082
12173TIP3   OH257933   5.100   5.466   2.823 -0.0417 -0.5149 -0.5642
12173TIP3    H157934   5.128   5.385   2.865 -0.0338  0.4755  1.4345
12173TIP3    H257935   5.016   5.445   2.782 -0.9129 -1.1306  1.4275
12174TIP3   OH257936   2.897   4.088  15.352  0.0150 -0.9101 -0.3307
12174TIP3    H157937   2.803   4.099  15.367  0.3495  0.5025  1.0772
12174TIP3    H257938   2.909   4.102  15.258 -1.1392 -0.7355 -0.4579
12175TIP3   OH257939   1.976   0.541   1.910  0.0682  0.7413 -0.2576
12175TIP3    H157940   2.042   0.538   1.840 -0.3373  3.4746 -0.8593
12175TIP3    H257941   2.022   0.511   1.988  1.4040  0.5621 -1.0774
12176TIP3   OH257942   2.808   6.633   0.463 -0.4250  0.4561  0.3875
12176TIP3    H157943   2.730   6.587   0.432  0.2225 -0.1209 -0.4366
12176TIP3    H257944   2.849   6.572   0.524 -0.9919  1.0612  1.4158
12177TIP3   OH257945   0.691   6.380  11.650 -0.1621 -0.1614 -0.1474
12177TIP3    H157946   0.668   6.473  11.648 -2.2732 -0.5576  1.5212
12177TIP3    H257947   0.614   6.336  11.615  0.6553 -1.3202 -0.5295
12178TIP3   OH257948   3.232   3.239   4.436  0.3612  0.4017  0.5749
12178TIP3    H157949   3.137   3.234   4.431  0.3335 -0.1253  1.4145
12178TIP3    H257950   3.249   3.321   4.484  0.1281 -1.6497  4.5546
12179TIP3   OH257951   0.835   1.893   3.746  0.1645  0.3813  0.0691
12179TIP3    H157952   0.860   1.919   3.835  2.0170  1.5467 -0.7481
12179TIP3    H257953   0.856   1.799   3.742 -1.1936 -0.0240  1.2273
12180TIP3   OH257954   1.911   6.426   2.647  0.1742  0.6055  0.3723
12180TIP3    H157955   1.843   6.385   2.701  1.6065 -0.2188  1.6464
12180TIP3    H257956   1.967   6.353   2.621  0.3808  1.2172 -0.9624
12181TIP3   OH257957   6.236   5.538  11.417  0.6135 -0.2594  0.1970
12181TIP3    H157958   6.149   5.536  11.457  1.3721 -0.8703  1.9278
12181TIP3    H257959   6.270   5.449  11.431  1.7387  0.1458  0.0867
12182TIP3   OH257960   3.215   3.419  16.151  0.0452 -0.2032  0.1778
12182TIP3    H157961   3.300   3.459  16.173 -0.3536 -0.7429  3.0449
12182TIP3    H257962   3.210   3.341  16.205 -2.5203  0.1046  0.5166
12183TIP3   OH257963   1.776   6.563  13.091 -0.4980  0.4825 -0.1996
12183TIP3    H157964   1.795   6.533  13.002  1.6238  0.5346  0.1804
12183TIP3    H257965   1.707   6.504  13.122 -0.2230 -0.4857 -1.3602
12184TIP3   OH257966   0.064   6.495   2.999  0.0708 -0.2593  0.5511
12184TIP3    H157967  -0.015   6.546   2.983 -1.8436 -2.8120  1.1945
12184TIP3    H257968   0.077   6.446   2.917  0.1289 -0.9058  0.9423
12185TIP3   OH257969   6.354   4.720  11.235  0.4197  0.2130 -0.3582
12185TIP3    H157970   6.416   4.683  11.173 -0.1626  0.3915 -1.0641
12185TIP3    H257971   6.282   4.656  11.238  0.8405 -0.2240  0.8064
12186TIP3   OH257972   6.242   0.496   4.351  0.1484 -0.0612 -0.0561
12186TIP3    H157973   6.326   0.454   4.372 -0.4656 -0.8214  0.9884
12186TIP3    H257974   6.200   0.436   4.289  0.2329  0.1393 -0.3054
12187TIP3   OH257975   1.950   4.249  14.158 -0.8272 -0.1684  0.2929
12187TIP3    H157976   2.008   4.185  14.200  1.1252  0.9853 -0.5187
12187TIP3    H257977   1.917   4.205  14.080  1.4227  0.1113 -0.8943
12188TIP3   OH257978   6.030   3.667   0.548  0.0928  0.4375 -1.2667
12188TIP3    H157979   6.105   3.696   0.600 -0.4954  0.9223 -0.6554
12188TIP3    H257980   5.971   3.742   0.548  0.0653  0.4395 -2.6442
12189TIP3   OH257981   1.460   0.164   5.662  0.1951 -0.3202 -0.2398
12189TIP3    H157982   1.527   0.180   5.729  0.8485 -0.9837 -0.7233
12189TIP3    H257983   1.382   0.140   5.713 -0.0485  1.5920  0.3809
12190TIP3   OH257984   4.494   4.375  11.091 -0.0347 -1.0061  0.0836
12190TIP3    H157985   4.578   4.383  11.045 -0.0145 -0.2464  0.2262
12190TIP3    H257986   4.515   4.326  11.170  0.4789 -0.0399  0.5710
12191TIP3   OH257987   4.224   5.748  16.445  0.3592 -0.0864  0.3561
12191TIP3    H157988   4.160   5.806  16.402  1.4381  1.8095  1.1872
12191TIP3    H257989   4.191   5.738  16.534  0.1885 -0.7654  0.2236
12192TIP3   OH257990   1.496   1.702   4.114 -0.0733 -0.5124 -0.2280
12192TIP3    H157991   1.517   1.642   4.043  0.7260 -1.1557  0.5378
12192TIP3    H257992   1.401   1.711   4.110  0.0037  0.0658 -1.8473
12193TIP3   OH257993   1.646   0.017  13.897  0.5431  0.0672  0.2955
12193TIP3    H157994   1.682  -0.072  13.899 -2.8318 -1.4771 -0.1160
12193TIP3    H257995   1.594   0.025  13.977 -0.1475  1.1958 -0.2246
12194TIP3   OH257996   0.309   2.493   1.476 -0.3980  0.4657  0.2849
12194TIP3    H157997   0.322   2.548   1.399  0.7086  0.8133  0.7028
12194TIP3    H257998   0.222   2.454   1.464 -0.4130  0.8511 -0.9171
12195TIP3   OH257999   3.976   5.886  13.517  0.2889  0.0258  0.0380
12195TIP3    H158000   3.973   5.970  13.561  0.8278  0.6722 -1.1132
12195TIP3    H258001   3.884   5.866  13.498  0.1391  0.2320  0.5252
12196TIP3   OH258002   3.331   5.720   0.255 -0.3641 -0.4300  0.0605
12196TIP3    H158003   3.326   5.797   0.312  0.9833 -0.9944  1.0163
12196TIP3    H258004   3.345   5.755   0.168  0.0467  0.4296  0.4587
12197TIP3   OH258005   4.173   5.707  15.719 -0.3685  0.2669 -0.0264
12197TIP3    H158006   4.160   5.716  15.625  1.5134  1.0020 -0.2604
12197TIP3    H258007   4.106   5.763  15.759 -1.5743 -0.5168 -0.8610
12198TIP3   OH258008   2.160   5.492   1.283 -0.1944 -0.0132  0.4480
12198TIP3    H158009   2.224   5.543   1.234  2.1668 -1.6939  1.5891
12198TIP3    H258010   2.110   5.446   1.216  1.5600 -0.6543 -0.4899
12199TIP3   OH258011   2.609   5.433  14.087  0.2927  0.1497  0.3269
12199TIP3    H158012   2.541   5.375  14.055  1.0015  0.1760 -1.3004
12199TIP3    H258013   2.666   5.447  14.012  2.2314 -0.0493  1.6929
12200TIP3   OH258014   1.844   6.257   3.672  0.0790 -0.3102 -0.3721
12200TIP3    H158015   1.795   6.295   3.745 -1.3292  0.1296 -1.5021
12200TIP3    H258016   1.821   6.164   3.672 -0.1501 -0.2539 -0.4239
12201TIP3   OH258017   6.674   6.283  12.807  0.1220 -0.7372  0.4277
12201TIP3    H158018   6.729   6.354  12.774 -0.8657 -0.9086 -1.7863
12201TIP3    H258019   6.630   6.320  12.883  0.8522  0.4833  0.2826
12202TIP3   OH258020   2.992   6.173   5.446  0.4075  0.5320  0.0249
12202TIP3    H158021   3.078   6.143   5.475 -0.3159 -0.4529  1.2643
12202TIP3    H258022   3.010   6.246   5.387  2.0320  1.8025  1.9796
12203TIP3   OH258023   2.490   3.185   3.634  0.5607  0.3560  0.0629
12203TIP3    H158024   2.497   3.192   3.539 -0.4265  0.8750  0.0088
12203TIP3    H258025   2.523   3.098   3.655  0.6991  0.2049 -0.7716
12204TIP3   OH258026   5.223   2.477  13.179  0.7700 -0.1981 -0.0727
12204TIP3    H158027   5.235   2.382  13.181  1.1569 -0.1395  1.1104
12204TIP3    H258028   5.168   2.493  13.102  0.3870 -1.4131 -0.0691
12205TIP3   OH258029   2.902   5.786   0.085  0.0814  0.5675 -0.5603
12205TIP3    H158030   2.962   5.845   0.130 -0.0636 -1.1425  2.1106
12205TIP3    H258031   2.946   5.767   0.002  1.0091  2.8552 -0.6740
12206TIP3   OH258032   5.543   1.421  12.740  0.3104 -0.5195 -0.1857
12206TIP3    H158033   5.504   1.375  12.666  1.5799 -1.0748 -0.5261
12206TIP3    H258034   5.631   1.443  12.712  0.3938  0.3586  0.7141
12207TIP3   OH258035   1.796   2.768   4.819 -0.2820 -0.2624 -0.0492
12207TIP3    H158036   1.823   2.821   4.744 -0.0810  2.0913  1.5775
12207TIP3    H258037   1.706   2.741   4.798  0.2038 -0.7472 -1.6623
12208TIP3   OH258038   2.146   0.624   5.036 -0.1736 -0.2212  0.3625
12208TIP3    H158039   2.115   0.711   5.061 -0.7797 -1.1512  3.1757
12208TIP3    H258040   2.068   0.578   5.005 -0.1280 -0.2329  0.2631
12209TIP3   OH258041   4.559   0.249   0.975 -0.2678 -0.5185  0.8375
12209TIP3    H158042   4.653   0.246   0.959 -0.0347  0.4027  1.9331
12209TIP3    H258043   4.546   0.198   1.054 -0.5143  0.3761  1.3823
12210TIP3   OH258044   3.984   5.831  13.037 -0.2336  0.1004 -0.5699
12210TIP3    H158045   3.892   5.811  13.052 -0.7604  1.5354 -1.7037
12210TIP3    H258046   4.031   5.777  13.102 -1.8514 -0.5205  0.1380
12211TIP3   OH258047   1.888   0.360   4.548  0.0951 -0.0372 -0.1053
12211TIP3    H158048   1.968   0.413   4.538 -0.3146  0.6913  0.4078
12211TIP3    H258049   1.829   0.392   4.480 -0.6482  1.1216  1.0318
12212TIP3   OH258050   2.450   1.040  15.563 -0.0385 -0.1071 -0.1101
12212TIP3    H158051   2.369   0.993  15.581  0.9527 -2.1270 -0.7011
12212TIP3    H258052   2.431   1.088  15.482 -0.6410 -0.5674 -0.2504
12213TIP3   OH258053   5.460   0.069  14.470 -0.2155  0.6349  0.1784
12213TIP3    H158054   5.506   0.133  14.525  2.7140 -0.2349 -1.0901
12213TIP3    H258055   5.529   0.025  14.421 -2.5028 -0.1601 -2.5925
12214TIP3   OH258056   6.536   3.810   2.872  0.5010  0.4279 -0.1620
12214TIP3    H158057   6.501   3.852   2.951  0.0494  0.0474 -0.1572
12214TIP3    H258058   6.624   3.782   2.896 -0.0330 -0.6628  0.5566
12215TIP3   OH258059   5.639   2.383   4.451 -0.2907 -0.4204 -0.1548
12215TIP3    H158060   5.612   2.362   4.362  1.4626 -2.2126 -0.3324
12215TIP3    H258061   5.697   2.459   4.441 -2.8456  1.6789 -0.0609
12216TIP3   OH258062   1.177   5.246   5.983  0.6757  0.1190  0.1813
12216TIP3    H158063   1.110   5.314   5.993 -1.0518 -1.6498  1.4951
12216TIP3    H258064   1.142   5.171   6.032  1.5536 -2.3956 -2.7645
12217TIP3   OH258065   2.096   5.733   0.171 -0.0958 -0.0293  0.2179
12217TIP3    H158066   2.003   5.753   0.159  0.3004  2.0387  0.2507
12217TIP3    H258067   2.141   5.796   0.115  1.3002 -1.5193 -0.4338
12218TIP3   OH258068   3.234   5.785  12.631  0.2852 -0.2688  0.3539
12218TIP3    H158069   3.325   5.814  12.638  0.1561  0.2603 -0.0298
12218TIP3    H258070   3.219   5.776  12.537  0.0925 -0.8548  0.4379
12219TIP3   OH258071   0.921   0.401  15.150  0.2913  0.2257  0.6582
12219TIP3    H158072   0.947   0.433  15.063 -2.1290 -0.7469 -0.5189
12219TIP3    H258073   0.914   0.480  15.204  0.6638  0.9822 -0.3696
12220TIP3   OH258074   2.671   2.926  13.332 -0.0412 -0.0759 -0.5578
12220TIP3    H158075   2.679   2.844  13.282 -0.9633 -0.9187  0.6133
12220TIP3    H258076   2.578   2.948  13.327 -0.2370 -0.3997  1.0533
12221TIP3   OH258077   2.353   1.333   3.631  0.1384  0.1291 -0.1600
12221TIP3    H158078   2.296   1.408   3.610  1.7474  1.4221 -0.1549
12221TIP3    H258079   2.439   1.361   3.601  0.9025 -1.4839  0.4737
12222TIP3   OH258080   2.918   2.211   0.245  0.1735 -0.3578 -0.0930
12222TIP3    H158081   2.828   2.179   0.241 -0.0196  0.2798 -1.5003
12222TIP3    H258082   2.917   2.293   0.196  1.1578  0.6199  1.4022
12223TIP3   OH258083   5.497   0.572  15.854  0.0947  0.1697  0.2237
12223TIP3    H158084   5.444   0.493  15.852 -0.8422  0.7689 -1.7249
12223TIP3    H258085   5.555   0.564  15.778  0.8089  0.8517  0.6740
12224TIP3   OH258086   1.172   3.839   2.470 -0.1176 -0.1757  0.1980
12224TIP3    H158087   1.137   3.881   2.548 -1.2062  0.3885 -0.5588
12224TIP3    H258088   1.126   3.756   2.464 -0.1823 -0.1311  0.0572
12225TIP3   OH258089   4.203   1.280  13.442 -0.3416 -1.0856  0.3779
12225TIP3    H158090   4.109   1.267  13.425 -0.2443 -2.9846  1.0336
12225TIP3    H258091   4.207   1.357  13.499 -1.4016 -0.3639 -0.4718
12226TIP3   OH258092   1.593   1.907  15.837  0.0042  0.1157  0.0602
12226TIP3    H158093   1.611   1.845  15.766  0.3027  1.6938 -1.3092
12226TIP3    H258094   1.534   1.971  15.797  1.2613  1.7991  0.8145
12227TIP3   OH258095   5.554   0.956  17.211  0.0258 -0.4863  0.2884
12227TIP3    H158096   5.474   0.904  17.219  0.8606 -2.9769 -4.0473
12227TIP3    H258097   5.609   0.926  17.283 -1.1845 -2.4092  0.4864
12228TIP3   OH258098   5.354   2.911   4.855 -0.7033  0.2491 -0.0711
12228TIP3    H158099   5.379   2.853   4.784 -1.7952  0.2656 -0.4832
12228TIP3    H258100   5.297   2.859   4.911 -2.5466  1.1741 -0.9999
12229TIP3   OH258101   5.776   1.097  15.425 -0.3508 -0.1265  0.2908
12229TIP3    H158102   5.765   1.178  15.475 -2.3082 -0.6355  0.7907
12229TIP3    H258103   5.756   1.122  15.335 -3.0628 -0.3756  0.7314
12230TIP3   OH258104   0.638   0.360  17.007  0.2730  0.2115  0.5856
12230TIP3    H158105   0.590   0.297  17.061  0.2274 -0.6891 -0.4613
12230TIP3    H258106   0.619   0.445  17.046  0.3411 -0.4153  2.0472
12231TIP3   OH258107   4.472   1.488  16.902 -0.3124  0.1121 -0.4024
12231TIP3    H158108   4.420   1.414  16.933 -1.6721  1.2164  0.0408
12231TIP3    H258109   4.446   1.561  16.958  2.0321  0.6331  0.0935
12232TIP3   OH258110   3.897   4.693   2.991 -0.1659  0.4434 -0.5265
12232TIP3    H158111   3.896   4.749   2.913 -0.2590 -0.5899 -1.2826
12232TIP3    H258112   3.835   4.735   3.051  0.0087  1.3255 -0.9458
12233TIP3   OH258113   2.834   0.091  12.181  0.6557 -0.1687  0.0318
12233TIP3    H158114   2.862   0.181  12.165 -0.4059  0.0426 -0.7877
12233TIP3    H258115   2.798   0.062  12.097 -1.2458 -0.5016  0.9034
12234TIP3   OH258116   4.216   6.602   4.867  0.2893  0.0090 -0.4702
12234TIP3    H158117   4.147   6.537   4.885  0.8203 -0.8227 -1.2951
12234TIP3    H258118   4.237   6.639   4.952 -2.1715  1.3351 -0.3498
12235TIP3   OH258119   3.291   0.353   3.165 -0.3101 -0.5409  0.3487
12235TIP3    H158120   3.386   0.347   3.168 -0.2147 -0.0762 -1.0184
12235TIP3    H258121   3.266   0.393   3.249  0.7977  0.5113  0.1984
12236TIP3   OH258122   3.675   0.462  12.678 -0.3849 -0.5705  0.3430
12236TIP3    H158123   3.615   0.494  12.611  1.0446  0.0137 -0.7099
12236TIP3    H258124   3.652   0.370  12.690 -1.1388 -0.4872 -0.3975
12237TIP3   OH258125   0.603   3.586  14.222 -0.3577 -0.0442  0.1707
12237TIP3    H158126   0.694   3.564  14.239  0.9463  3.2254 -1.6371
12237TIP3    H258127   0.578   3.530  14.148  0.8749  0.3429 -0.5685
12238TIP3   OH258128   3.903   4.803   0.533  0.0425 -0.1676 -0.2358
12238TIP3    H158129   3.812   4.773   0.541 -0.4498  1.4756  0.9852
12238TIP3    H258130   3.920   4.802   0.439 -0.7583 -1.7849 -0.4040
12239TIP3   OH258131   4.369   3.115   1.886  0.0558 -0.8714 -0.3187
12239TIP3    H158132   4.430   3.131   1.813  1.6818  0.0697  1.1437
12239TIP3    H258133   4.315   3.042   1.857  0.3117 -0.2264 -2.6469
12240TIP3   OH258134   2.299   1.452  15.598 -0.2516 -0.0979  0.1969
12240TIP3    H158135   2.241   1.376  15.588 -0.3275 -0.0148  0.0113
12240TIP3    H258136   2.341   1.438  15.683 -0.4472 -0.2237  0.2751
12241TIP3   OH258137   1.066   4.350  16.857  0.1968 -0.0269 -0.3858
12241TIP3    H158138   1.059   4.260  16.889  0.1255  0.5433  1.2659
12241TIP3    H258139   1.052   4.342  16.762 -0.5538 -1.6581 -0.1777
12242TIP3   OH258140   4.236   2.161   1.663 -0.4242 -0.6033 -0.2771
12242TIP3    H158141   4.248   2.067   1.671  0.9621 -0.4242 -0.0700
12242TIP3    H258142   4.290   2.186   1.588  0.2588  0.2088  0.4753
12243TIP3   OH258143   2.622   6.254  13.704  0.4302 -0.3429  0.3850
12243TIP3    H158144   2.704   6.299  13.686  1.1023 -1.8917 -0.5938
12243TIP3    H258145   2.646   6.161  13.711 -1.3960 -1.0334 -1.3917
12244TIP3   OH258146   6.744   2.542   0.058  0.0874  0.5080  0.1356
12244TIP3    H158147   6.768   2.617   0.003 -2.3709  0.2908 -1.3953
12244TIP3    H258148   6.698   2.580   0.132 -0.6671  0.5626 -0.3539
12245TIP3   OH258149   0.404   6.342   4.502 -0.3478  0.0507 -0.1708
12245TIP3    H158150   0.364   6.280   4.441 -0.0590  0.6977 -1.0243
12245TIP3    H258151   0.384   6.305   4.589 -3.0698  0.4650 -0.5186
12246TIP3   OH258152   5.748   0.681  16.882 -0.6034  0.0348 -0.4250
12246TIP3    H158153   5.829   0.670  16.833 -0.4078  0.2480 -0.1471
12246TIP3    H258154   5.774   0.719  16.965 -0.4970 -3.3928  1.2667
12247TIP3   OH258155   0.012   4.492   4.482  0.7291  0.0054  0.0099
12247TIP3    H158156   0.090   4.502   4.429  1.4592 -0.3808  0.9707
12247TIP3    H258157  -0.020   4.581   4.497  1.5259  0.2385  0.3764
12248TIP3   OH258158   2.198   3.972  14.485  0.1484  0.4280 -0.5426
12248TIP3    H158159   2.144   3.981  14.406  0.9859  0.2586 -1.1376
12248TIP3    H258160   2.254   4.049  14.485  0.8434 -0.0754 -0.6472
12249TIP3   OH258161   0.372   1.791  11.450  0.2326  0.1737 -0.5857
12249TIP3    H158162   0.322   1.854  11.398 -0.2050  1.1769  0.9635
12249TIP3    H258163   0.376   1.712  11.396 -0.7041  0.9626 -1.8623
12250TIP3   OH258164   0.840   3.339  11.506  0.4346 -0.0935 -0.1117
12250TIP3    H158165   0.929   3.322  11.536  0.5904  0.3004 -0.3373
12250TIP3    H258166   0.845   3.425  11.464  0.1305 -0.4428 -0.8811
12251TIP3   OH258167   0.577   5.609  17.092 -0.0244 -0.4203 -0.0346
12251TIP3    H158168   0.540   5.697  17.103  0.3769 -0.2308 -0.2027
12251TIP3    H258169   0.670   5.619  17.112 -0.0155 -0.8481  0.1431
12252TIP3   OH258170   3.371   5.719  14.592  0.2293  0.4584 -0.1700
12252TIP3    H158171   3.419   5.774  14.530  1.9146  2.2504  2.5271
12252TIP3    H258172   3.300   5.775  14.623 -1.7601 -1.0661 -1.7326
12253TIP3   OH258173   3.678   4.464   3.362  0.1082 -0.0659 -0.1369
12253TIP3    H158174   3.752   4.463   3.301 -0.0706 -0.2587 -0.3534
12253TIP3    H258175   3.712   4.506   3.441  0.0997  1.0142 -0.6839
12254TIP3   OH258176   5.386   2.283  15.073  0.8520  0.2509  0.5103
12254TIP3    H158177   5.297   2.317  15.071  0.8482  0.2044 -0.2998
12254TIP3    H258178   5.376   2.190  15.096  0.7732  0.4624  1.3938
12255TIP3   OH258179   5.541   5.819  13.287 -0.2609  0.2759 -0.5345
12255TIP3    H158180   5.550   5.848  13.196 -0.2058 -1.0378 -0.9711
12255TIP3    H258181   5.464   5.762  13.286  0.2980 -0.5149  0.0288
12256TIP3   OH258182   3.520   4.381  11.095 -0.4529  0.0458  0.0656
12256TIP3    H158183   3.508   4.301  11.044 -0.6432 -0.3876  0.7760
12256TIP3    H258184   3.615   4.397  11.091 -0.5234  0.2784 -0.8033
12257TIP3   OH258185   0.276   5.725  14.964  0.1550  0.6967  0.9118
12257TIP3    H158186   0.297   5.818  14.967 -0.0418  0.9124 -1.7709
12257TIP3    H258187   0.362   5.681  14.958  0.2362  0.6947  1.9210
12258TIP3   OH258188   5.696   2.272  15.722 -0.2306 -0.4351  0.2291
12258TIP3    H158189   5.670   2.364  15.732 -0.4418 -0.6159  1.4534
12258TIP3    H258190   5.785   2.269  15.757 -0.9527 -1.0705  2.1088
12259TIP3   OH258191   1.472   3.709  17.068 -0.2795 -0.6142 -0.3382
12259TIP3    H158192   1.506   3.621  17.054  0.7635 -0.2939  0.0629
12259TIP3    H258193   1.382   3.705  17.038 -0.7493 -2.2477  1.1083
12260TIP3   OH258194   3.672   5.073  11.953 -0.0190  0.2918 -0.6065
12260TIP3    H158195   3.715   5.152  11.989  0.5191  0.8275 -2.3262
12260TIP3    H258196   3.703   5.002  12.009  1.5537  0.9527 -0.5809
12261TIP3   OH258197   5.860   0.645   4.683 -0.1310  0.2800 -0.7158
12261TIP3    H158198   5.795   0.660   4.614  1.1197 -1.3566 -2.3655
12261TIP3    H258199   5.876   0.550   4.680  1.7806  0.5393  0.0963
12262TIP3   OH258200   4.892   6.045   4.067 -0.0490  0.3337 -0.2525
12262TIP3    H158201   4.964   5.984   4.085  2.0030  2.9310  0.9852
12262TIP3    H258202   4.927   6.105   4.002 -1.1477  1.5724  0.2627
12263TIP3   OH258203   2.581   2.978   0.402  0.2723  0.1648  1.1386
12263TIP3    H158204   2.676   2.976   0.398  0.3246  1.5039  0.9993
12263TIP3    H258205   2.562   3.051   0.461 -0.6640  1.2863 -0.4761
12264TIP3   OH258206   4.365   4.831   0.482 -0.5302 -0.2974 -0.3613
12264TIP3    H158207   4.386   4.914   0.438 -1.0179 -1.0012 -1.9956
12264TIP3    H258208   4.418   4.766   0.436 -1.4186 -1.1284 -0.2330
12265TIP3   OH258209   4.588   2.357  16.837  0.4257 -0.3868  0.2894
12265TIP3    H158210   4.624   2.442  16.811 -0.3129 -0.1925 -0.1316
12265TIP3    H258211   4.658   2.295  16.820  1.1604  0.2023  1.0942
12266TIP3   OH258212   4.329   4.217   5.210  0.6021  0.3439  0.1915
12266TIP3    H158213   4.247   4.216   5.160  1.0724  0.3625 -0.5767
12266TIP3    H258214   4.388   4.272   5.160  1.5128 -0.7180  0.0675
12267TIP3   OH258215   5.092   0.283  11.794 -0.0085  0.6353 -0.0414
12267TIP3    H158216   5.054   0.367  11.821  0.4473  0.7056  0.3893
12267TIP3    H258217   5.017   0.224  11.790 -1.4038  2.1838 -5.5418
12268TIP3   OH258218   4.169   0.197   0.165  0.2029 -0.0507 -0.2264
12268TIP3    H158219   4.249   0.249   0.170  1.2616 -1.5917 -0.3897
12268TIP3    H258220   4.193   0.120   0.112 -1.0190 -1.1768  0.7769
12269TIP3   OH258221   5.918   5.707  12.657 -0.3665  0.1857 -0.7927
12269TIP3    H158222   5.869   5.744  12.584 -1.6540  0.7076  0.3006
12269TIP3    H258223   5.997   5.761  12.663 -1.3618  1.6603 -0.3516
12270TIP3   OH258224   3.111   6.413   5.777 -0.5137 -0.1930 -0.7678
12270TIP3    H158225   3.128   6.487   5.718 -1.4429  2.2530  1.8464
12270TIP3    H258226   3.017   6.417   5.795 -0.5771 -2.0054 -0.4583
12271TIP3   OH258227   2.971   2.175   3.763  0.1821  0.4790 -0.3051
12271TIP3    H158228   2.879   2.170   3.738  0.0548 -1.4087  0.4108
12271TIP3    H258229   3.016   2.116   3.703  1.0895  1.9444 -1.1411
12272TIP3   OH258230   6.726   5.512   5.825 -0.0255  0.3956  0.4047
12272TIP3    H158231   6.786   5.455   5.776  2.3829  1.3732  2.0079
12272TIP3    H258232   6.698   5.577   5.761 -1.3538 -1.4284 -0.9828
12273TIP3   OH258233   0.690   0.463   1.383 -0.2941 -0.4989  0.2796
12273TIP3    H158234   0.706   0.557   1.369 -0.7337 -0.5799 -0.9191
12273TIP3    H258235   0.762   0.419   1.339 -0.7362 -0.7427 -0.2131
12274TIP3   OH258236   0.794   3.738   2.384 -0.4333 -0.1596 -0.7293
12274TIP3    H158237   0.742   3.754   2.463  0.6458  1.5023 -0.3034
12274TIP3    H258238   0.808   3.824   2.347  2.5918 -0.4027 -0.4293
12275TIP3   OH258239   0.589   3.366  13.666  0.4285 -0.4522  0.1952
12275TIP3    H158240   0.516   3.346  13.725  1.6483  0.1108  1.9990
12275TIP3    H258241   0.599   3.461  13.671  0.4210 -0.3728 -1.1140
12276TIP3   OH258242   0.811   0.728  15.581  0.0290 -1.0776 -0.4308
12276TIP3    H158243   0.782   0.696  15.496  0.4327  2.4124 -2.0274
12276TIP3    H258244   0.905   0.710  15.583 -0.1159 -1.8783 -0.3195
12277TIP3   OH258245   4.082   2.767  12.346 -0.0230  0.0170  1.1432
12277TIP3    H158246   4.116   2.777  12.258  0.3636  0.1305  1.3052
12277TIP3    H258247   4.019   2.838  12.356  0.2753  0.2823  1.1237
12278TIP3   OH258248   4.774   4.979  13.642  0.4994 -0.6094 -0.5853
12278TIP3    H158249   4.712   4.912  13.612  1.0776 -1.8009  0.7546
12278TIP3    H258250   4.777   5.043  13.571 -3.7762  0.6286  0.0709
12279TIP3   OH258251   4.640   4.247  12.290 -0.2351  0.2128  0.7648
12279TIP3    H158252   4.681   4.318  12.241 -1.2567  0.8482  0.8075
12279TIP3    H258253   4.587   4.200  12.226 -1.7833  1.2022  1.2458
12280TIP3   OH258254   2.948   1.482  16.593  0.0984 -0.2713 -0.4735
12280TIP3    H158255   3.035   1.442  16.603 -0.6255 -1.4741  1.8040
12280TIP3    H258256   2.894   1.412  16.555 -0.5266 -0.6125  0.9554
12281TIP3   OH258257   5.388   3.408  12.504 -0.0144 -0.2869  0.3315
12281TIP3    H158258   5.326   3.465  12.549  0.4780  1.4747 -1.1147
12281TIP3    H258259   5.464   3.403  12.562 -1.7051 -3.2802  2.6112
12282TIP3   OH258260   4.075   1.704   6.471 -0.4354  0.6270 -0.0879
12282TIP3    H158261   4.168   1.718   6.490 -0.1341 -1.8067  0.5860
12282TIP3    H258262   4.074   1.627   6.415 -2.0823  0.2915  0.3625
12283TIP3   OH258263   5.074   3.909  15.440 -0.0871  0.1044  0.2747
12283TIP3    H158264   5.082   3.815  15.451 -1.7212 -0.1406 -0.3141
12283TIP3    H258265   5.141   3.932  15.376  1.3703 -0.3861  1.5889
12284TIP3   OH258266   6.328   0.590   1.628  0.0760 -0.1821 -0.4109
12284TIP3    H158267   6.343   0.568   1.720  0.5799  2.5420  0.2605
12284TIP3    H258268   6.415   0.613   1.594 -0.1257 -1.0372 -1.5460
12285TIP3   OH258269   5.929   5.164  11.599  0.0774 -0.6565 -0.3420
12285TIP3    H158270   5.968   5.079  11.616 -0.8124 -1.0296 -0.1442
12285TIP3    H258271   5.835   5.152  11.613  0.1853  1.1842  3.3483
12286TIP3   OH258272   3.769   4.216   3.649 -0.4246 -0.2297 -0.3690
12286TIP3    H158273   3.687   4.253   3.682  1.4500  1.8733  2.3268
12286TIP3    H258274   3.761   4.221   3.553 -3.7500 -1.0083 -0.2492
12287TIP3   OH258275   0.800   5.084   6.215  0.0208 -0.2880  0.2247
12287TIP3    H158276   0.713   5.113   6.189  1.0866  0.9608 -2.4124
12287TIP3    H258277   0.789   4.993   6.240 -2.3171  0.3633  1.8712
12288TIP3   OH258278   6.513   5.902  13.052 -0.4258 -0.1348 -0.8775
12288TIP3    H158279   6.587   5.961  13.040  0.1394 -0.6329  0.0311
12288TIP3    H258280   6.549   5.829  13.103 -0.6400 -2.1747 -3.4547
12289TIP3   OH258281   2.783   2.811   4.407 -0.1616 -0.1892  0.4329
12289TIP3    H158282   2.705   2.761   4.431  0.0890 -1.1068 -0.6023
12289TIP3    H258283   2.848   2.744   4.383  0.6241  0.5962  0.3271
12290TIP3   OH258284   1.956   2.242  12.171 -0.0443 -0.4912 -0.0206
12290TIP3    H158285   1.872   2.287  12.177 -0.0651 -0.5681  0.2943
12290TIP3    H258286   2.010   2.299  12.116 -0.7510 -1.1309 -1.4464
12291TIP3   OH258287   1.951   4.384   6.499  0.4492  0.0002  1.2626
12291TIP3    H158288   1.974   4.292   6.485 -1.3667 -0.6347  2.1686
12291TIP3    H258289   1.972   4.400   6.591  0.2739  0.3350  1.2458
12292TIP3   OH258290   3.545   2.122  13.305 -0.0753 -0.1979  0.3041
12292TIP3    H158291   3.576   2.202  13.347  0.1992 -0.3556  0.4095
12292TIP3    H258292   3.453   2.138  13.286 -0.3715 -0.3419  1.5266
12293TIP3   OH258293   6.427   1.748   3.143 -0.0997 -0.1684 -0.0217
12293TIP3    H158294   6.343   1.793   3.132  0.5519  0.9637 -0.5191
12293TIP3    H258295   6.410   1.681   3.209 -1.3583  0.1251 -0.0267
12294TIP3   OH258296   0.610   4.625  13.993  0.0598 -0.2174  0.1221
12294TIP3    H158297   0.687   4.587  13.951  0.1894 -0.7497  0.8286
12294TIP3    H258298   0.586   4.562  14.060 -1.3739 -0.3554 -0.4897
12295TIP3   OH258299   4.394   2.563  13.268  0.2203  0.1384 -0.5038
12295TIP3    H158300   4.454   2.572  13.194 -0.3557 -0.8301 -1.1120
12295TIP3    H258301   4.436   2.499  13.326  1.1654  1.6405  0.5593
12296TIP3   OH258302   6.129   1.140  12.036  0.0952  0.2183 -0.7195
12296TIP3    H158303   6.155   1.049  12.025  0.7621  0.0311  1.6822
12296TIP3    H258304   6.183   1.189  11.974  2.2335 -0.7310  0.2852
12297TIP3   OH258305   3.956   6.375  16.634  0.9264 -0.5996 -0.1514
12297TIP3    H158306   4.034   6.373  16.579  1.8773 -0.8322  1.1642
12297TIP3    H258307   3.982   6.330  16.714 -0.6281 -0.8714  0.2330
12298TIP3   OH258308   6.665   2.640  12.132  0.0147 -0.1272  0.2137
12298TIP3    H158309   6.633   2.651  12.222  0.5611  0.5507  0.3365
12298TIP3    H258310   6.695   2.727  12.107 -0.6615 -0.1878 -0.8454
12299TIP3   OH258311   6.241   5.123   5.426  0.1019 -0.1645  0.1026
12299TIP3    H158312   6.257   5.054   5.490  1.1904  0.5626  0.6419
12299TIP3    H258313   6.206   5.196   5.477  0.6930  0.3128 -0.1607
12300TIP3   OH258314   6.452   3.823   4.763  0.2309 -0.2191  0.2977
12300TIP3    H158315   6.377   3.820   4.823 -0.6321 -2.8597 -0.7547
12300TIP3    H258316   6.417   3.790   4.680  2.4021 -0.8557 -0.4179
12301TIP3   OH258317   2.139   3.529   0.569  0.0781 -0.0115 -0.2008
12301TIP3    H158318   2.135   3.526   0.665  0.6448  1.7542 -0.0834
12301TIP3    H258319   2.181   3.613   0.550  0.8448 -0.7574 -1.9899
12302TIP3   OH258320   3.147   1.035  15.634 -0.1896 -0.2281 -0.4542
12302TIP3    H158321   3.192   1.000  15.711 -1.9047 -0.4795  0.4659
12302TIP3    H258322   3.091   0.964  15.605  0.0024  0.0759 -1.6090
12303TIP3   OH258323   6.118   2.914  13.856  0.3180  0.0517 -0.5648
12303TIP3    H158324   6.102   3.005  13.882 -0.1740  0.3041 -1.6968
12303TIP3    H258325   6.185   2.883  13.917  0.4623  1.1644 -0.1435
12304TIP3   OH258326   6.211   6.548  14.065  0.1666  0.0767 -0.3102
12304TIP3    H158327   6.140   6.587  14.013 -0.3996 -0.8926 -0.2919
12304TIP3    H258328   6.287   6.551  14.007 -0.1394  0.2032 -0.7110
12305TIP3   OH258329   6.461   2.494   5.660  0.6716  0.4161 -0.6331
12305TIP3    H158330   6.537   2.501   5.717  0.5477 -0.8563 -0.2876
12305TIP3    H258331   6.469   2.408   5.618 -0.2846  0.4909 -1.0019
12306TIP3   OH258332   6.747   0.438  13.932  0.0293 -0.4509  0.5160
12306TIP3    H158333   6.776   0.524  13.962 -0.9223 -0.6400  2.0874
12306TIP3    H258334   6.667   0.421  13.982 -0.8247 -1.4531 -1.1217
12307TIP3   OH258335   5.773   5.421   5.697  0.1811  0.1122  0.4442
12307TIP3    H158336   5.860   5.454   5.720  0.4973  0.2637 -0.8812
12307TIP3    H258337   5.715   5.496   5.710  0.9036  1.3476 -2.6155
12308TIP3   OH258338   4.411   1.307  12.872  0.3835  0.3557  0.2248
12308TIP3    H158339   4.345   1.375  12.865 -1.1590 -1.2705 -3.2116
12308TIP3    H258340   4.474   1.328  12.803  0.9093 -0.6974  0.3665
12309TIP3   OH258341   4.277   1.132  15.013 -0.2034  0.1328 -0.0119
12309TIP3    H158342   4.197   1.131  15.065 -0.4620 -1.0481 -0.3880
12309TIP3    H258343   4.308   1.041  15.016  1.1732  0.5922  0.2008
12310TIP3   OH258344   3.049   1.200   5.622  0.1704  0.1868 -0.1548
12310TIP3    H158345   3.006   1.142   5.684 -1.4306  0.4713 -0.9422
12310TIP3    H258346   3.116   1.245   5.674 -1.6684  1.0492  1.6281
12311TIP3   OH258347   3.426   3.603   6.424 -0.1162 -0.5298  0.3772
12311TIP3    H158348   3.510   3.574   6.459  0.9479  2.3360  0.4199
12311TIP3    H258349   3.392   3.663   6.490 -0.9370  0.3459 -0.8086
12312TIP3   OH258350   2.837   3.465  16.313 -0.0699  0.0099 -0.2577
12312TIP3    H158351   2.813   3.458  16.406  0.3707 -0.3718 -0.1625
12312TIP3    H258352   2.923   3.507  16.314  0.7487 -1.5837 -0.3656
12313TIP3   OH258353   5.032   4.524   1.835  0.7805 -0.5118  0.0007
12313TIP3    H158354   4.950   4.533   1.787  1.1279 -0.5504 -0.6104
12313TIP3    H258355   5.095   4.493   1.770  1.4382  0.1485  0.3050
12314TIP3   OH258356   6.247   5.742   3.308 -0.0126  0.0058 -0.4795
12314TIP3    H158357   6.191   5.804   3.355 -0.9958  0.3732 -2.0504
12314TIP3    H258358   6.193   5.664   3.297 -0.3652  0.4519 -2.2252
12315TIP3   OH258359   5.171   3.978   5.617  0.2872  0.2426 -0.0727
12315TIP3    H158360   5.084   3.941   5.600 -0.6967  3.0308 -1.6906
12315TIP3    H258361   5.231   3.920   5.572 -0.8875 -0.8605 -0.2775
12316TIP3   OH258362   2.070   3.009   0.206 -0.6684  0.5257 -0.1620
12316TIP3    H158363   1.978   3.037   0.206 -1.5843 -2.1521  0.4104
12316TIP3    H258364   2.073   2.940   0.140  0.7390 -0.0398  0.4678
12317TIP3   OH258365   3.228   5.231  14.251 -0.1194  0.1827 -0.6944
12317TIP3    H158366   3.257   5.214  14.161 -1.2749  0.7886 -1.1949
12317TIP3    H258367   3.309   5.231  14.302  0.3448 -2.7880 -1.2609
12318TIP3   OH258368   5.291   2.120  13.504  0.5004 -0.7447 -0.0047
12318TIP3    H158369   5.349   2.088  13.573 -0.2141 -1.0803  0.4491
12318TIP3    H258370   5.276   2.044  13.448 -0.1773 -0.8956  0.3630
12319TIP3   OH258371   5.589   3.824   2.961 -0.0629  0.3644 -0.7806
12319TIP3    H158372   5.608   3.773   2.883 -2.1262 -2.6388  0.4839
12319TIP3    H258373   5.509   3.871   2.940 -0.8005 -0.6954 -0.4583
12320TIP3   OH258374   0.669   1.502  14.198 -0.6025  0.2235  0.5325
12320TIP3    H158375   0.741   1.511  14.136 -0.6999 -0.4938  0.3053
12320TIP3    H258376   0.625   1.420  14.173 -0.8621  0.1060  1.3229
12321TIP3   OH258377   1.234   3.206   0.447  0.0130  0.2958  0.8150
12321TIP3    H158378   1.140   3.220   0.461 -0.4359 -1.5011 -0.0574
12321TIP3    H258379   1.261   3.147   0.517  0.2805  0.0707  0.5255
12322TIP3   OH258380   4.704   4.321  15.031 -0.2567  0.1475 -0.1479
12322TIP3    H158381   4.685   4.414  15.015 -0.7603  0.0809  0.0402
12322TIP3    H258382   4.628   4.289  15.079  1.2785  0.3652  2.6074
12323TIP3   OH258383   6.561   5.537  15.945 -0.3918 -0.4019 -0.8563
12323TIP3    H158384   6.516   5.490  15.875  0.1408 -3.0456  0.4425
12323TIP3    H258385   6.492   5.586  15.989 -0.8150  0.8851 -2.8424
12324TIP3   OH258386   4.615   5.861   2.267  0.3419 -0.8709 -0.4810
12324TIP3    H158387   4.523   5.842   2.244  0.7193 -3.2703 -0.3208
12324TIP3    H258388   4.612   5.887   2.359 -0.1319 -1.7651 -0.2270
12325TIP3   OH258389   0.070   5.741  11.679 -0.2680 -0.2864 -0.3493
12325TIP3    H158390  -0.021   5.758  11.657 -0.6228 -1.2299  0.3309
12325TIP3    H258391   0.067   5.674  11.747  0.9251 -0.1610 -0.1405
12326TIP3   OH258392   0.311   4.786   3.793  0.2953  0.1291  1.0380
12326TIP3    H158393   0.219   4.772   3.767  1.2503 -1.3817 -2.0032
12326TIP3    H258394   0.331   4.713   3.850  0.2978 -1.1454 -0.5164
12327TIP3   OH258395   1.266   5.416  10.878  0.1403 -0.2741 -0.1368
12327TIP3    H158396   1.314   5.355  10.822 -0.1224 -0.4396 -0.1819
12327TIP3    H258397   1.327   5.489  10.892  0.4526 -0.5450 -0.0859
12328TIP3   OH258398   0.852   1.864  16.979 -0.1116 -0.3118 -0.4010
12328TIP3    H158399   0.834   1.900  16.892 -0.4471 -0.1599 -0.2653
12328TIP3    H258400   0.942   1.890  16.998  0.1618 -0.8292 -0.9484
12329TIP3   OH258401   6.074   4.885  15.896 -0.0806  0.5925  0.1960
12329TIP3    H158402   6.056   4.966  15.943 -0.0631  0.8819 -0.2873
12329TIP3    H258403   6.151   4.849  15.939  0.0652  0.9666  0.2568
12330TIP3   OH258404   5.923   1.085   1.595  0.4799 -0.4497 -0.2467
12330TIP3    H158405   5.906   1.014   1.534 -2.9747 -1.1142  1.2411
12330TIP3    H258406   5.921   1.164   1.542 -0.1024 -1.1700 -1.3192
12331TIP3   OH258407   0.325   1.266  16.895 -0.1990 -0.3623 -0.1835
12331TIP3    H158408   0.345   1.244  16.986  0.0054  0.7884  0.0675
12331TIP3    H258409   0.377   1.204  16.844  2.3395  1.0482  0.4821
12332TIP3   OH258410   1.021   5.212  10.685 -0.4735  0.0203  0.4729
12332TIP3    H158411   0.927   5.220  10.669 -0.5673 -1.9963 -0.3184
12332TIP3    H258412   1.051   5.148  10.620  1.0043 -1.0868  2.1454
12333TIP3   OH258413   6.043   1.114   4.775  0.1319  0.5392  0.2069
12333TIP3    H158414   6.057   1.019   4.784  0.7627  0.5862 -0.2011
12333TIP3    H258415   6.021   1.143   4.863  0.4686  0.0933  0.4445
12334TIP3   OH258416   4.186   3.166  13.952  0.5055  0.4829 -0.5018
12334TIP3    H158417   4.101   3.124  13.938 -0.1251  0.9745  1.6076
12334TIP3    H258418   4.172   3.257  13.923  0.1262  0.6985  0.3172
12335TIP3   OH258419   3.216   2.117   2.706  0.5450  0.5968 -0.0976
12335TIP3    H158420   3.235   2.159   2.789 -1.1666 -0.1705  0.7416
12335TIP3    H258421   3.226   2.023   2.723 -0.6585  0.3746 -0.4728
12336TIP3   OH258422   2.029   2.919  14.986  0.9788 -0.0810  0.4512
12336TIP3    H158423   2.095   2.946  15.050  1.0231 -3.3095  1.9884
12336TIP3    H258424   2.076   2.913  14.903  1.0419  3.7154  0.0504
12337TIP3   OH258425   4.254   6.006  14.512  0.6047 -0.2509 -0.5310
12337TIP3    H158426   4.284   5.998  14.421  2.2472  2.3084 -0.2960
12337TIP3    H258427   4.171   6.052  14.506  2.4004  3.2947 -0.7042
12338TIP3   OH258428   1.983   4.705   5.946  0.2397 -0.2912 -0.2932
12338TIP3    H158429   1.996   4.716   6.040  0.9677 -0.5532 -0.3626
12338TIP3    H258430   1.902   4.753   5.928 -1.2008 -2.1388  0.8594
12339TIP3   OH258431   4.087   5.740  11.827 -0.6118 -0.7514 -0.0539
12339TIP3    H158432   4.133   5.687  11.892 -1.9277 -2.0117 -0.0929
12339TIP3    H258433   3.997   5.706  11.828 -1.3589  1.0863 -0.5380
12340TIP3   OH258434   1.683   4.837  13.379  0.0462 -0.0371 -0.4730
12340TIP3    H158435   1.706   4.776  13.310  2.3315  1.6615 -1.3492
12340TIP3    H258436   1.762   4.843  13.434 -0.4377  1.3688  0.1368
12341TIP3   OH258437   0.861   6.687   3.468 -0.0734 -0.6963  0.9125
12341TIP3    H158438   0.783   6.742   3.455  0.4007 -0.1518  0.2910
12341TIP3    H258439   0.838   6.602   3.430 -0.2177 -0.4073  0.3514
12342TIP3   OH258440   4.644   2.130  16.335  0.1213 -0.0533  0.2453
12342TIP3    H158441   4.556   2.168  16.342  0.0223 -0.1025 -0.5847
12342TIP3    H258442   4.630   2.036  16.332  0.2334 -0.0790  0.5085
12343TIP3   OH258443   3.094   6.323   5.188  0.3789 -0.2508 -0.0608
12343TIP3    H158444   3.077   6.282   5.103  1.0227 -0.1362 -0.2545
12343TIP3    H258445   3.185   6.353   5.182  0.4401 -0.2682  0.6831
12344TIP3   OH258446   6.629   1.979   2.891 -0.6576 -0.1616  0.1304
12344TIP3    H158447   6.715   1.938   2.900 -0.9102 -0.5199  1.0476
12344TIP3    H258448   6.606   1.967   2.799 -0.3671 -1.3648  0.1965
12345TIP3   OH258449   5.885   3.386   4.356 -0.0565 -0.0743 -0.2537
12345TIP3    H158450   5.814   3.446   4.378 -0.0345 -0.1089 -0.0855
12345TIP3    H258451   5.842   3.310   4.317 -0.2720 -0.8233  1.3437
12346TIP3   OH258452   0.862   4.753   5.301  0.2733 -0.0758  0.6410
12346TIP3    H158453   0.946   4.716   5.275  0.1012 -1.0328  1.3771
12346TIP3    H258454   0.875   4.782   5.391 -0.0331  0.2835  0.5742
12347TIP3   OH258455   2.555   4.652  11.162 -0.3708  0.3335  0.0781
12347TIP3    H158456   2.496   4.696  11.101 -1.5934 -0.1313  0.8769
12347TIP3    H258457   2.634   4.706  11.163 -0.9176  1.1720 -0.7549
12348TIP3   OH258458   3.296   1.005  11.137  0.0989 -0.7624  0.2474
12348TIP3    H158459   3.274   1.091  11.172 -0.3690  0.0875 -1.9895
12348TIP3    H258460   3.212   0.968  11.110  0.3925 -1.5673  0.4059
12349TIP3   OH258461   2.112   6.501   4.503 -0.3244  0.6962 -0.2110
12349TIP3    H158462   2.180   6.544   4.452  0.7871  0.6834  1.1768
12349TIP3    H258463   2.156   6.427   4.544 -0.9844  1.0566  1.2219
12350TIP3   OH258464   5.309   4.868   0.743  0.1392 -0.1765  0.0038
12350TIP3    H158465   5.320   4.773   0.740  0.6714 -0.2109  1.6427
12350TIP3    H258466   5.246   4.882   0.815  0.3539  0.7197  0.0323
12351TIP3   OH258467   0.047   4.236  13.428 -0.0734 -0.0110 -0.5325
12351TIP3    H158468   0.010   4.150  13.447 -0.0977  0.2104  0.4609
12351TIP3    H258469   0.042   4.283  13.511 -2.6484  1.9211 -1.6547
12352TIP3   OH258470   3.857   6.779  16.260  0.0320  0.0167  0.1304
12352TIP3    H158471   3.948   6.753  16.252 -0.3480 -1.2510 -0.2747
12352TIP3    H258472   3.841   6.785  16.354  0.7209  0.9761  0.1945
12353TIP3   OH258473   5.748   2.955   3.414 -0.4353  0.1025  0.1953
12353TIP3    H158474   5.721   3.020   3.350 -0.5900  1.5580  1.6732
12353TIP3    H258475   5.834   2.983   3.443  0.5849 -1.7331 -0.8643
12354TIP3   OH258476   5.018   2.357   2.994 -0.3251 -0.0469 -0.3784
12354TIP3    H158477   4.937   2.328   2.953  0.8832 -1.0014 -2.2388
12354TIP3    H258478   5.067   2.400   2.923  1.0266  0.0234  0.5491
12355TIP3   OH258479   4.130   4.374  14.783  0.5979  0.5491  0.5221
12355TIP3    H158480   4.096   4.294  14.824 -0.9460  0.9114  0.0025
12355TIP3    H258481   4.219   4.382  14.817  0.3650 -0.7455  1.5143
12356TIP3   OH258482   2.964   0.138  14.587  0.3042 -0.6016  0.7215
12356TIP3    H158483   2.961   0.118  14.493  0.4665 -0.6265  0.7206
12356TIP3    H258484   3.056   0.160  14.604 -0.1677  1.8664  0.3827
12357TIP3   OH258485   3.370   5.925   2.126 -1.0020  0.4787 -0.0266
12357TIP3    H158486   3.462   5.905   2.109 -1.2574 -1.4056  0.5470
12357TIP3    H258487   3.323   5.895   2.048 -1.1860  1.1629 -0.1932
12358TIP3   OH258488   3.098   0.968  15.299 -0.1004 -0.4184 -0.4674
12358TIP3    H158489   3.085   1.060  15.321  2.1894  0.3851 -2.0598
12358TIP3    H258490   3.085   0.922  15.382  1.3315  1.6503  1.0209
12359TIP3   OH258491   6.537   5.957  15.535  0.2239 -0.2171 -0.5059
12359TIP3    H158492   6.454   5.921  15.503  0.3617 -0.3409 -0.7228
12359TIP3    H258493   6.549   6.037  15.484  0.8995 -0.8822 -1.4245
12360TIP3   OH258494   4.900   3.066   0.564  0.0588 -0.3146  0.8572
12360TIP3    H158495   4.956   2.988   0.555 -0.3583 -0.4412 -0.8841
12360TIP3    H258496   4.953   3.137   0.528  0.7971  0.4488  3.2590
12361TIP3   OH258497   1.743   2.863   0.614  0.1983  0.1733 -0.1191
12361TIP3    H158498   1.722   2.873   0.707  1.1891 -1.0163  0.2628
12361TIP3    H258499   1.815   2.925   0.600 -0.0589  0.4701 -0.1398
12362TIP3   OH258500   3.892   0.096  16.879  0.3567  0.4111 -1.0816
12362TIP3    H158501   3.810   0.071  16.921  1.7683 -0.7153  1.2114
12362TIP3    H258502   3.875   0.184  16.845 -1.6182  0.4167 -0.2411
12363TIP3   OH258503   2.153   0.298  10.625  1.1351  0.0192  0.2596
12363TIP3    H158504   2.197   0.255  10.552  0.5653 -1.7468  0.9069
12363TIP3    H258505   2.159   0.235  10.697  0.8815  1.3307  1.4791
12364TIP3   OH258506   1.350   6.332  10.915  0.5333 -0.1366 -0.6082
12364TIP3    H158507   1.349   6.418  10.872 -1.0993 -0.8006 -2.0366
12364TIP3    H258508   1.298   6.344  10.994  1.6321  0.5511  0.0255
12365TIP3   OH258509   6.354   4.319  14.577  0.1866 -0.3187  0.4250
12365TIP3    H158510   6.284   4.326  14.642 -0.3360 -1.7145  0.0337
12365TIP3    H258511   6.410   4.248  14.608 -0.0296 -0.9583 -0.5895
12366TIP3   OH258512   6.238   4.097   4.125 -0.1883 -0.0709 -0.3276
12366TIP3    H158513   6.198   4.010   4.120 -0.4747  0.0346  0.0648
12366TIP3    H258514   6.257   4.109   4.218 -2.0398  1.1050 -0.0364
12367TIP3   OH258515   6.608   6.400   2.341  0.3184  0.7673 -0.8217
12367TIP3    H158516   6.658   6.482   2.352 -0.6457  1.6760 -2.7203
12367TIP3    H258517   6.564   6.410   2.256  0.2179 -1.7728 -1.1441
12368TIP3   OH258518   5.971   0.784   3.908 -0.2371  0.0953 -0.4495
12368TIP3    H158519   5.913   0.860   3.905 -1.9005 -1.1217 -0.4067
12368TIP3    H258520   5.914   0.711   3.931  1.0530 -1.4317 -1.8402
12369TIP3   OH258521   5.180   0.644   3.728  0.5140 -0.1008 -0.2394
12369TIP3    H158522   5.162   0.736   3.713  0.9592  0.0512  0.1337
12369TIP3    H258523   5.095   0.605   3.746  0.2621  0.1434 -0.8568
12370TIP3   OH258524   6.682   1.908  11.656  0.4199 -0.1273 -0.2303
12370TIP3    H158525   6.731   1.901  11.738  1.2097 -1.2198 -0.7648
12370TIP3    H258526   6.749   1.928  11.590 -0.4556  2.7355 -0.3581
12371TIP3   OH258527   0.849   3.029   2.705 -0.1967 -0.5033 -0.2690
12371TIP3    H158528   0.890   3.025   2.792  0.9658  0.7939 -0.7318
12371TIP3    H258529   0.763   3.067   2.721 -0.6395 -1.7392  0.4969
12372TIP3   OH258530   6.758   1.946  16.635 -0.3451 -0.5125 -0.3583
12372TIP3    H158531   6.826   2.012  16.648 -0.8073 -0.0059 -0.5235
12372TIP3    H258532   6.681   1.981  16.678 -0.6744 -0.8188 -0.6902
12373TIP3   OH258533   6.266   4.439   0.191  0.5889  0.1437 -0.5721
12373TIP3    H158534   6.189   4.385   0.170 -0.0271  1.1897 -1.0753
12373TIP3    H258535   6.287   4.417   0.282  0.2310 -0.7899 -0.7012
12374TIP3   OH258536   1.100   2.762  13.197  0.0633 -0.4396 -0.0640
12374TIP3    H158537   1.131   2.687  13.147  0.3939  0.5027 -1.3134
12374TIP3    H258538   1.120   2.838  13.142  1.2182  0.7344  1.8449
12375TIP3   OH258539   0.140   1.978  14.274  0.5220  0.4180 -0.2190
12375TIP3    H158540   0.154   1.960  14.367  0.2982  0.7945 -0.1082
12375TIP3    H258541   0.136   1.892  14.233  0.4719  0.2438  0.1440
12376TIP3   OH258542   2.672   6.094   2.834  0.1202  0.5644  0.2042
12376TIP3    H158543   2.714   6.014   2.864 -0.8600  0.7268  2.1778
12376TIP3    H258544   2.701   6.104   2.743  0.4014 -1.9003 -0.0354
12377TIP3   OH258545   0.943   2.162  13.858  0.1047 -0.1380 -0.1098
12377TIP3    H158546   0.880   2.214  13.907 -0.2331  0.1071 -0.7938
12377TIP3    H258547   1.003   2.226  13.819  1.2281 -0.3945  1.1006
12378TIP3   OH258548   4.758   2.965  17.094 -0.1056 -0.3725 -0.1134
12378TIP3    H158549   4.719   2.881  17.070  1.3126 -1.1088  0.0592
12378TIP3    H258550   4.836   2.942  17.144  0.3146  1.0498 -0.0635
12379TIP3   OH258551   4.907   4.901   5.365  0.0730 -0.0917 -0.1899
12379TIP3    H158552   4.955   4.908   5.447  0.4700 -0.0511 -0.4271
12379TIP3    H258553   4.950   4.831   5.317 -1.5226 -1.6658  0.5559
12380TIP3   OH258554   3.149   2.063  13.999  0.4193 -0.2550  0.2218
12380TIP3    H158555   3.203   2.099  14.070 -0.6287  1.1453  0.3616
12380TIP3    H258556   3.061   2.096  14.017  0.1541  0.2917 -1.8304
12381TIP3   OH258557   1.517   2.624   1.972 -0.1849 -0.4334 -0.0277
12381TIP3    H158558   1.542   2.624   1.880  0.7672  0.2545  0.2049
12381TIP3    H258559   1.600   2.635   2.019 -0.9403  4.4327  0.7218
12382TIP3   OH258560   4.736   1.636  15.894 -0.5108 -0.3615 -0.1761
12382TIP3    H158561   4.682   1.641  15.973 -2.8287  1.1001 -1.7138
12382TIP3    H258562   4.677   1.599  15.828  1.4999 -2.0014 -1.1716
12383TIP3   OH258563   4.444   1.363  16.262  0.0570  0.0396  0.3427
12383TIP3    H158564   4.416   1.320  16.342  0.4653 -3.6482 -1.2847
12383TIP3    H258565   4.363   1.380  16.214 -0.1150  1.2397  1.0331
12384TIP3   OH258566   5.264   6.743  15.425 -0.4274  0.2174 -0.4316
12384TIP3    H158567   5.225   6.779  15.345  1.9223 -0.5807 -2.0233
12384TIP3    H258568   5.355   6.725  15.402  0.5390  0.5794  2.6575
12385TIP3   OH258569   6.184   6.603   3.381 -0.3222 -0.4389  0.0299
12385TIP3    H158570   6.136   6.685   3.383  0.6557  0.2017 -1.3619
12385TIP3    H258571   6.267   6.623   3.426  0.5767 -0.1812 -1.6730
12386TIP3   OH258572   3.807   1.499  15.006 -0.5353  0.6349 -0.1208
12386TIP3    H158573   3.778   1.579  15.049  0.9989  0.3129  1.6285
12386TIP3    H258574   3.858   1.529  14.931 -1.6968  1.2293 -0.7031
12387TIP3   OH258575   3.867   2.497  13.811  0.4740 -0.0888  0.2338
12387TIP3    H158576   3.892   2.501  13.718 -3.3168  1.4470 -0.9429
12387TIP3    H258577   3.844   2.406  13.826 -0.7196 -0.0431 -1.0275
12388TIP3   OH258578   0.204   0.634  12.031 -0.6150 -0.1134 -0.7312
12388TIP3    H158579   0.242   0.547  12.040 -0.5394 -0.0101  0.0483
12388TIP3    H258580   0.258   0.678  11.965  1.3782  0.4162  1.1292
12389TIP3   OH258581   1.290   2.177  13.380 -0.2778  0.4748 -0.3149
12389TIP3    H158582   1.220   2.147  13.322  1.0824 -1.0206 -1.2709
12389TIP3    H258583   1.341   2.238  13.326  0.0845  0.2839 -0.1934
12390TIP3   OH258584   5.895   4.501   2.027 -0.7997  0.0776 -0.6321
12390TIP3    H158585   5.925   4.469   1.942 -2.0356  1.1914 -1.5374
12390TIP3    H258586   5.904   4.426   2.086  2.7123  0.0597 -1.0221
12391TIP3   OH258587   1.906   4.963  10.361 -0.2962 -0.1485  0.3336
12391TIP3    H158588   1.879   4.882  10.319  0.4979 -0.1298 -0.2264
12391TIP3    H258589   2.002   4.958  10.366 -0.3715 -1.1180  4.0381
12392TIP3   OH258590   1.303   2.324   2.069 -0.2640  0.1735  0.7033
12392TIP3    H158591   1.223   2.376   2.061  0.3480  0.8202 -2.2218
12392TIP3    H258592   1.279   2.237   2.038  0.2698  0.5356 -0.7893
12393TIP3   OH258593   6.289   0.100  12.987 -0.5307  0.2113  0.3889
12393TIP3    H158594   6.334   0.146  12.917 -0.0187 -1.1500 -0.1909
12393TIP3    H258595   6.196   0.113  12.968 -0.4427 -1.4561 -1.4788
12394TIP3   OH258596   5.097   5.688   5.751 -0.0470 -0.3377 -0.2112
12394TIP3    H158597   5.130   5.601   5.771 -3.0467 -1.9366 -1.5622
12394TIP3    H258598   5.137   5.711   5.667 -2.1005 -2.2153 -1.8078
12395TIP3   OH258599   5.427   6.614  12.819 -0.2087  0.3674  0.2788
12395TIP3    H158600   5.344   6.623  12.773 -0.5175 -0.1228  0.7333
12395TIP3    H258601   5.482   6.684  12.783 -0.7314  0.5385 -0.2012
12396TIP3   OH258602   4.007   6.017   1.770 -0.3510  0.0570 -0.4191
12396TIP3    H158603   4.067   5.987   1.838 -0.1714  0.2260 -0.5046
12396TIP3    H258604   4.063   6.053   1.701 -0.5435  0.1130 -0.5494
12397TIP3   OH258605   5.976   1.358   3.991 -0.6015 -0.1131  1.2160
12397TIP3    H158606   6.042   1.423   3.968 -0.9514 -0.3611 -0.6168
12397TIP3    H258607   5.964   1.307   3.911 -1.3699 -1.5251  2.1999
12398TIP3   OH258608   3.401   2.575   0.473  0.2033  0.3521 -0.2866
12398TIP3    H158609   3.475   2.633   0.456  1.6559 -1.6159 -1.1858
12398TIP3    H258610   3.369   2.601   0.559  0.9584  2.2535 -0.5274
12399TIP3   OH258611   3.284   6.236  15.894  0.0441 -0.2376  0.0330
12399TIP3    H158612   3.209   6.208  15.947 -0.7126 -0.1495 -0.9749
12399TIP3    H258613   3.255   6.317  15.853  0.6981 -0.2040 -0.3743
12400TIP3   OH258614   1.306   5.855   2.603  0.1190 -0.0208 -0.0577
12400TIP3    H158615   1.284   5.916   2.673 -1.5742  0.6990 -1.1548
12400TIP3    H258616   1.390   5.818   2.630 -0.5010  0.1427  2.3866
12401TIP3   OH258617   2.355   2.930   3.940 -0.4549  0.1419  0.3737
12401TIP3    H158618   2.424   2.905   4.001  0.5340 -0.1832 -0.8385
12401TIP3    H258619   2.319   3.011   3.975  0.1148 -0.0247  1.3570
12402TIP3   OH258620   2.817   5.203  13.197 -0.6683 -0.2165  0.7708
12402TIP3    H158621   2.902   5.228  13.161 -0.6414 -1.0740  0.2104
12402TIP3    H258622   2.813   5.108  13.185 -2.3869  0.0077 -0.7161
12403TIP3   OH258623   5.589   0.364  13.995 -0.2289  0.1796 -0.1081
12403TIP3    H158624   5.532   0.356  14.072 -0.4741  0.9883 -0.2013
12403TIP3    H258625   5.530   0.392  13.925  0.0159 -0.4352 -0.5711
12404TIP3   OH258626   4.563   0.011  16.099  0.2062 -0.3046 -0.4733
12404TIP3    H158627   4.607   0.018  16.184 -0.5379 -1.8057  0.0658
12404TIP3    H258628   4.527   0.098  16.084 -2.0470 -0.6356  2.1099
12405TIP3   OH258629   3.929   0.885   2.652  0.6190  0.5290 -0.2333
12405TIP3    H158630   3.947   0.946   2.723 -2.2209 -0.6271  1.6573
12405TIP3    H258631   3.837   0.903   2.629  0.4528 -1.4050 -1.2661
12406TIP3   OH258632   2.228   1.442  13.531  0.5058 -0.3682  0.1730
12406TIP3    H158633   2.205   1.435  13.624 -0.4452  1.1445  0.0869
12406TIP3    H258634   2.230   1.536  13.514 -0.9753 -0.6204 -1.7064
12407TIP3   OH258635   3.343   5.526   4.589 -0.1074 -0.3653  0.1671
12407TIP3    H158636   3.353   5.515   4.683 -0.1545 -0.7658  0.1268
12407TIP3    H258637   3.377   5.444   4.552 -2.8182 -1.5064 -0.0316
12408TIP3   OH258638   5.927   3.813   2.497  0.5501 -0.7191  0.8571
12408TIP3    H158639   5.885   3.764   2.567  0.3401 -0.5294  0.8668
12408TIP3    H258640   6.003   3.854   2.538  0.2785 -0.3911  1.0399
12409TIP3   OH258641   4.885   5.135   1.700 -0.3095 -0.0189  0.1453
12409TIP3    H158642   4.929   5.185   1.769  0.1074 -0.3655  0.1351
12409TIP3    H258643   4.821   5.196   1.664 -0.9516 -0.0119  1.2374
12410TIP3   OH258644   5.725   5.751  17.010 -0.1791 -0.1566  0.2474
12410TIP3    H158645   5.637   5.717  17.026 -1.1703  1.3226 -1.5772
12410TIP3    H258646   5.784   5.678  17.029 -1.9927 -2.0510 -0.9814
12411TIP3   OH258647   6.709   1.588   4.834  0.1978  0.2794  0.4975
12411TIP3    H158648   6.763   1.521   4.793 -2.6556 -2.5424  0.9534
12411TIP3    H258649   6.660   1.626   4.761  1.1207  1.2768  0.3658
12412TIP3   OH258650   2.395   5.945  17.037 -0.1308  0.6606 -0.0742
12412TIP3    H158651   2.333   5.997  16.985  0.8086  0.5192 -1.3935
12412TIP3    H258652   2.396   5.860  16.994 -1.4973 -0.4580  1.9460
12413TIP3   OH258653   6.272   4.561   0.959  0.3054  0.1014  0.1972
12413TIP3    H158654   6.219   4.493   1.002 -1.8311  1.8907  0.5141
12413TIP3    H258655   6.258   4.639   1.012  1.5284  1.1912 -1.0273
12414TIP3   OH258656   5.643   5.877  15.957  0.0855 -0.3726  0.0681
12414TIP3    H158657   5.601   5.797  15.990  1.1141 -1.8242 -1.8959
12414TIP3    H258658   5.729   5.848  15.927  0.6200  1.5680 -0.4078
12415TIP3   OH258659   1.488   3.384   3.835  0.2219 -0.0250 -0.2744
12415TIP3    H158660   1.491   3.469   3.879  0.4268  0.2238 -0.7591
12415TIP3    H258661   1.579   3.369   3.808  0.0759 -0.1059 -0.7306
12416TIP3   OH258662   6.493   5.730   0.695 -0.3947 -0.9650  0.0255
12416TIP3    H158663   6.480   5.687   0.779 -2.9847 -0.9268 -0.2750
12416TIP3    H258664   6.467   5.821   0.710 -0.3919 -0.8435 -0.6728
12417TIP3   OH258665   3.074   1.930  15.138  0.0155 -0.0105  0.6360
12417TIP3    H158666   3.145   1.975  15.093  0.0498  0.0228  0.7220
12417TIP3    H258667   3.105   1.921  15.228 -0.3843  0.6457  0.8417
12418TIP3   OH258668   6.693   4.408   5.451  0.0592  0.6751  0.3385
12418TIP3    H158669   6.777   4.408   5.406 -0.4149 -0.5586 -0.6155
12418TIP3    H258670   6.710   4.363   5.534  0.1855 -0.3441 -0.2208
12419TIP3   OH258671   1.238   5.567  12.811  0.0913 -0.0271 -0.0944
12419TIP3    H158672   1.307   5.510  12.776 -0.1758 -0.9852  0.9011
12419TIP3    H258673   1.163   5.550  12.753 -0.4417 -1.8369  1.0281
12420TIP3   OH258674   0.979   1.800   2.906 -0.2489 -0.1877 -0.1026
12420TIP3    H158675   0.927   1.874   2.875  0.1622 -0.1447 -0.7211
12420TIP3    H258676   1.060   1.806   2.856  1.0253  0.6609  1.9456
12421TIP3   OH258677   1.927   2.955   5.951 -0.3087 -0.0879 -0.5435
12421TIP3    H158678   1.862   2.919   6.011 -0.2511 -0.9655 -0.9756
12421TIP3    H258679   1.948   3.041   5.986 -0.4332 -0.4897  0.5628
12422TIP3   OH258680   1.764   0.652  11.880 -0.0540  0.0947 -0.1214
12422TIP3    H158681   1.688   0.602  11.848  0.6656 -0.6896 -0.6656
12422TIP3    H258682   1.759   0.736  11.834 -0.4080 -0.0800 -0.4056
12423TIP3   OH258683   1.396   1.331  16.000  0.0576 -0.3287  0.0869
12423TIP3    H158684   1.427   1.389  15.931  0.4130 -1.5598 -0.7989
12423TIP3    H258685   1.301   1.329  15.988 -0.0639  0.7199  0.6682
12424TIP3   OH258686   5.287   5.380  16.348  0.0095 -0.3146  0.1081
12424TIP3    H158687   5.263   5.288  16.335 -0.3767 -0.3710  1.0796
12424TIP3    H258688   5.262   5.423  16.266  1.9753 -1.3809 -1.1213
12425TIP3   OH258689   1.733   2.618  10.912 -0.1943 -0.6297  0.3454
12425TIP3    H158690   1.671   2.646  10.979 -0.1095 -0.5992  0.4115
12425TIP3    H258691   1.764   2.699  10.871 -0.4923 -0.6656  0.0480
12426TIP3   OH258692   6.425   6.376  14.389 -0.2444  0.1969  0.0814
12426TIP3    H158693   6.374   6.316  14.335 -0.0405  0.4802 -0.4370
12426TIP3    H258694   6.375   6.458  14.386  0.1401  0.4197 -0.2720
12427TIP3   OH258695   4.871   1.781   5.832 -0.1865  0.4019 -0.2113
12427TIP3    H158696   4.910   1.697   5.853 -0.9948 -0.0547 -0.4959
12427TIP3    H258697   4.827   1.767   5.748  0.4205  1.3556 -0.7207
12428TIP3   OH258698   3.419   5.334   3.852 -0.4123  0.2106 -0.0974
12428TIP3    H158699   3.369   5.415   3.854 -0.4775  0.1797 -0.5089
12428TIP3    H258700   3.357   5.268   3.819 -0.6566 -0.2137  1.1387
12429TIP3   OH258701   3.968   5.069  11.893  0.7179 -0.0323  0.1742
12429TIP3    H158702   4.015   5.003  11.943 -0.0118  0.0306  0.9797
12429TIP3    H258703   3.946   5.026  11.811  0.2850 -0.7886  0.6753
12430TIP3   OH258704   3.519   6.259  15.618 -0.1153 -0.0780 -0.4267
12430TIP3    H158705   3.543   6.231  15.706  1.0273  0.9522 -0.3870
12430TIP3    H258706   3.474   6.343  15.630 -0.2865 -0.1110 -0.7974
12431TIP3   OH258707   0.121   4.941   5.540 -0.0577  0.6986 -0.4770
12431TIP3    H158708   0.195   4.885   5.515  0.0516  0.7897 -0.3588
12431TIP3    H258709   0.050   4.880   5.558  0.1278  0.5838 -0.1167
12432TIP3   OH258710   2.467   0.964  17.040  0.4778  0.1794 -0.0381
12432TIP3    H158711   2.461   1.044  17.092 -1.2453  0.7354 -1.0236
12432TIP3    H258712   2.450   0.893  17.103 -1.0629  0.8079  0.2846
12433TIP3   OH258713   2.031   5.107  10.689  0.9874  0.3083  0.1332
12433TIP3    H158714   2.104   5.168  10.675 -0.6277  1.7492 -3.0333
12433TIP3    H258715   2.048   5.035  10.628  0.3035  0.1557  0.1195
12434TIP3   OH258716   5.078   5.644   0.604  0.0849  0.2173 -0.1537
12434TIP3    H158717   4.989   5.616   0.583 -0.1688  0.4627  0.5643
12434TIP3    H258718   5.067   5.726   0.653  0.7859  1.2044 -1.5783
12435TIP3   OH258719   2.543   4.012  12.768  0.1258  0.1395 -1.1983
12435TIP3    H158720   2.580   3.948  12.829 -1.5779  0.5596  0.3608
12435TIP3    H258721   2.550   3.971  12.682 -0.7565 -2.0773 -0.2736
12436TIP3   OH258722   3.489   0.461   2.391 -0.3476 -0.3609 -0.5868
12436TIP3    H158723   3.580   0.456   2.422 -0.3096  2.0654 -0.1425
12436TIP3    H258724   3.473   0.376   2.351  1.6378 -1.3802  0.6259
12437TIP3   OH258725   2.041   0.706   0.847  0.2789 -0.0521 -0.4847
12437TIP3    H158726   2.117   0.650   0.860  0.2956  0.3470  1.5322
12437TIP3    H258727   2.007   0.720   0.935 -1.7138  0.3664 -1.2711
12438TIP3   OH258728   4.949   2.255  11.860  0.4299 -0.4014  0.1156
12438TIP3    H158729   4.937   2.224  11.770 -2.5839  1.3085 -0.2115
12438TIP3    H258730   4.988   2.342  11.850 -1.9619  0.7663  0.2010
12439TIP3   OH258731   0.861   6.588   4.853  0.1768  0.7163 -0.1173
12439TIP3    H158732   0.876   6.615   4.944  0.5497 -1.3972  0.4917
12439TIP3    H258733   0.875   6.668   4.802  2.4310  1.4253  1.4488
12440TIP3   OH258734   2.524   2.583   6.297  0.1376  0.4851  0.5532
12440TIP3    H158735   2.592   2.516   6.301  0.2138  0.3060 -1.8922
12440TIP3    H258736   2.448   2.544   6.340 -0.0983 -1.6063 -1.5647
12441TIP3   OH258737   6.147   1.639   1.622 -0.1547 -0.3890  0.0177
12441TIP3    H158738   6.067   1.690   1.609  0.3557  0.4393  0.0624
12441TIP3    H258739   6.117   1.548   1.622 -1.1048 -0.0915  0.0969
12442TIP3   OH258740   4.407   2.121  14.921  0.0287  0.4397  0.3645
12442TIP3    H158741   4.358   2.040  14.939  1.7832 -0.2775  2.2482
12442TIP3    H258742   4.341   2.190  14.926 -1.3618 -0.7579 -0.4379
12443TIP3   OH258743   4.543   1.388  14.263  0.4590 -0.0368  0.4520
12443TIP3    H158744   4.573   1.304  14.228 -0.4845 -0.0256 -0.4152
12443TIP3    H258745   4.521   1.369  14.354  1.1819 -0.4898  0.5472
12444TIP3   OH258746   1.545   4.333   2.212 -0.1863 -0.0716 -0.7450
12444TIP3    H158747   1.557   4.399   2.144  0.3822 -1.4585 -2.0462
12444TIP3    H258748   1.519   4.254   2.165 -1.5234 -0.6235  0.8375
12445TIP3   OH258749   3.208   4.596   2.262  0.0590  0.2098 -0.2725
12445TIP3    H158750   3.193   4.676   2.212  0.9248  0.7725  0.3419
12445TIP3    H258751   3.288   4.613   2.311  1.5029 -1.8316 -1.7676
12446TIP3   OH258752   5.602   3.414   0.135  0.3430  0.2729 -0.2216
12446TIP3    H158753   5.635   3.469   0.064 -1.4860  0.5885 -0.8884
12446TIP3    H258754   5.604   3.325   0.099  2.6252 -0.0914  0.6058
12447TIP3   OH258755   2.086   4.313   3.542 -0.2137  0.4754 -0.2359
12447TIP3    H158756   2.170   4.271   3.560 -0.9892 -0.3633  1.7662
12447TIP3    H258757   2.094   4.346   3.452  1.6697 -0.9427 -0.6540
12448TIP3   OH258758   5.505   6.775  11.059 -0.4529 -0.3772  0.1779
12448TIP3    H158759   5.483   6.706  10.996 -1.6928 -1.5301  1.7760
12448TIP3    H258760   5.593   6.754  11.090 -1.4998 -2.4566  2.0334
12449TIP3   OH258761   1.686   6.456   4.779  0.2187  0.4726 -0.2786
12449TIP3    H158762   1.703   6.548   4.759 -0.6568  1.1645  1.8642
12449TIP3    H258763   1.706   6.447   4.872  0.7266 -1.6456 -0.5339
12450TIP3   OH258764   1.363   3.710   5.021 -0.0077 -1.1639  0.0781
12450TIP3    H158765   1.305   3.682   5.091 -0.2015 -0.2241  0.3095
12450TIP3    H258766   1.451   3.694   5.055 -0.0948 -0.5051  0.6421
12451TIP3   OH258767   1.625   5.864  16.610  0.4329  0.8263 -0.6059
12451TIP3    H158768   1.651   5.775  16.589  2.8802  1.1631  0.6584
12451TIP3    H258769   1.627   5.910  16.526  3.3776  0.6171 -0.7374
12452TIP3   OH258770   0.861   5.538  11.209  0.2216 -0.4634 -0.5323
12452TIP3    H158771   0.860   5.511  11.117 -0.8373  1.5161 -1.1459
12452TIP3    H258772   0.826   5.627  11.209  3.3220  0.9360  1.4058
12453TIP3   OH258773   5.441   1.529  16.533  0.0766  0.1577  0.4023
12453TIP3    H158774   5.431   1.466  16.604 -0.0096 -0.1803  0.0924
12453TIP3    H258775   5.508   1.491  16.476 -0.8801 -0.2620 -0.4474
12454TIP3   OH258776   6.322   1.683  15.357  0.1432 -0.2325  0.2960
12454TIP3    H158777   6.360   1.597  15.339  1.3025  0.1749  0.6800
12454TIP3    H258778   6.265   1.670  15.432 -0.9508 -0.9715 -0.6287
12455TIP3   OH258779   4.640   1.234   3.675 -0.2039 -0.2236 -0.2386
12455TIP3    H158780   4.716   1.245   3.732 -0.4428 -1.4836  0.3613
12455TIP3    H258781   4.565   1.244   3.734 -0.5382  1.0113 -0.8239
12456TIP3   OH258782   2.330   4.234   6.254  0.9610 -0.4220  0.4139
12456TIP3    H158783   2.245   4.274   6.234  1.5586  0.6853  0.0031
12456TIP3    H258784   2.320   4.200   6.343  0.6888  1.4504  1.1460
12457TIP3   OH258785   0.313   1.901  12.037  0.1166  0.4054 -0.1562
12457TIP3    H158786   0.223   1.884  12.063  0.6777 -1.3201  0.8752
12457TIP3    H258787   0.366   1.859  12.105  1.7052  1.5126 -0.6403
12458TIP3   OH258788   6.113   1.988   3.302  0.1243 -0.1474 -0.0748
12458TIP3    H158789   6.104   1.983   3.207 -1.4317 -0.2719  0.0665
12458TIP3    H258790   6.174   2.061   3.316 -0.9284  0.9657 -1.1103
12459TIP3   OH258791   4.422   2.688  14.293  0.6103 -0.5883  0.2221
12459TIP3    H158792   4.456   2.631  14.224 -0.8373 -1.3072  0.0499
12459TIP3    H258793   4.344   2.729  14.255  0.1284 -0.5309  1.2160
12460TIP3   OH258794   4.832   0.079  14.573  0.7773 -0.7899 -0.2377
12460TIP3    H158795   4.775   0.157  14.569  1.1489 -0.5447 -0.8878
12460TIP3    H258796   4.894   0.091  14.501  1.5683 -1.1274  0.3712
12461TIP3   OH258797   2.264   3.384  13.065 -0.5391  1.3962  0.1939
12461TIP3    H158798   2.238   3.376  13.156  2.1856  2.2693  1.1457
12461TIP3    H258799   2.250   3.476  13.044 -1.7835  1.0637 -0.5210
12462TIP3   OH258800   1.561   1.392  12.321  0.0147 -0.1303  0.1289
12462TIP3    H158801   1.628   1.348  12.374 -1.0289 -1.6391  0.2451
12462TIP3    H258802   1.593   1.482  12.312  1.3173 -0.4294  1.4191
12463TIP3   OH258803   6.451   1.499  17.080  0.3374  0.7263  0.1856
12463TIP3    H158804   6.457   1.548  17.163  0.8925  0.4299  0.3224
12463TIP3    H258805   6.531   1.522  17.033  0.7855 -0.3274  0.4059
12464TIP3   OH258806   3.219   2.458  14.386  0.2893  0.0122 -0.3775
12464TIP3    H158807   3.212   2.549  14.412  1.9158 -0.0514  0.4263
12464TIP3    H258808   3.194   2.408  14.465  0.6188 -0.2231 -0.4199
12465TIP3   OH258809   2.621   6.435   0.393 -0.8413 -0.0120 -0.6613
12465TIP3    H158810   2.693   6.409   0.335 -1.3678  0.8209 -1.7230
12465TIP3    H258811   2.614   6.364   0.456  0.0269 -0.7435 -1.3598
12466TIP3   OH258812   5.999   1.682   4.714  0.2873 -0.6730 -0.2805
12466TIP3    H158813   5.920   1.719   4.753  0.0645 -1.7754  0.3439
12466TIP3    H258814   5.973   1.653   4.627  0.4420  0.4983 -0.7456
12467TIP3   OH258815   0.794   5.463   2.221 -0.0700 -0.3904 -0.0448
12467TIP3    H158816   0.821   5.408   2.148 -0.1380 -1.2508  0.5585
12467TIP3    H258817   0.874   5.508   2.248  0.3134 -1.2745  0.3434
12468TIP3   OH258818   2.237   0.549   1.304  0.4083  0.2746  0.1417
12468TIP3    H158819   2.244   0.618   1.370 -0.6770 -0.3642  0.9385
12468TIP3    H258820   2.327   0.516   1.294  0.4155 -0.4544  2.2142
12469TIP3   OH258821   3.611   1.807  11.607  0.4005  0.1690  0.1801
12469TIP3    H158822   3.669   1.753  11.661  1.9791  1.0490 -0.5656
12469TIP3    H258823   3.597   1.755  11.528  1.1326  0.4356 -0.1293
12470TIP3   OH258824   5.109   4.529  13.739  0.0907 -0.4553  0.1368
12470TIP3    H158825   5.151   4.586  13.674 -3.1664 -1.0755 -2.8639
12470TIP3    H258826   5.063   4.590  13.797 -0.7758  0.1439 -1.1082
12471TIP3   OH258827   4.813   0.496  14.104  0.0863 -0.1662  0.1426
12471TIP3    H158828   4.792   0.403  14.092 -0.1350 -0.1988  0.7394
12471TIP3    H258829   4.809   0.509  14.199 -0.4253  0.5812  0.0226
12472TIP3   OH258830   1.687   5.391  11.480  0.2314  0.5156  0.0006
12472TIP3    H158831   1.659   5.401  11.571 -0.8306 -2.9226  0.1793
12472TIP3    H258832   1.782   5.381  11.485  0.3201  1.5436  0.5717
12473TIP3   OH258833   5.959   6.128   5.268 -0.3834  0.0586 -0.0477
12473TIP3    H158834   6.035   6.101   5.319 -0.1970 -0.0563 -0.3791
12473TIP3    H258835   5.929   6.209   5.309  1.0155  1.1105 -0.9854
12474TIP3   OH258836   5.928   6.285   0.907  0.0614  0.6039  0.4518
12474TIP3    H158837   6.003   6.299   0.965  1.0091  0.2467 -0.6537
12474TIP3    H258838   5.967   6.257   0.824 -1.2737  0.8519 -0.2817
12475TIP3   OH258839   2.845   2.018  17.205 -0.6704  0.0951 -0.1996
12475TIP3    H158840   2.773   1.982  17.257  1.2426 -0.9445  1.8858
12475TIP3    H258841   2.920   1.963  17.227  0.4555  0.0387 -3.6119
12476TIP3   OH258842   3.518   0.009   0.550 -0.4680 -0.1213  0.0933
12476TIP3    H158843   3.455   0.059   0.498 -0.5125  0.3358  0.5791
12476TIP3    H258844   3.486  -0.082   0.547 -0.4892 -0.0905 -0.6410
12477TIP3   OH258845   5.099   0.984  12.678  0.0970  0.1415 -0.3183
12477TIP3    H158846   5.038   0.913  12.700 -0.9907  0.8858 -0.8245
12477TIP3    H258847   5.043   1.052  12.639  1.0475  1.4266  0.4875
12478TIP3   OH258848   5.411   6.239   5.591  0.3990  0.2365 -0.4682
12478TIP3    H158849   5.371   6.172   5.646 -1.3841  0.1679 -1.7442
12478TIP3    H258850   5.343   6.260   5.526  1.7425  1.6278 -1.4947
12479TIP3   OH258851   0.549   4.751   4.679  0.0647  0.6061 -0.7580
12479TIP3    H158852   0.461   4.715   4.669 -0.0131  1.1414 -2.2176
12479TIP3    H258853   0.595   4.726   4.599  1.7121 -0.8702  0.5679
12480TIP3   OH258854   3.120   4.427  14.811  0.2389 -0.9375 -0.5112
12480TIP3    H158855   3.122   4.353  14.872  2.1418 -2.9587 -2.8095
12480TIP3    H258856   3.209   4.429  14.775  0.5820  3.1743  0.1181
12481TIP3   OH258857   1.354   1.068  13.383 -0.5618  0.3613 -0.1503
12481TIP3    H158858   1.437   1.096  13.421 -0.3144  0.3012 -0.6414
12481TIP3    H258859   1.289   1.086  13.451  0.1252 -1.6692  1.1408
12482TIP3   OH258860   2.229   3.348   3.673  0.4057 -0.4037  0.3203
12482TIP3    H158861   2.188   3.273   3.716 -0.0313 -0.8709 -0.8741
12482TIP3    H258862   2.315   3.317   3.646  0.1429 -0.5645 -0.3653
12483TIP3   OH258863   5.613   3.872  16.440  0.2685  0.4187  0.2348
12483TIP3    H158864   5.556   3.798  16.420 -1.9467  2.5180 -1.9746
12483TIP3    H258865   5.587   3.899  16.528 -3.0679  1.8797 -1.0263
12484TIP3   OH258866   5.191   1.456   0.748 -0.4339 -0.5228  0.6574
12484TIP3    H158867   5.160   1.367   0.763  1.8473 -1.4911  0.1578
12484TIP3    H258868   5.286   1.450   0.759 -0.0194  1.4414 -1.1909
12485TIP3   OH258869   0.481   2.891   0.554  0.0065 -0.3746  0.0259
12485TIP3    H158870   0.421   2.819   0.540 -0.4819 -0.3755  1.8527
12485TIP3    H258871   0.427   2.970   0.547 -0.3319 -0.3849  1.9280
12486TIP3   OH258872   3.310   2.903  16.574 -0.2056  0.0497 -0.0204
12486TIP3    H158873   3.365   2.962  16.523 -0.1278 -1.0965 -1.3235
12486TIP3    H258874   3.369   2.865  16.640 -0.2886  1.4703  0.9168
12487TIP3   OH258875   3.256   3.186  14.246 -0.1726  0.4564  0.5389
12487TIP3    H158876   3.326   3.250  14.232  0.4017 -0.4264 -0.9484
12487TIP3    H258877   3.225   3.202  14.335  2.2324  0.5907  1.4137
12488TIP3   OH258878   0.607   1.724   1.673 -0.4959  0.0007 -0.3879
12488TIP3    H158879   0.619   1.691   1.762  1.7830  2.9251  0.5709
12488TIP3    H258880   0.691   1.709   1.631 -0.6612  1.0694 -1.1375
12489TIP3   OH258881   4.678   1.177   3.010 -0.0118 -0.0031  0.5147
12489TIP3    H158882   4.636   1.100   3.048  0.6504  0.0169  1.3025
12489TIP3    H258883   4.678   1.161   2.915 -1.1583 -0.3152  0.5512
12490TIP3   OH258884   5.039   6.526   5.506  0.1867 -0.5976 -0.1288
12490TIP3    H158885   5.123   6.497   5.542 -0.2316 -0.3739  1.0979
12490TIP3    H258886   4.980   6.452   5.520 -0.2358 -0.1343  0.6140
12491TIP3   OH258887   6.278   4.270  15.598 -0.2515 -0.1461  0.3308
12491TIP3    H158888   6.366   4.249  15.565 -0.0799  3.8370 -2.4635
12491TIP3    H258889   6.294   4.313  15.683  0.2611 -1.2255  0.8013
12492TIP3   OH258890   4.914   2.772  13.682  0.5025 -0.1421  0.2490
12492TIP3    H158891   4.860   2.755  13.605 -0.4562 -1.1257  1.1113
12492TIP3    H258892   4.909   2.692  13.734  2.4702 -0.1079  0.5712
12493TIP3   OH258893   3.762   0.369  10.757 -0.3045  0.3013 -0.3479
12493TIP3    H158894   3.771   0.464  10.752  1.2468  0.1947  0.1309
12493TIP3    H258895   3.693   0.349  10.694  2.0967  1.3569 -3.5786
12494TIP3   OH258896   0.458   1.058   1.898  0.5330 -0.1400 -0.1687
12494TIP3    H158897   0.519   0.993   1.862 -1.6991 -2.6974  0.2897
12494TIP3    H258898   0.404   1.085   1.824 -0.4463 -1.1380  0.1477
12495TIP3   OH258899   5.941   4.838  13.882  0.1373 -0.0962  0.1324
12495TIP3    H158900   5.992   4.873  13.809  1.2648 -1.0106  0.4574
12495TIP3    H258901   5.892   4.765  13.845  0.5844 -0.4570  0.2407
12496TIP3   OH258902   0.546   4.168  16.368  0.9867 -0.2751  0.2630
12496TIP3    H158903   0.566   4.257  16.399  1.0615 -0.1182 -0.2185
12496TIP3    H258904   0.547   4.114  16.447 -1.3456  0.5261  0.9120
12497TIP3   OH258905   6.742   0.390   2.779  0.4696  0.1959  0.0366
12497TIP3    H158906   6.831   0.356   2.766  0.0946 -0.9627  0.3478
12497TIP3    H258907   6.711   0.411   2.692  0.8876  0.1585 -0.1234
12498TIP3   OH258908   3.854   2.845   2.438  0.6545 -0.5646 -0.4363
12498TIP3    H158909   3.838   2.893   2.357 -0.5068 -1.6860 -0.9136
12498TIP3    H258910   3.901   2.766   2.410 -1.4398 -1.9350 -0.3675
12499TIP3   OH258911   2.592   2.409  14.424  0.1730 -0.2209  0.1426
12499TIP3    H158912   2.653   2.473  14.389  1.5649 -1.3203  0.4360
12499TIP3    H258913   2.506   2.441  14.399  0.6800  2.5567  1.5890
12500TIP3   OH258914   6.449   6.007  11.419  0.1513  0.4049 -0.2829
12500TIP3    H158915   6.373   5.986  11.474  1.8724 -1.5632  1.5152
12500TIP3    H258916   6.428   5.966  11.334 -0.4627 -0.8694  0.4463
12501TIP3   OH258917   3.641   1.354  15.187  0.2807 -0.2576 -0.9614
12501TIP3    H158918   3.689   1.410  15.127 -0.5693 -0.0180 -1.4422
12501TIP3    H258919   3.557   1.339  15.144 -0.0579 -0.7123 -0.1763
12502TIP3   OH258920   2.128   5.471   0.259 -0.2209 -0.0266 -0.0205
12502TIP3    H158921   2.207   5.432   0.221 -0.7901 -0.7887 -0.4548
12502TIP3    H258922   2.130   5.562   0.232  0.0179 -0.2722 -0.8536
12503TIP3   OH258923   1.292   2.965   1.228  0.0430  0.1103  0.1833
12503TIP3    H158924   1.345   2.922   1.160 -1.1269  0.1256 -0.7705
12503TIP3    H258925   1.342   2.951   1.309  0.3807 -1.8828 -0.3021
12504TIP3   OH258926   0.163   0.768  13.271 -0.2929 -0.4222  0.1467
12504TIP3    H158927   0.221   0.817  13.329 -0.7551 -0.0411  0.2881
12504TIP3    H258928   0.133   0.694  13.324  0.3975 -0.8697 -0.0646
12505TIP3   OH258929   1.522   5.239  16.234 -0.5215  0.1846 -0.2537
12505TIP3    H158930   1.479   5.172  16.180 -2.6631 -1.3701  3.0972
12505TIP3    H258931   1.473   5.319  16.214 -1.6249 -0.4651 -0.2905
12506TIP3   OH258932   0.268   4.185  15.960 -0.1328 -0.2760  0.1601
12506TIP3    H158933   0.330   4.171  15.888  0.0481  0.1075  0.2397
12506TIP3    H258934   0.189   4.138  15.932  0.8285 -2.5452  0.9638
12507TIP3   OH258935   0.051   0.703  15.976 -0.5053 -0.3010  0.1851
12507TIP3    H158936   0.092   0.728  16.059 -1.0571  1.3666 -0.0159
12507TIP3    H258937  -0.007   0.630  16.000  0.5584 -0.9281  0.9431
12508TIP3   OH258938   5.647   3.816  10.406 -0.5193 -0.2199  0.3333
12508TIP3    H158939   5.648   3.911  10.403 -0.2692 -0.2093  0.6792
12508TIP3    H258940   5.639   3.795  10.499 -0.4779 -0.5366  0.2675
12509TIP3   OH258941   0.552   1.117   4.173 -0.4487 -0.1055  0.6054
12509TIP3    H158942   0.528   1.122   4.266  0.3162  1.0070  0.7646
12509TIP3    H258943   0.607   1.039   4.166 -1.0128 -0.5407  0.9641
12510TIP3   OH258944   0.943   3.309  13.442 -0.0832  0.3787 -0.1542
12510TIP3    H158945   1.020   3.352  13.479 -1.3209  0.3997  2.7056
12510TIP3    H258946   0.924   3.238  13.502 -1.5735 -0.4151 -1.4880
12511TIP3   OH258947   5.323   6.351  14.756  0.5735  0.5093  0.0377
12511TIP3    H158948   5.258   6.314  14.816  0.1292  0.4338 -0.4772
12511TIP3    H258949   5.274   6.366  14.675  1.5711 -1.1025 -0.9149
12512TIP3   OH258950   1.024   5.339   6.553 -0.1521  0.4102 -0.2293
12512TIP3    H158951   1.094   5.400   6.573  0.4671 -0.7145  1.2094
12512TIP3    H258952   1.055   5.255   6.586 -2.2731 -0.0703  0.7593
12513TIP3   OH258953   3.905   2.694   2.819 -0.6628  0.2232 -0.1066
12513TIP3    H158954   3.815   2.661   2.823 -0.3519 -0.5756  0.5248
12513TIP3    H258955   3.895   2.789   2.810 -1.5629  0.1191 -0.3462
12514TIP3   OH258956   2.293   0.367  16.201 -0.2147 -0.1522  0.3286
12514TIP3    H158957   2.286   0.284  16.153  0.4063  0.0486 -0.1212
12514TIP3    H258958   2.384   0.394  16.188 -0.1920  0.1865  1.1639
12515TIP3   OH258959   1.268   0.739  13.333 -0.4632  0.9749  0.1093
12515TIP3    H158960   1.265   0.644  13.343 -2.2907  1.0634  0.7444
12515TIP3    H258961   1.263   0.773  13.423 -0.4633  1.6750 -0.1468
12516TIP3   OH258962   5.773   2.546   5.706  0.6731  0.6660  0.0865
12516TIP3    H158963   5.719   2.564   5.629  0.3562 -0.7213 -0.0484
12516TIP3    H258964   5.719   2.572   5.781  0.2601  0.3394 -0.0965
12517TIP3   OH258965   4.737   3.410  14.997 -0.6669  0.4224 -0.2175
12517TIP3    H158966   4.703   3.425  15.085 -0.1511 -1.0669  0.2763
12517TIP3    H258967   4.740   3.497  14.956 -0.0806  1.2630  1.5349
12518TIP3   OH258968   4.148   6.119  15.059  0.3984 -0.2942 -0.2109
12518TIP3    H158969   4.078   6.118  14.995  1.3942  1.8017 -1.4533
12518TIP3    H258970   4.122   6.187  15.122  1.8408  1.5227 -1.4563
12519TIP3   OH258971   2.338   1.523  14.503  0.0485  0.3249 -0.2572
12519TIP3    H158972   2.362   1.450  14.560 -1.1122  1.3419  1.6532
12519TIP3    H258973   2.304   1.482  14.423  1.5389 -1.1498 -0.1671
12520TIP3   OH258974   4.878   6.135  13.793  0.0357  0.2495  0.0549
12520TIP3    H158975   4.894   6.208  13.852 -0.0600 -0.5766  1.1303
12520TIP3    H258976   4.810   6.083  13.836  1.0020 -1.1640 -0.0557
12521TIP3   OH258977   6.596   2.994   0.595 -0.2562 -0.1607 -0.3874
12521TIP3    H158978   6.682   3.010   0.633 -0.4062 -1.8590  0.7677
12521TIP3    H258979   6.615   2.959   0.508  0.2318 -0.6349 -0.0970
12522TIP3   OH258980   6.101   4.640   5.675  0.0686  0.5487  0.5092
12522TIP3    H158981   6.158   4.671   5.604  1.2310 -0.6810  0.8834
12522TIP3    H258982   6.161   4.612   5.743 -0.9910 -0.8855  0.8771
12523TIP3   OH258983   0.772   2.648   4.824 -0.3041 -0.2600 -0.0955
12523TIP3    H158984   0.759   2.742   4.815 -0.9117 -0.3516 -0.2471
12523TIP3    H258985   0.815   2.621   4.743  0.3804 -0.0317  0.1836
12524TIP3   OH258986   0.920   3.224   5.724 -0.3583 -0.8849 -0.7641
12524TIP3    H158987   0.956   3.312   5.739  0.4750 -1.0016 -1.9812
12524TIP3    H258988   0.896   3.194   5.812 -0.4329  0.4539 -0.2889
12525TIP3   OH258989   1.048   3.597   2.498  0.0916 -0.5089 -0.3246
12525TIP3    H158990   0.968   3.578   2.450  0.3076  0.7563 -1.2499
12525TIP3    H258991   1.019   3.619   2.587 -0.7363  0.9747 -0.9172
12526TIP3   OH258992   5.566   2.984   6.785 -0.0555 -0.0942 -0.3160
12526TIP3    H158993   5.656   3.002   6.812 -0.2417  2.8281 -1.2784
12526TIP3    H258994   5.528   2.936   6.858  1.2273  1.9123  1.7950
12527TIP3   OH258995   0.775   0.772   1.270 -0.1405 -0.2397  0.1201
12527TIP3    H158996   0.780   0.859   1.232 -0.8075 -0.4514 -0.4664
12527TIP3    H258997   0.719   0.722   1.211 -0.9850 -0.6582  1.2312
12528TIP3   OH258998   1.572   5.214   0.255 -0.0634 -0.4096  0.4524
12528TIP3    H158999   1.657   5.221   0.211 -0.2857  1.2712  0.2576
12528TIP3    H259000   1.589   5.155   0.329  0.9667 -1.0676 -0.2627
12529TIP3   OH259001   5.645   6.113  13.515  0.1109  0.6384 -0.8433
12529TIP3    H159002   5.553   6.127  13.537  0.2117  0.1524 -0.0809
12529TIP3    H259003   5.651   6.135  13.422 -0.6167  1.4092 -0.7194
12530TIP3   OH259004   4.742   5.797  12.067  0.2009 -0.2536  0.7017
12530TIP3    H159005   4.799   5.781  11.991 -0.3910  0.1587  0.1541
12530TIP3    H259006   4.708   5.886  12.052  0.0402 -0.1896  1.4291
12531TIP3   OH259007   1.605   3.554   6.147  0.1987 -0.1753  0.1970
12531TIP3    H159008   1.512   3.554   6.128  0.3447 -0.4585 -0.5663
12531TIP3    H259009   1.612   3.523   6.237 -0.6007  2.2441  1.1470
12532TIP3   OH259010   4.769   0.667   4.520  0.0056  0.1672 -0.5116
12532TIP3    H159011   4.689   0.663   4.573  0.5090  0.2040  0.2524
12532TIP3    H259012   4.737   0.680   4.431 -0.9053 -1.1333 -0.4015
12533TIP3   OH259013   1.887   0.441   5.489 -0.2517  0.0207  0.5693
12533TIP3    H159014   1.875   0.488   5.407 -1.6938  2.6153  2.1188
12533TIP3    H259015   1.962   0.384   5.474  0.3341  1.3516 -2.1151
12534TIP3   OH259016   6.089   2.765  13.512 -0.4102  0.4461 -0.4308
12534TIP3    H159017   6.123   2.737  13.597  2.4727 -0.6784 -1.8353
12534TIP3    H259018   6.053   2.686  13.473  0.4539  0.4061 -1.1837
12535TIP3   OH259019   2.022   2.574  12.687 -0.7425  0.1510  0.1722
12535TIP3    H159020   1.927   2.573  12.689 -0.7886  1.9557  0.8875
12535TIP3    H259021   2.047   2.647  12.744  1.0031  0.8785 -1.4205
12536TIP3   OH259022   6.059   3.596  14.946  0.3938  0.5592 -1.0087
12536TIP3    H159023   6.023   3.507  14.944  1.5241  0.0214  0.7435
12536TIP3    H259024   6.141   3.589  14.897  1.3977  0.1731  0.6853
12537TIP3   OH259025   6.362   0.579  11.694 -0.1397  0.3544 -0.3259
12537TIP3    H159026   6.445   0.546  11.728 -0.2717  0.7725  0.4411
12537TIP3    H259027   6.378   0.671  11.677 -0.7661  0.7437  1.0151
12538TIP3   OH259028   0.225   1.182   6.545  0.0054  0.2657 -0.3656
12538TIP3    H159029   0.170   1.108   6.520 -0.5846  0.5095  0.1971
12538TIP3    H259030   0.308   1.142   6.571  0.3067 -0.0654 -1.7440
12539TIP3   OH259031   2.858   1.415   3.632 -0.4276 -0.1337  0.5132
12539TIP3    H159032   2.903   1.487   3.676 -0.1199  0.6749 -1.0335
12539TIP3    H259033   2.900   1.336   3.666  0.7617  0.5180  0.6256
12540TIP3   OH259034   1.782   3.097   3.781 -0.0576 -0.2740  0.2237
12540TIP3    H159035   1.701   3.123   3.737  0.5721  0.6874 -0.4003
12540TIP3    H259036   1.772   3.003   3.796 -0.4882 -0.5550 -1.5734
12541TIP3   OH259037   1.174   4.448   6.217  0.1142  0.0871  0.3548
12541TIP3    H159038   1.208   4.364   6.247  0.1262  0.7851  2.4617
12541TIP3    H259039   1.247   4.509   6.229  0.6716  0.1782 -2.7217
12542TIP3   OH259040   1.216   0.965  14.030 -0.5705  0.4313  0.1338
12542TIP3    H159041   1.134   1.012  14.015 -0.7211  0.5958  1.3691
12542TIP3    H259042   1.193   0.873  14.027 -0.0376  0.2673 -3.7184
12543TIP3   OH259043   6.478   3.497  11.333 -0.3846 -0.2979 -0.2537
12543TIP3    H159044   6.548   3.462  11.277 -0.6371 -1.0770 -0.0907
12543TIP3    H259045   6.399   3.451  11.305 -0.3533 -1.4239  1.3586
12544TIP3   OH259046   6.531   5.154   5.609 -0.2025 -0.2368 -0.4643
12544TIP3    H159047   6.480   5.081   5.642  0.0132 -1.2687 -2.2726
12544TIP3    H259048   6.622   5.128   5.622 -0.1149 -0.6064 -1.6765
12545TIP3   OH259049   4.560   3.583   1.029 -0.2501  0.0245  0.2425
12545TIP3    H159050   4.523   3.621   1.109 -1.3718  0.6644 -0.5472
12545TIP3    H259051   4.512   3.501   1.018 -0.5359  0.2376 -0.1039
12546TIP3   OH259052   1.990   4.096  16.354  0.1806 -0.5676 -0.5601
12546TIP3    H159053   2.033   4.062  16.276  0.4318  1.3765 -1.3234
12546TIP3    H259054   2.054   4.086  16.424  0.5532 -0.8658 -0.9443
12547TIP3   OH259055   3.025   3.248   5.592 -0.4366 -0.0677  0.4918
12547TIP3    H159056   3.041   3.341   5.607 -0.2152  0.1842 -1.1317
12547TIP3    H259057   2.969   3.245   5.514  0.3179 -1.3257 -0.0394
12548TIP3   OH259058   2.450   3.615  11.906  0.2731 -0.1712  0.5235
12548TIP3    H159059   2.545   3.616  11.899  0.1675 -0.0810 -1.4399
12548TIP3    H259060   2.422   3.694  11.860 -0.7293  0.5262  2.2358
12549TIP3   OH259061   2.178   1.926   0.281 -0.4749 -0.6450 -0.4581
12549TIP3    H159062   2.142   1.854   0.332 -0.9447 -0.3494 -0.3660
12549TIP3    H259063   2.196   1.889   0.195 -2.2081 -0.4989 -0.9111
12550TIP3   OH259064   4.887   1.917   4.448  0.0505  0.1123 -0.7900
12550TIP3    H159065   4.898   1.826   4.419  2.6199  0.1613 -0.1791
12550TIP3    H259066   4.932   1.921   4.532 -3.4284  1.0624  1.2135
12551TIP3   OH259067   0.420   3.938   2.238 -0.2648 -0.6391 -0.2195
12551TIP3    H159068   0.370   4.013   2.205 -1.2339 -0.9176  0.5795
12551TIP3    H259069   0.460   3.899   2.160 -3.2701 -1.8479 -1.3013
12552TIP3   OH259070   5.183   0.854   2.198 -0.0938  0.7697 -0.1343
12552TIP3    H159071   5.270   0.833   2.232  0.0567 -1.4702 -1.7265
12552TIP3    H259072   5.123   0.808   2.256 -0.0426 -0.0284 -0.7068
12553TIP3   OH259073   5.621   5.151  15.662 -0.0269  0.3920 -0.2851
12553TIP3    H159074   5.715   5.159  15.642  0.0881 -0.4343 -0.1046
12553TIP3    H259075   5.587   5.093  15.594 -0.1153 -0.4630  0.4637
12554TIP3   OH259076   3.402   4.295  16.556 -0.1439 -0.0683  0.0309
12554TIP3    H159077   3.494   4.313  16.574  0.0500 -1.6839  0.7764
12554TIP3    H259078   3.396   4.200  16.548 -1.8942 -0.0814  0.8838
12555TIP3   OH259079   1.393   1.899   3.783 -0.4528 -0.1534 -0.0863
12555TIP3    H159080   1.393   1.979   3.835  2.4740 -0.1332  0.0355
12555TIP3    H259081   1.392   1.929   3.692 -1.1824 -0.0719 -0.0613
12556TIP3   OH259082   0.153   6.419  14.889 -0.2033  0.0550  0.0514
12556TIP3    H159083   0.199   6.423  14.972 -3.4508  1.2981  1.9825
12556TIP3    H259084   0.160   6.508  14.853  0.3880 -0.2250 -0.5362
12557TIP3   OH259085   6.035   5.332  15.727 -0.2199  0.1522 -1.1037
12557TIP3    H159086   5.975   5.266  15.692 -0.6697 -0.6611  1.0327
12557TIP3    H259087   6.121   5.308  15.692 -0.5038 -1.1167 -0.9723
12558TIP3   OH259088   3.233   3.336   2.173  0.6467 -0.3893  0.1266
12558TIP3    H159089   3.234   3.413   2.116 -1.4494  1.0055  1.7710
12558TIP3    H259090   3.193   3.267   2.120 -0.4202  0.6188 -0.4370
12559TIP3   OH259091   1.078   2.861  13.449 -0.3665 -0.1763 -0.3640
12559TIP3    H159092   1.071   2.841  13.356 -0.4408  0.5992 -0.5263
12559TIP3    H259093   0.991   2.893  13.474  0.5753  3.1774 -0.8997
12560TIP3   OH259094   3.637   0.334  14.548  0.5769  0.4362 -0.4303
12560TIP3    H159095   3.622   0.340  14.453 -1.0970 -1.6400 -0.3632
12560TIP3    H259096   3.698   0.261  14.558 -0.8734 -0.7336  0.1685
12561TIP3   OH259097   5.610   4.760   0.387 -0.7522 -0.0068 -0.1876
12561TIP3    H159098   5.606   4.763   0.292 -2.9000 -0.1339 -0.1486
12561TIP3    H259099   5.518   4.758   0.415 -0.2720 -3.2375  1.7665
12562TIP3   OH259100   5.600   0.955  15.590  0.9771 -0.1046 -0.2275
12562TIP3    H159101   5.636   1.026  15.537 -1.4899  0.7101 -0.9533
12562TIP3    H259102   5.578   0.996  15.674 -2.0795  0.5724 -1.2313
12563TIP3   OH259103   5.528   3.984  11.726  0.3048 -0.4550  0.3169
12563TIP3    H159104   5.503   3.908  11.674  0.1134 -0.2889  0.1637
12563TIP3    H259105   5.569   4.044  11.664 -1.6500  0.5711 -0.0639
12564TIP3   OH259106   6.183   1.028  14.068  0.6964  0.1892  0.1124
12564TIP3    H159107   6.121   1.099  14.086  1.0307  0.3328  0.7286
12564TIP3    H259108   6.132   0.948  14.078  0.4294  0.3286 -0.1233
12565TIP3   OH259109   5.175   4.176  13.555  0.4437 -0.3415 -0.2474
12565TIP3    H159110   5.219   4.104  13.511  0.6105  0.0888 -0.8004
12565TIP3    H259111   5.233   4.199  13.628  0.2168 -0.9897  0.1436
12566TIP3   OH259112   0.965   2.263  16.339  0.0429  0.5655  0.0772
12566TIP3    H159113   1.001   2.199  16.401  0.6236 -0.1938 -0.9966
12566TIP3    H259114   1.012   2.246  16.257 -0.0290  2.1710 -0.3280
12567TIP3   OH259115   0.912   1.663  11.791 -0.1571 -0.4118 -0.7699
12567TIP3    H159116   0.975   1.733  11.810 -0.5154 -0.1817 -0.4301
12567TIP3    H259117   0.951   1.584  11.829  0.4729 -0.4960 -1.5601
12568TIP3   OH259118   1.281   4.754  17.118 -0.0581 -0.5321  0.3208
12568TIP3    H159119   1.216   4.689  17.091  0.2681 -1.1389  0.9586
12568TIP3    H259120   1.313   4.791  17.036 -0.1373 -1.2897 -0.0624
12569TIP3   OH259121   2.250   4.421  13.400 -0.0213 -0.1508  0.4832
12569TIP3    H159122   2.327   4.376  13.434 -0.1891 -0.1074  0.9146
12569TIP3    H259123   2.177   4.387  13.450 -0.1398  0.6538  0.8696
12570TIP3   OH259124   5.638   4.069  11.496 -0.0091  0.5641  0.2045
12570TIP3    H159125   5.597   4.064  11.409 -1.0335 -1.1254  0.7424
12570TIP3    H259126   5.713   4.010  11.490 -0.8592 -0.6150  0.8385
12571TIP3   OH259127   3.511   0.531   3.556  0.1145  0.0786 -0.4592
12571TIP3    H159128   3.528   0.452   3.607  0.4500 -0.5173 -1.4594
12571TIP3    H259129   3.548   0.512   3.470 -0.8719  0.8586 -1.0797
12572TIP3   OH259130   4.226   2.542   0.037 -0.2315  0.0529 -0.2892
12572TIP3    H159131   4.209   2.456  -0.002  3.6399 -0.9341 -0.1925
12572TIP3    H259132   4.315   2.564   0.010  0.1260  2.5402  2.3605
12573TIP3   OH259133   4.873   0.206  12.868 -0.0004  0.6127 -0.8351
12573TIP3    H159134   4.779   0.214  12.854  0.0638  1.1775 -0.9684
12573TIP3    H259135   4.881   0.148  12.943 -0.4007 -1.2804 -2.1776
12574TIP3   OH259136   1.548   5.145   0.911 -0.1546 -0.6202  0.7493
12574TIP3    H159137   1.604   5.071   0.930 -0.2850 -0.5856  1.2660
12574TIP3    H259138   1.608   5.213   0.880  0.4010  0.1777  3.3762
12575TIP3   OH259139   6.516   4.964   0.732 -0.2587 -0.0796 -0.0337
12575TIP3    H159140   6.573   4.890   0.753 -0.8892 -0.8878 -1.0707
12575TIP3    H259141   6.435   4.947   0.781 -0.4140 -0.0976 -0.2930
12576TIP3   OH259142   6.367   4.918   3.083 -0.0315 -0.2068 -0.2160
12576TIP3    H159143   6.462   4.924   3.079 -0.0059 -0.4213  0.0664
12576TIP3    H259144   6.342   4.882   2.998  0.1422 -0.2117 -0.2661
12577TIP3   OH259145   5.935   0.480  12.792  0.0063 -0.3079  0.5299
12577TIP3    H159146   5.875   0.407  12.771  2.9069 -3.0288  1.0115
12577TIP3    H259147   5.972   0.505  12.707 -0.2992  0.0057  0.4847
12578TIP3   OH259148   1.235   0.711  11.805  0.4237 -0.0133 -0.7235
12578TIP3    H159149   1.323   0.746  11.821  0.4737  0.9141 -2.7587
12578TIP3    H259150   1.181   0.788  11.787 -1.0729 -0.4920  1.4233
12579TIP3   OH259151   6.384   6.471   3.759  0.3500  0.2870 -0.3571
12579TIP3    H159152   6.454   6.461   3.824  0.1304 -0.1626 -0.1827
12579TIP3    H259153   6.370   6.566   3.754  0.3328  0.3278  0.2971
12580TIP3   OH259154   0.832   0.271   3.211 -0.0075  0.2484 -0.9239
12580TIP3    H159155   0.753   0.219   3.200  0.2939 -0.1237 -1.3779
12580TIP3    H259156   0.850   0.307   3.124 -0.8113  2.0181 -0.4141
12581TIP3   OH259157   6.017   0.847  16.159 -0.2078  0.3217 -0.0835
12581TIP3    H159158   6.064   0.890  16.231 -1.3104  1.3404  0.0691
12581TIP3    H259159   5.971   0.918  16.115 -0.6546 -0.4848 -0.9512
12582TIP3   OH259160   3.024   4.772  14.077 -0.2787  0.2559 -0.2632
12582TIP3    H159161   3.003   4.730  14.160 -0.5856  2.4656  0.8558
12582TIP3    H259162   3.119   4.788  14.081 -0.3957  0.9164 -0.0546
12583TIP3   OH259163   3.673   5.820   4.979 -0.1963 -0.3267 -0.0141
12583TIP3    H159164   3.704   5.779   5.060 -2.3303 -0.1334  0.9710
12583TIP3    H259165   3.746   5.812   4.918  1.1678 -1.2400  1.6674
12584TIP3   OH259166   2.075   3.124   3.760  0.2290  0.1473 -0.2049
12584TIP3    H159167   1.986   3.089   3.754  0.2129  0.0840  0.3728
12584TIP3    H259168   2.087   3.144   3.853  0.9185 -0.1078 -0.2289
12585TIP3   OH259169   4.604   5.060   1.397  0.6825  0.1247  0.4056
12585TIP3    H159170   4.680   5.010   1.366 -0.1307 -0.9974  0.1622
12585TIP3    H259171   4.629   5.089   1.484  1.5916  0.2230  0.1266
12586TIP3   OH259172   4.622   5.431   4.277  0.4334  0.0746 -0.3008
12586TIP3    H159173   4.528   5.444   4.286  0.5911  0.2546  1.4915
12586TIP3    H259174   4.656   5.436   4.367  2.2160  0.5418 -0.9461
12587TIP3   OH259175   1.638   3.139  16.406 -0.4771 -0.2020 -0.0685
12587TIP3    H159176   1.704   3.153  16.473 -0.2323  0.5864 -0.4663
12587TIP3    H259177   1.688   3.119  16.327 -0.7589 -0.9577 -0.0757
12588TIP3   OH259178   2.925   3.578   4.406  0.2087  0.2363 -0.1664
12588TIP3    H159179   2.850   3.629   4.375  0.7050  0.3275 -1.2619
12588TIP3    H259180   2.920   3.495   4.358 -0.0748 -0.3976  0.9298
12589TIP3   OH259181   0.004   3.742   3.341 -0.1634 -0.5662 -0.7315
12589TIP3    H159182   0.065   3.671   3.359 -0.6087 -0.8859 -0.4764
12589TIP3    H259183  -0.016   3.778   3.428  0.0401 -0.1441 -0.8561
12590TIP3   OH259184   2.151   4.640  11.423 -0.4372  0.1000 -0.3534
12590TIP3    H159185   2.060   4.620  11.447 -0.7010  2.3206  0.7857
12590TIP3    H259186   2.183   4.694  11.495  2.7065 -2.6845  0.5764
12591TIP3   OH259187   5.612   6.393   5.452 -0.6070 -0.0418  0.3139
12591TIP3    H159188   5.667   6.432   5.520  1.4095  0.6216 -1.6097
12591TIP3    H259189   5.552   6.463   5.426  0.5102  0.6140 -0.5313
12592TIP3   OH259190   3.760   3.600  13.438 -0.3066  0.1363 -0.1514
12592TIP3    H159191   3.735   3.545  13.512  0.0710  0.5371  0.2783
12592TIP3    H259192   3.800   3.677  13.477 -2.8274  1.8274 -0.6107
12593TIP3   OH259193   1.472   4.897   1.923  0.1022  0.0274  0.0722
12593TIP3    H159194   1.542   4.940   1.873 -0.1325 -0.8550 -1.0651
12593TIP3    H259195   1.410   4.868   1.856  0.2246 -2.0193  0.7863
12594TIP3   OH259196   1.864   1.885  11.023  0.6542  0.2595  0.4476
12594TIP3    H159197   1.913   1.937  11.087  1.1459  0.8067 -0.3492
12594TIP3    H259198   1.820   1.951  10.969 -2.2269 -0.1974  2.0420
12595TIP3   OH259199   1.610   1.676  16.059 -0.3607  0.2651 -0.6173
12595TIP3    H159200   1.608   1.740  15.988  2.3798  0.3479 -0.7262
12595TIP3    H259201   1.629   1.592  16.015 -2.5261 -0.4344 -0.3301
12596TIP3   OH259202   3.652   3.441   1.551 -0.3182 -0.1338 -0.0959
12596TIP3    H159203   3.646   3.364   1.495 -0.6167 -0.1686 -0.0195
12596TIP3    H259204   3.682   3.408   1.636  0.0117 -0.0984 -0.1969
12597TIP3   OH259205   1.180   5.250  14.181  0.0850 -0.1127  0.1450
12597TIP3    H159206   1.256   5.307  14.168  1.0409 -1.2145  0.6661
12597TIP3    H259207   1.121   5.272  14.109  0.7358  1.0170 -0.0694
12598TIP3   OH259208   4.891   5.050   6.538  0.3396 -0.0622 -0.0062
12598TIP3    H159209   4.950   5.006   6.477  1.9105  1.4414  0.3811
12598TIP3    H259210   4.941   5.059   6.619 -1.3652 -1.1116  1.2547
12599TIP3   OH259211   0.999   5.018   2.021  0.4095  0.3354 -0.9114
12599TIP3    H159212   0.975   5.107   1.994  1.8178  1.5185  1.4087
12599TIP3    H259213   1.077   5.030   2.075 -1.0262 -1.9585  1.9403
12600TIP3   OH259214   5.307   5.438  12.748  0.0176 -0.2051  0.1749
12600TIP3    H159215   5.270   5.524  12.731 -1.9212 -1.0439 -0.0869
12600TIP3    H259216   5.337   5.442  12.839 -3.3830 -0.3063  1.4156
12601TIP3   OH259217   0.601   2.716  15.498  0.3869  0.2083  0.6341
12601TIP3    H159218   0.538   2.730  15.568 -0.4396  1.5179 -0.3157
12601TIP3    H259219   0.686   2.729  15.540 -0.0455  0.0845  1.5791
12602TIP3   OH259220   6.483   1.686  15.793  0.3123 -0.1990  0.0070
12602TIP3    H159221   6.567   1.660  15.830  0.4171  0.0548 -0.0504
12602TIP3    H259222   6.484   1.782  15.796 -0.0405 -0.1975  0.1575
12603TIP3   OH259223   3.024   3.851  13.202 -0.0403 -0.0772 -0.0152
12603TIP3    H159224   2.951   3.912  13.207  1.3408  1.6664 -0.0917
12603TIP3    H259225   3.004   3.783  13.266 -1.1978  0.9393  0.7323
12604TIP3   OH259226   0.662   5.849  14.802  0.5090 -0.1174 -0.2842
12604TIP3    H159227   0.597   5.875  14.868  0.7299  0.3977 -0.2691
12604TIP3    H259228   0.626   5.768  14.765  0.0885 -0.0915  0.0505
12605TIP3   OH259229   4.208   2.375  16.118 -0.1256  0.0417 -0.2061
12605TIP3    H159230   4.280   2.425  16.154  1.5132 -1.7733 -0.7972
12605TIP3    H259231   4.190   2.417  16.033  0.3767  0.3701 -0.1537
12606TIP3   OH259232   6.029   1.240  11.692 -0.5785  0.5040  0.4702
12606TIP3    H159233   5.952   1.193  11.724  0.8563 -3.4167 -1.1649
12606TIP3    H259234   6.005   1.266  11.603 -0.2265 -0.2591  0.1450
12607TIP3   OH259235   1.415   1.141   6.487  0.0714  0.0020 -0.2420
12607TIP3    H159236   1.356   1.134   6.412 -0.2991  1.7515 -0.1648
12607TIP3    H259237   1.481   1.204   6.460 -0.1388  0.7602  0.9300
12608TIP3   OH259238   5.805   4.132  12.557  0.0284  0.1971 -0.3519
12608TIP3    H159239   5.884   4.163  12.601 -0.9895  2.8100 -0.1975
12608TIP3    H259240   5.745   4.110  12.628 -0.6931  1.9118 -0.3906
12609TIP3   OH259241   1.241   6.077  16.049 -0.2371 -0.4346 -0.7805
12609TIP3    H159242   1.204   6.157  16.012 -0.0537  0.0185 -0.0217
12609TIP3    H259243   1.335   6.095  16.055 -0.1389 -0.8724 -0.9982
12610TIP3   OH259244   3.978   0.265   4.017 -0.6765 -0.1841 -0.5251
12610TIP3    H159245   3.884   0.245   4.019 -0.5644 -0.7129  0.7581
12610TIP3    H259246   3.994   0.307   4.102  0.4598 -1.1612 -0.2396
12611TIP3   OH259247   5.840   5.731  12.098  0.0873 -0.1318  0.2372
12611TIP3    H159248   5.858   5.693  12.184  0.6862  0.2561  0.2909
12611TIP3    H259249   5.751   5.701  12.077  0.0862 -0.5591  0.8083
12612TIP3   OH259250   5.632   5.245  16.507 -0.6173  0.3015 -0.5249
12612TIP3    H159251   5.604   5.173  16.450  0.4507 -0.0636 -0.6160
12612TIP3    H259252   5.583   5.231  16.588 -0.4510 -0.5131 -0.5549
12613TIP3   OH259253   2.715   3.996   5.190 -0.0341  0.0731 -0.6133
12613TIP3    H159254   2.685   4.007   5.100  1.7291  1.5873 -1.0821
12613TIP3    H259255   2.774   4.070   5.205  3.5574 -2.6376  0.1381
12614TIP3   OH259256   3.490   1.494   4.146  0.2570  0.1524  0.1278
12614TIP3    H159257   3.450   1.477   4.061  0.0464  0.3762  0.1806
12614TIP3    H259258   3.526   1.410   4.173 -1.3252 -0.3798  0.6791
12615TIP3   OH259259   2.365   2.476   4.069  0.4096 -0.1283  0.3147
12615TIP3    H159260   2.270   2.489   4.072  0.5457  0.8475  1.4771
12615TIP3    H259261   2.385   2.460   3.977 -0.6283  1.8808 -0.3067
12616TIP3   OH259262   3.196   0.413  14.135  0.4969  0.7620 -0.7072
12616TIP3    H159263   3.153   0.485  14.089 -1.7691  1.1817  1.8133
12616TIP3    H259264   3.187   0.435  14.227  3.5196 -0.7505  0.0830
12617TIP3   OH259265   2.452   2.103  14.307 -0.1795  0.1529 -0.1080
12617TIP3    H159266   2.483   2.090  14.396 -0.3484 -0.4777 -0.1341
12617TIP3    H259267   2.517   2.161  14.267  2.3162 -2.8616 -0.8285
12618TIP3   OH259268   2.066   6.438  15.697 -0.6050  0.2761 -0.0908
12618TIP3    H159269   2.055   6.460  15.789 -0.7165  1.3671 -0.3558
12618TIP3    H259270   1.987   6.472  15.655 -0.5139 -0.1364 -0.5998
12619TIP3   OH259271   0.402   4.488  16.715  0.5699  0.2360  0.4618
12619TIP3    H159272   0.496   4.507  16.723  0.3586  0.8779  1.7793
12619TIP3    H259273   0.397   4.393  16.706  1.4487  0.3536 -1.9814
12620TIP3   OH259274   5.020   3.710   0.139  0.2011  0.1165  0.0754
12620TIP3    H159275   5.094   3.735   0.193 -0.4410 -1.4104  1.7408
12620TIP3    H259276   5.052   3.719   0.049  2.1404  0.1936  0.7298
12621TIP3   OH259277   5.571   4.731  12.462 -0.7973 -0.0818 -0.2635
12621TIP3    H159278   5.655   4.689  12.480 -0.8286 -1.0178 -2.0659
12621TIP3    H259279   5.568   4.739  12.367 -2.0009  1.5564 -0.1282
12622TIP3   OH259280   5.063   2.113  11.250 -0.1288  0.3261  0.0204
12622TIP3    H159281   5.062   2.203  11.219 -1.9592  0.3712  0.0845
12622TIP3    H259282   5.122   2.067  11.189  0.7741  1.5295 -0.0413
12623TIP3   OH259283   5.619   1.868  15.679  1.1416  0.5002 -0.1019
12623TIP3    H159284   5.699   1.877  15.732  2.3295 -0.3089 -1.6749
12623TIP3    H259285   5.607   1.773  15.670  0.0898  0.6160 -0.0449
12624TIP3   OH259286   2.332   5.097   5.001 -0.2572  0.8023  0.1166
12624TIP3    H159287   2.378   5.035   5.058  0.5376  2.1642  1.0014
12624TIP3    H259288   2.240   5.071   5.007  0.3028 -2.3536 -2.1512
12625TIP3   OH259289   4.877   6.070  12.880 -0.2796 -0.2957  0.1035
12625TIP3    H159290   4.880   6.087  12.786 -0.3900 -3.2288 -0.5304
12625TIP3    H259291   4.893   6.155  12.921 -3.9687  1.9010 -2.4403
12626TIP3   OH259292   3.895   1.165  15.793  0.6425 -0.1794 -0.5441
12626TIP3    H159293   3.843   1.143  15.716  0.6192 -2.1731 -0.0266
12626TIP3    H259294   3.890   1.086  15.848  4.1788 -0.4810 -0.4611
12627TIP3   OH259295   1.352   1.526  16.374 -0.2269 -0.1624  0.8140
12627TIP3    H159296   1.263   1.518  16.340 -0.1985 -0.8959  0.9034
12627TIP3    H259297   1.347   1.492  16.463  0.5654 -2.2702  0.1203
12628TIP3   OH259298   3.502   4.615  11.308 -0.1373 -0.6506 -0.1519
12628TIP3    H159299   3.505   4.689  11.248  1.2799 -0.1094  0.5504
12628TIP3    H259300   3.508   4.538  11.252 -0.0390 -0.1974 -0.7727
12629TIP3   OH259301   5.675   0.058   4.894 -0.5196  0.2188  0.0747
12629TIP3    H159302   5.639   0.001   4.826 -0.4350 -0.3943  0.5403
12629TIP3    H259303   5.691   0.142   4.849 -1.3884  0.1276 -0.4222
12630TIP3   OH259304   1.695   1.523  15.536  0.5052 -0.1552 -0.6924
12630TIP3    H159305   1.754   1.449  15.519 -0.7316 -1.8265  1.7131
12630TIP3    H259306   1.723   1.556  15.622 -0.4799  0.6434 -0.6647
12631TIP3   OH259307   1.980   1.959   5.889 -0.3984 -0.0646 -0.3459
12631TIP3    H159308   2.011   2.040   5.928  0.5416 -0.1136 -0.9693
12631TIP3    H259309   1.972   1.898   5.962  2.8149 -0.6190 -0.3445
12632TIP3   OH259310   2.083   4.943  17.063 -0.1663 -0.0418 -0.3414
12632TIP3    H159311   2.171   4.962  17.095 -0.2118  0.7166 -0.6541
12632TIP3    H259312   2.057   5.022  17.016 -0.6617 -0.6020 -1.0203
12633TIP3   OH259313   2.464   5.500   5.113 -0.0464 -0.2827  0.2247
12633TIP3    H159314   2.512   5.546   5.181 -1.6360  1.4679  0.2392
12633TIP3    H259315   2.427   5.423   5.156  0.4457 -0.1633  0.8654
12634TIP3   OH259316   0.481   0.779  16.034 -0.1201  0.7741  0.2617
12634TIP3    H159317   0.453   0.692  16.004  3.0800 -0.3322  0.1303
12634TIP3    H259318   0.507   0.766  16.125  0.5889  1.5235  0.1804
12635TIP3   OH259319   5.207   2.067   4.660 -0.5782  0.1883  0.0367
12635TIP3    H159320   5.151   1.997   4.695 -0.2148 -1.2606 -2.0365
12635TIP3    H259321   5.291   2.054   4.703 -0.8387  0.0947  0.5285
12636TIP3   OH259322   5.587   5.249   2.497 -0.0612  0.3268 -0.7679
12636TIP3    H159323   5.549   5.165   2.524 -1.2084 -0.0025 -3.1063
12636TIP3    H259324   5.653   5.225   2.433 -0.7484  1.1870 -1.8435
12637TIP3   OH259325   2.980   3.435   0.653  0.0301 -0.5179  0.2033
12637TIP3    H159326   2.944   3.444   0.742 -1.6416 -0.6949 -0.4064
12637TIP3    H259327   2.984   3.524   0.619  0.2158 -0.4898  0.3019
12638TIP3   OH259328   0.300   3.296  14.284 -0.4587  0.5244 -0.0786
12638TIP3    H159329   0.395   3.289  14.285 -0.6030 -2.2691 -0.1997
12638TIP3    H259330   0.278   3.330  14.371  0.5980  0.8547  0.0743
12639TIP3   OH259331   2.318   3.851  11.777 -0.0010 -0.0952 -0.4990
12639TIP3    H159332   2.254   3.809  11.834  0.1383 -0.1953 -0.4129
12639TIP3    H259333   2.363   3.914  11.834 -0.0604  0.0130 -0.5724
12640TIP3   OH259334   5.034   2.767   2.435  0.2279  0.3203  0.0678
12640TIP3    H159335   5.045   2.724   2.350 -1.6833  2.5411 -1.4075
12640TIP3    H259336   5.024   2.694   2.497 -0.0463 -1.3625 -1.8428
12641TIP3   OH259337   4.438   3.260   3.427 -0.6874 -0.4031 -0.6183
12641TIP3    H159338   4.375   3.258   3.498  1.1655 -0.9823  1.0959
12641TIP3    H259339   4.434   3.349   3.393 -2.3349 -0.4086 -0.5122
12642TIP3   OH259340   6.453   0.345  15.049 -0.2371  0.3193  0.2340
12642TIP3    H159341   6.500   0.262  15.040 -1.0795 -0.1149 -0.2457
12642TIP3    H259342   6.509   0.398  15.106  2.2068  0.8365 -2.4021
12643TIP3   OH259343   2.923   3.641   1.322  0.3050  0.2110 -0.4945
12643TIP3    H159344   2.920   3.582   1.398 -0.4681 -0.1488 -0.7864
12643TIP3    H259345   3.010   3.629   1.284  1.3194  1.5728  1.2380
12644TIP3   OH259346   0.970   3.402  15.834  0.3564  0.5930 -0.4049
12644TIP3    H159347   1.041   3.406  15.898  0.1569 -0.0333 -0.1446
12644TIP3    H259348   0.955   3.494  15.810  2.2254  0.6663 -1.5523
12645TIP3   OH259349   5.051   5.193   4.094 -0.2065  0.4001  0.0435
12645TIP3    H159350   4.972   5.139   4.099 -1.5190  2.3423  1.7948
12645TIP3    H259351   5.119   5.137   4.131 -0.9856 -0.8766 -0.3492
12646TIP3   OH259352   1.782   1.416  12.821 -0.1921  0.0347  0.5046
12646TIP3    H159353   1.831   1.412  12.903 -1.3439 -0.6117  1.2025
12646TIP3    H259354   1.844   1.388  12.754  0.4965 -0.3762  1.2989
12647TIP3   OH259355   6.717   4.751  13.226 -0.5751 -0.0665  0.2325
12647TIP3    H159356   6.634   4.705  13.244  0.7899 -2.8943 -0.1815
12647TIP3    H259357   6.784   4.696  13.267  1.2628  1.3299 -0.7500
12648TIP3   OH259358   3.460   5.169   3.252  0.0433  0.2313 -0.1029
12648TIP3    H159359   3.503   5.086   3.234  1.0640  0.5944  0.5304
12648TIP3    H259360   3.457   5.214   3.167  0.7409  0.1030 -0.2047
12649TIP3   OH259361   4.384   5.351   4.723  0.4182 -0.3832 -0.2438
12649TIP3    H159362   4.456   5.290   4.704 -0.4815 -1.8939  0.9488
12649TIP3    H259363   4.422   5.413   4.786  0.7833 -0.9573  0.1118
12650TIP3   OH259364   4.707   4.060   0.872  0.6316 -0.1185 -0.4286
12650TIP3    H159365   4.775   4.120   0.905  0.4866  0.9819 -2.0359
12650TIP3    H259366   4.756   3.981   0.846  1.1445  0.2238 -0.5227
12651TIP3   OH259367   1.248   3.350   0.762  0.3030 -0.6691  0.0962
12651TIP3    H159368   1.280   3.265   0.732  2.7013  0.1509  0.1394
12651TIP3    H259369   1.264   3.409   0.688  2.2637  0.4886  1.3753
12652TIP3   OH259370   6.609   1.877  16.955 -0.0666  0.5794 -0.8065
12652TIP3    H159371   6.542   1.900  16.890  0.2742  0.7672 -1.0920
12652TIP3    H259372   6.657   1.958  16.969  0.6075  0.2493 -1.1924
12653TIP3   OH259373   5.677   4.550  15.459  0.3304  0.2243  0.1927
12653TIP3    H159374   5.600   4.607  15.453  0.6584  0.5893 -0.9045
12653TIP3    H259375   5.705   4.539  15.368  1.6828  0.2434  0.5842
12654TIP3   OH259376   1.041   1.927  13.911  0.4407  0.0539  0.2061
12654TIP3    H159377   0.983   2.001  13.892 -1.9030 -1.5018  0.7339
12654TIP3    H259378   1.117   1.965  13.953  0.1151  2.3037 -1.1232
12655TIP3   OH259379   0.778   4.916   2.759 -0.2703  0.1271  0.4453
12655TIP3    H159380   0.737   4.847   2.812  0.8567 -1.0509 -0.1761
12655TIP3    H259381   0.867   4.922   2.792 -0.2508  1.0525  0.2450
12656TIP3   OH259382   0.328   3.537   2.573 -0.0836  0.5868 -0.2070
12656TIP3    H159383   0.241   3.521   2.536 -0.3602  0.2014  0.5981
12656TIP3    H259384   0.326   3.629   2.600 -0.3230  0.5107  0.0344
12657TIP3   OH259385   0.264   1.028  14.461  1.0107 -0.1080 -0.2231
12657TIP3    H159386   0.358   1.013  14.454  0.5798 -3.0217 -0.9690
12657TIP3    H259387   0.232   0.956  14.515 -0.7416  1.2153  0.6039
12658TIP3   OH259388   2.889   4.986  12.030  0.7508 -0.0441  0.1371
12658TIP3    H159389   2.970   5.031  12.006  0.2267  0.0933 -1.5076
12658TIP3    H259390   2.843   4.975  11.948 -2.6196  3.1501  1.3506
12659TIP3   OH259391   0.433   0.291   1.693  0.0104 -0.0632 -0.5269
12659TIP3    H159392   0.366   0.225   1.675  1.9972 -3.0881  2.0424
12659TIP3    H259393   0.435   0.297   1.789  2.8173  0.4682 -0.5489
12660TIP3   OH259394   6.645   3.045   4.296  0.2971 -0.0731 -0.1477
12660TIP3    H159395   6.580   2.991   4.343 -1.1905  2.0429  0.3918
12660TIP3    H259396   6.728   3.024   4.338 -0.5312 -0.5762  1.3273
12661TIP3   OH259397   5.511   1.862  12.141  0.4846  0.0205 -0.2553
12661TIP3    H159398   5.422   1.846  12.108  1.1855  0.4135 -2.5161
12661TIP3    H259399   5.505   1.945  12.187 -0.3743 -0.0940 -0.1509
12662TIP3   OH259400   3.438   0.856   1.890  0.2225  0.4913  0.0677
12662TIP3    H159401   3.456   0.764   1.875  0.7629  0.6774 -0.4636
12662TIP3    H259402   3.392   0.859   1.974 -0.9616 -0.3866 -0.5298
12663TIP3   OH259403   5.322   6.696   0.747 -0.5688  0.2521  0.6274
12663TIP3    H159404   5.397   6.652   0.707  0.0019  0.4425  1.4562
12663TIP3    H259405   5.248   6.674   0.690  0.3627  1.2815 -1.0736
12664TIP3   OH259406   3.668   2.716   2.228  0.4158  0.0572 -0.0316
12664TIP3    H159407   3.618   2.791   2.261  0.9319  0.3952 -0.0016
12664TIP3    H259408   3.751   2.721   2.274  0.8142  0.0253 -0.7388
12665TIP3   OH259409   2.229   1.381   3.872  0.3334 -0.0856 -0.9744
12665TIP3    H159410   2.273   1.414   3.950 -1.1106  4.1376 -1.7248
12665TIP3    H259411   2.301   1.354   3.814  1.5262 -0.6149  0.6870
12666TIP3   OH259412   5.661   0.205   4.428 -0.1197  0.3349 -0.5265
12666TIP3    H159413   5.570   0.207   4.398 -0.3585  0.5531  0.2028
12666TIP3    H259414   5.697   0.289   4.399 -0.2133  0.3499 -0.6021
12667TIP3   OH259415   1.727   1.700  13.122  0.0557  0.2299  0.1537
12667TIP3    H159416   1.753   1.660  13.206  2.3289 -2.2257 -1.5388
12667TIP3    H259417   1.803   1.753  13.097  0.3183 -0.7750 -1.2924
12668TIP3   OH259418   1.722   1.632   6.094  0.4831 -0.0069  0.6621
12668TIP3    H159419   1.754   1.543   6.078  0.5548  0.2301 -0.6504
12668TIP3    H259420   1.799   1.687   6.080  0.3477  0.3015  1.1065
12669TIP3   OH259421   6.083   2.784   0.278 -0.5787  0.0080  0.0245
12669TIP3    H159422   6.042   2.703   0.309 -0.1978 -1.0734 -2.1118
12669TIP3    H259423   6.155   2.754   0.222  1.3660  1.8473  1.3814
12670TIP3   OH259424   2.533   4.695   0.958  0.3018 -0.1166 -0.2496
12670TIP3    H159425   2.455   4.687   1.014 -0.7401 -3.2592 -1.8516
12670TIP3    H259426   2.606   4.669   1.014 -0.1293  0.6559  0.6839
12671TIP3   OH259427   0.858   2.971   0.063  0.0479 -0.2690 -0.2093
12671TIP3    H159428   0.846   2.933   0.150 -0.1761 -2.1479 -1.0233
12671TIP3    H259429   0.924   3.039   0.076 -1.2084  0.6885  1.7277
12672TIP3   OH259430   0.394   1.205   1.083 -0.0683  0.1712  0.3420
12672TIP3    H159431   0.406   1.211   0.988 -0.7736 -2.9145 -0.0473
12672TIP3    H259432   0.342   1.281   1.106  1.3630  1.7999 -1.4579
12673TIP3   OH259433   6.611   3.322   3.710 -0.2824 -0.4001  0.3132
12673TIP3    H159434   6.612   3.358   3.799 -0.8080  0.5391 -0.0344
12673TIP3    H259435   6.526   3.350   3.675  0.8754  1.3372 -1.2899
12674TIP3   OH259436   0.858   0.411   0.514 -0.5941 -0.1216 -0.0261
12674TIP3    H159437   0.808   0.439   0.437 -1.0214  0.6752  0.5242
12674TIP3    H259438   0.912   0.486   0.536  1.4670 -1.2343 -1.0689
12675TIP3   OH259439   5.869   6.539   1.057 -0.2014 -0.0213 -0.3381
12675TIP3    H159440   5.818   6.538   0.976 -0.7871  1.6425 -0.0334
12675TIP3    H259441   5.909   6.453   1.061  1.5203  0.4773 -3.4458
12676TIP3   OH259442   2.795   3.510  10.182  0.8326 -0.0821  0.1871
12676TIP3    H159443   2.837   3.578  10.234  0.3853  0.4184 -0.0851
12676TIP3    H259444   2.862   3.483  10.119  1.5000 -0.9577  1.2394
12677TIP3   OH259445   0.310   3.900  14.518  0.3992  0.5509  0.2250
12677TIP3    H159446   0.400   3.934  14.519  0.5811  0.0945 -0.4311
12677TIP3    H259447   0.286   3.895  14.611  0.2892  2.6609  0.3583
12678TIP3   OH259448   5.761   1.765   3.375 -0.3802  0.4612  0.6503
12678TIP3    H159449   5.679   1.811   3.356 -1.7367 -1.4346  1.5831
12678TIP3    H259450   5.777   1.780   3.468 -0.2802 -0.1056  0.7276
12679TIP3   OH259451   3.560   1.414  14.830 -0.0575  0.5058 -0.4650
12679TIP3    H159452   3.606   1.480  14.779  0.8139 -0.9694 -1.6726
12679TIP3    H259453   3.623   1.341  14.837 -1.6053 -0.9054 -0.7300
12680TIP3   OH259454   1.034   5.162  16.157  0.4062 -0.1538  0.5807
12680TIP3    H159455   1.001   5.137  16.243  0.5199 -0.1635  0.6217
12680TIP3    H259456   0.955   5.180  16.105  0.3200 -0.6915  0.5195
12681TIP3   OH259457   2.625   1.117  13.433 -0.0583 -0.5293  0.2181
12681TIP3    H159458   2.670   1.123  13.348  0.3906  0.1107  0.4960
12681TIP3    H259459   2.644   1.200  13.476 -1.5588 -0.2151  0.3265
12682TIP3   OH259460   4.209   6.550   2.594 -0.1822 -0.7573  0.4708
12682TIP3    H159461   4.295   6.593   2.599  0.7861 -2.6340  0.9008
12682TIP3    H259462   4.147   6.622   2.580  1.4804  0.6241 -0.2046
12683TIP3   OH259463   1.675   2.842   1.503  0.1196  0.2327  0.3277
12683TIP3    H159464   1.667   2.768   1.564  1.9000 -0.6695 -0.4618
12683TIP3    H259465   1.586   2.876   1.494 -0.4298 -0.6441  2.1475
12684TIP3   OH259466   3.867   4.751  17.163  0.0064  0.1770  0.1235
12684TIP3    H159467   3.953   4.787  17.181  1.3728 -2.2021 -1.1858
12684TIP3    H259468   3.861   4.673  17.217  0.2637 -1.7076 -2.3795
12685TIP3   OH259469   5.798   5.595   5.103  0.0778  0.1546  0.0405
12685TIP3    H159470   5.838   5.657   5.163  2.3672  0.2400 -1.4610
12685TIP3    H259471   5.858   5.520   5.102 -0.2766 -0.1410 -1.5601
12686TIP3   OH259472   0.587   4.125  17.160 -0.1436  0.2763 -1.3595
12686TIP3    H159473   0.630   4.044  17.131 -0.3642  0.4017 -2.0585
12686TIP3    H259474   0.655   4.174  17.205 -0.3240 -0.8740  0.2636
12687TIP3   OH259475   4.137   1.594   5.090 -0.1893  0.5617 -0.4028
12687TIP3    H159476   4.076   1.646   5.037  0.1402  0.9758 -0.3792
12687TIP3    H259477   4.121   1.624   5.180 -0.2911  0.3240 -0.3409
12688TIP3   OH259478   0.626   0.952  14.062  0.1183 -0.1179 -0.1551
12688TIP3    H159479   0.633   1.041  14.028 -0.9085 -0.0120 -0.1224
12688TIP3    H259480   0.601   0.900  13.986 -1.0109 -0.0793  0.1774
12689TIP3   OH259481   3.927   5.701   1.781 -0.2017  0.0549  0.3102
12689TIP3    H159482   3.902   5.757   1.854 -0.0666  0.3685  0.1153
12689TIP3    H259483   3.844   5.664   1.750 -0.6099  1.9982 -1.0881
12690TIP3   OH259484   4.795   3.119  14.563 -0.3008  0.4497  0.4281
12690TIP3    H159485   4.754   3.202  14.589 -1.6156 -0.3784  1.1343
12690TIP3    H259486   4.795   3.067  14.643  2.0533  0.3358  0.4063
12691TIP3   OH259487   3.686   1.741  10.751 -0.1334 -0.0445  0.2873
12691TIP3    H159488   3.674   1.715  10.843 -2.0247  0.5265  0.2373
12691TIP3    H259489   3.598   1.761  10.720  0.5078  0.0393 -1.5945
12692TIP3   OH259490   2.654   0.357   5.291 -0.4977  0.1577 -0.3336
12692TIP3    H159491   2.663   0.441   5.337 -1.6066 -0.2095  0.6024
12692TIP3    H259492   2.590   0.374   5.222  1.4237  0.7997 -2.0506
12693TIP3   OH259493   6.103   0.924   3.315  0.2355 -0.0115 -0.6170
12693TIP3    H159494   6.182   0.969   3.346  0.0871  0.0395 -0.3121
12693TIP3    H259495   6.043   0.995   3.293  0.2729 -0.0506 -0.8532
12694TIP3   OH259496   2.464   1.996   2.588 -0.1613 -0.0967 -0.1685
12694TIP3    H159497   2.441   1.949   2.669 -0.5776  0.6088  0.1325
12694TIP3    H259498   2.541   2.048   2.611 -0.9656  0.9953  0.1217
12695TIP3   OH259499   5.529   5.963  16.541 -0.0392  0.8867 -0.2968
12695TIP3    H159500   5.469   5.896  16.509  0.9691 -0.5642  0.7419
12695TIP3    H259501   5.572   5.996  16.461 -0.7494  0.5082 -0.8485
12696TIP3   OH259502   5.764   4.068  15.633 -0.1547 -0.0093 -0.5778
12696TIP3    H159503   5.692   4.112  15.587 -0.5616 -0.4209 -0.3438
12696TIP3    H259504   5.784   4.127  15.706 -1.1706 -0.5202  0.1445
12697TIP3   OH259505   5.085   6.233   5.845  0.0782  0.0180  0.2497
12697TIP3    H159506   5.065   6.292   5.918 -0.2368  0.2389 -0.0128
12697TIP3    H259507   5.119   6.154   5.887  0.2058  0.2669  0.6201
12698TIP3   OH259508   3.156   6.580  12.761 -0.3746 -0.8206  0.2566
12698TIP3    H159509   3.115   6.644  12.820  1.8262 -0.3598  1.3666
12698TIP3    H259510   3.211   6.632  12.703 -1.4519 -1.4163 -1.3923
12699TIP3   OH259511   2.398   4.039  11.959 -0.0361  0.6411 -0.0670
12699TIP3    H159512   2.418   3.989  12.038 -1.0079  1.5837  0.7952
12699TIP3    H259513   2.326   4.097  11.984 -1.8050 -0.4758 -2.1952
12700TIP3   OH259514   4.065   2.422  14.031  0.5729 -0.1201 -0.6003
12700TIP3    H159515   4.043   2.329  14.022 -0.4598 -0.1356  1.4006
12700TIP3    H259516   4.161   2.424  14.029  0.6579 -1.4097  0.5163
12701TIP3   OH259517   1.382   5.841   5.358 -0.0464 -0.4693  0.4445
12701TIP3    H159518   1.425   5.824   5.442 -0.2990  0.7621  0.8297
12701TIP3    H259519   1.301   5.790   5.362 -1.9862  2.5111  2.5851
12702TIP3   OH259520   5.882   1.629  11.024 -0.1832 -0.0770 -0.0878
12702TIP3    H159521   5.909   1.643  10.934 -0.9502 -0.9288 -0.4607
12702TIP3    H259522   5.946   1.567  11.060  1.0829  1.4834  0.4746
12703TIP3   OH259523   1.408   0.955   0.631 -0.3454 -0.4226 -0.1591
12703TIP3    H159524   1.478   0.898   0.599  2.0459  1.6973  0.9250
12703TIP3    H259525   1.387   0.920   0.718 -0.1992 -0.6977 -0.2330
12704TIP3   OH259526   0.168   1.342   1.178  0.3139 -0.4808  0.1801
12704TIP3    H159527   0.222   1.419   1.196 -0.6227 -0.0693  1.3275
12704TIP3    H259528   0.091   1.377   1.133  0.0231 -0.7814  0.4401
12705TIP3   OH259529   5.232   3.130  14.401  0.1621 -0.6154 -0.2096
12705TIP3    H159530   5.150   3.085  14.420  0.3952 -0.5504  1.0658
12705TIP3    H259531   5.292   3.061  14.374 -0.4053 -0.6139 -1.5295
12706TIP3   OH259532   5.613   5.104   4.357  0.4868  0.2595  0.2956
12706TIP3    H159533   5.663   5.133   4.433  0.1285  0.8928  0.3004
12706TIP3    H259534   5.557   5.034   4.391  0.9930 -0.0935  0.4044
12707TIP3   OH259535   5.581   2.297   2.941  0.6136  0.1521  0.5097
12707TIP3    H159536   5.578   2.223   3.001  2.2095 -1.4757 -1.2617
12707TIP3    H259537   5.489   2.321   2.928  0.1743 -0.2725  2.5480
12708TIP3   OH259538   1.990   5.507  11.617 -0.8325  0.0803  0.3301
12708TIP3    H159539   2.035   5.553  11.687  0.7439 -0.4626 -0.2980
12708TIP3    H259540   2.043   5.521  11.539 -1.4621 -1.0006 -0.3328
12709TIP3   OH259541   5.163   2.714   1.981 -0.7299  0.4002 -0.0588
12709TIP3    H159542   5.091   2.746   1.927 -0.3603  0.3807 -0.5746
12709TIP3    H259543   5.225   2.678   1.918  0.1633  1.2612  0.2976
12710TIP3   OH259544   0.586   4.811  16.916 -0.0009  0.3061  0.8250
12710TIP3    H159545   0.540   4.786  16.996 -1.5733 -1.0866 -0.4494
12710TIP3    H259546   0.583   4.733  16.861  1.7744  0.9596 -0.2999
12711TIP3   OH259547   2.728   1.381  11.713  0.2929  0.5047 -0.2298
12711TIP3    H159548   2.744   1.440  11.639  1.8422  0.2169 -0.1606
12711TIP3    H259549   2.800   1.319  11.710 -0.7201 -0.7539  0.3480
12712TIP3   OH259550   0.219   0.185   5.275  0.3391 -0.3106 -0.2038
12712TIP3    H159551   0.227   0.277   5.252 -0.2807 -0.3802 -0.7321
12712TIP3    H259552   0.162   0.184   5.352  1.3656 -0.1733  0.5841
12713TIP3   OH259553   2.885   3.423  14.061 -0.1554  0.1309  0.4214
12713TIP3    H159554   2.810   3.462  14.107 -1.3483 -2.2112  0.6263
12713TIP3    H259555   2.852   3.339  14.028  1.3230  0.6456 -2.7592
12714TIP3   OH259556   5.124   6.529   0.176 -0.5577 -0.0780  0.7620
12714TIP3    H159557   5.061   6.561   0.241  0.7552  1.8684  1.1605
12714TIP3    H259558   5.086   6.554   0.092 -1.7276 -1.6252  0.7795
12715TIP3   OH259559   3.812   4.808  13.251  0.0495 -0.0210  0.1876
12715TIP3    H159560   3.814   4.713  13.263  0.2369 -0.2524 -1.4440
12715TIP3    H259561   3.902   4.831  13.230 -0.1616  0.4010 -0.2608
12716TIP3   OH259562   3.909   4.834   1.219 -0.9379  0.6030  0.0204
12716TIP3    H159563   3.999   4.852   1.247 -1.0131  0.0664  0.6489
12716TIP3    H259564   3.863   4.917   1.230 -0.8077  0.5720  0.9136
12717TIP3   OH259565   0.028   2.475   5.585  0.7690  0.4358 -0.6386
12717TIP3    H159566   0.118   2.502   5.599  0.9646 -1.1036  1.7638
12717TIP3    H259567  -0.015   2.490   5.670 -1.1942  0.9444 -1.6583
12718TIP3   OH259568   3.218   4.792   6.108  0.0057  0.2581 -0.2224
12718TIP3    H159569   3.271   4.732   6.160  0.3850  0.9175  0.1605
12718TIP3    H259570   3.152   4.736   6.066 -0.4743 -0.2438  1.1742
12719TIP3   OH259571   1.395   4.461  13.194  0.2046 -0.1568  0.4238
12719TIP3    H159572   1.491   4.465  13.187  0.4019 -2.8930  0.4698
12719TIP3    H259573   1.366   4.428  13.109 -0.7513  0.9022  0.3186
12720TIP3   OH259574   6.646   0.300  15.854 -0.3398  0.1108  0.5658
12720TIP3    H159575   6.587   0.225  15.861  1.1408 -1.0547  0.8758
12720TIP3    H259576   6.591   0.370  15.819 -2.5657 -0.2031  3.0781
12721TIP3   OH259577   6.199   0.922   0.305 -0.2074  0.4504  0.0886
12721TIP3    H159578   6.167   0.900   0.392 -0.7991  0.3206 -0.1563
12721TIP3    H259579   6.294   0.922   0.313 -0.2422 -0.2815  0.5611
12722TIP3   OH259580   6.551   2.596   3.316 -0.2873 -0.4101  0.3091
12722TIP3    H159581   6.596   2.645   3.247 -0.8830 -2.2570 -1.4862
12722TIP3    H259582   6.614   2.528   3.341  0.6524  1.2558  2.9872
12723TIP3   OH259583   2.306   4.135   5.531  0.2552 -0.3417  0.3990
12723TIP3    H159584   2.314   4.068   5.598  0.7294 -0.3797  0.3065
12723TIP3    H259585   2.345   4.214   5.570  1.9365 -0.7519 -0.3641
12724TIP3   OH259586   3.810   3.984  16.398  0.1835 -0.0938 -0.5662
12724TIP3    H159587   3.901   4.012  16.392  0.2016 -0.1990 -0.7913
12724TIP3    H259588   3.775   4.031  16.474  1.4060 -2.7037  1.7910
12725TIP3   OH259589   2.013   6.219   1.438 -0.2022 -0.8268 -0.1675
12725TIP3    H159590   2.061   6.163   1.498 -0.7780 -1.1823 -0.0301
12725TIP3    H259591   2.081   6.259   1.383  0.1418 -2.6504 -1.1273
12726TIP3   OH259592   1.014   1.703  13.100 -0.1793  0.1325 -0.3931
12726TIP3    H159593   1.009   1.686  13.195 -3.1001  0.8142 -0.3441
12726TIP3    H259594   1.093   1.757  13.090  0.8122 -0.8509  1.4596
12727TIP3   OH259595   4.375   0.600  15.484  0.3635 -0.3635  0.3947
12727TIP3    H159596   4.438   0.665  15.517  2.2200 -1.7646 -0.2044
12727TIP3    H259597   4.419   0.516  15.496 -1.2683 -1.3756 -0.4084
12728TIP3   OH259598   5.334   3.823  12.006 -0.1015  0.3693 -0.0795
12728TIP3    H159599   5.313   3.906  11.964 -0.8230  1.1226  1.6868
12728TIP3    H259600   5.382   3.774  11.939  0.5414  2.2711 -1.0791
12729TIP3   OH259601   5.413   3.644  16.741 -0.3631 -0.5838 -0.0972
12729TIP3    H159602   5.472   3.629  16.815 -0.6649  0.2727  0.3376
12729TIP3    H259603   5.438   3.579  16.676  2.3519  0.9216 -0.6931
12730TIP3   OH259604   1.254   2.638  15.129 -0.0544 -0.4274  0.1946
12730TIP3    H159605   1.229   2.550  15.099 -1.1487 -0.4419  1.0744
12730TIP3    H259606   1.268   2.628  15.223  0.5276  0.2072  0.1840
12731TIP3   OH259607   0.178   5.027  16.873  0.1522  0.4025  0.2798
12731TIP3    H159608   0.222   5.050  16.955 -1.0413  1.2354  0.7100
12731TIP3    H259609   0.087   5.011  16.898 -0.1789  0.4355 -0.8502
12732TIP3   OH259610   3.385   6.467  15.081 -0.2923  0.5914 -0.1841
12732TIP3    H159611   3.308   6.414  15.059  0.7052 -1.1977  0.4708
12732TIP3    H259612   3.457   6.405  15.085  1.0007  2.0598  0.3285
12733TIP3   OH259613   0.505   6.677  15.757 -0.0213 -0.6754  0.5826
12733TIP3    H159614   0.457   6.683  15.674 -1.5075 -1.9626  1.2848
12733TIP3    H259615   0.512   6.767  15.787 -2.1664 -0.4103  0.4780
12734TIP3   OH259616   6.691   4.075  14.165  0.6400  0.3264  0.1311
12734TIP3    H159617   6.648   4.113  14.088  0.9875  1.1292  0.3239
12734TIP3    H259618   6.675   4.138  14.235  0.2873 -0.4160  0.7393
12735TIP3   OH259619   3.584   4.497  14.910 -0.8151 -1.0057 -0.6288
12735TIP3    H159620   3.662   4.489  14.855 -0.3797 -0.2114 -0.1420
12735TIP3    H259621   3.566   4.591  14.911 -1.3829 -1.1203 -0.1897
12736TIP3   OH259622   3.140   1.578  11.004 -0.7063  0.1204  0.3720
12736TIP3    H159623   3.056   1.595  10.961 -0.4159 -0.8281 -0.6018
12736TIP3    H259624   3.205   1.616  10.945 -0.2517 -1.8158 -0.4523
12737TIP3   OH259625   5.973   4.980   1.504  0.5532  0.1672 -0.0798
12737TIP3    H159626   6.059   5.021   1.509 -0.1483  1.5401  1.5419
12737TIP3    H259627   5.911   5.052   1.513 -0.8183 -0.7382 -1.6525
12738TIP3   OH259628   1.893   6.141   2.168  0.0115 -0.0349  0.6096
12738TIP3    H159629   1.905   6.231   2.197 -2.9258  0.3838  0.7496
12738TIP3    H259630   1.810   6.114   2.206 -0.9463 -1.6000 -2.3090
12739TIP3   OH259631   6.624   1.773   0.729 -0.0857  0.0438  0.4210
12739TIP3    H159632   6.699   1.815   0.772 -0.7733  0.4152  1.3014
12739TIP3    H259633   6.593   1.709   0.793 -0.0127 -0.6996 -0.2768
12740TIP3   OH259634   1.004   0.185   6.098  0.4592  0.0420 -0.7213
12740TIP3    H159635   1.047   0.270   6.095 -0.4073  0.5059 -0.2373
12740TIP3    H259636   1.064   0.126   6.052  0.8806  0.9907 -1.4033
12741TIP3   OH259637   4.258   1.425   2.767  0.6370 -0.1834  0.2372
12741TIP3    H159638   4.352   1.419   2.751  1.0172 -0.0646  2.2132
12741TIP3    H259639   4.250   1.461   2.855 -1.2921  1.2704 -0.4524
12742TIP3   OH259640   1.160   6.244   1.042 -0.5758 -0.0380 -0.4002
12742TIP3    H159641   1.145   6.200   1.126 -0.8500  0.8075  0.0114
12742TIP3    H259642   1.095   6.315   1.041 -0.6870 -0.1505 -1.4086
12743TIP3   OH259643   0.994   0.499   1.963 -0.4189 -0.1258 -0.2822
12743TIP3    H159644   1.000   0.404   1.976  1.5451  0.1114  0.9626
12743TIP3    H259645   1.001   0.511   1.869  0.1758 -1.2001 -0.3940
12744TIP3   OH259646   2.556   0.294  15.831  0.0624 -0.3155 -0.2397
12744TIP3    H159647   2.545   0.384  15.862  0.5911 -0.7797  1.3944
12744TIP3    H259648   2.641   0.294  15.788  0.5437 -0.2785  0.7060
12745TIP3   OH259649   4.706   3.168   2.467 -0.0374  0.0863 -0.0042
12745TIP3    H159650   4.697   3.132   2.555  0.4974  2.8314  1.2778
12745TIP3    H259651   4.788   3.131   2.434 -1.0536 -2.2590 -0.0968
12746TIP3   OH259652   6.260   5.869   1.767 -0.5277  0.2101  0.1665
12746TIP3    H159653   6.180   5.851   1.716 -0.7105 -0.5220  0.7049
12746TIP3    H259654   6.230   5.928   1.837 -0.4929  0.3420  0.0710
12747TIP3   OH259655   6.093   0.370   3.293 -0.1705  0.2558 -0.1574
12747TIP3    H159656   6.071   0.447   3.240 -0.3350 -0.4021 -1.0697
12747TIP3    H259657   6.018   0.359   3.352  0.8385  2.1192  1.5958
12748TIP3   OH259658   6.103   5.818  16.056  0.3908  0.0958  0.1431
12748TIP3    H159659   6.092   5.914  16.056  0.8550  0.1530  0.1194
12748TIP3    H259660   6.193   5.805  16.027  0.3350 -0.3514  0.1701
12749TIP3   OH259661   0.003   5.642   0.653  0.1912 -0.4060  0.5557
12749TIP3    H159662  -0.092   5.653   0.647  0.2078 -0.6196 -0.2596
12749TIP3    H259663   0.029   5.701   0.723  0.0123  3.4826 -2.3107
12750TIP3   OH259664   2.599   6.659  14.691  0.1648  0.5628 -0.6450
12750TIP3    H159665   2.654   6.636  14.765  0.9113 -0.2513 -1.4220
12750TIP3    H259666   2.657   6.650  14.615 -0.4150  1.9260 -1.2824
12751TIP3   OH259667   2.975   0.539  16.891 -0.0975 -0.5503 -0.2369
12751TIP3    H159668   3.058   0.580  16.865 -0.2331 -0.3727 -0.3950
12751TIP3    H259669   2.996   0.446  16.899 -0.3002 -0.7994 -2.1447
12752TIP3   OH259670   6.399   4.692   4.885  0.6378  0.1635 -0.2063
12752TIP3    H159671   6.490   4.666   4.903  1.1423  1.5033 -0.7332
12752TIP3    H259672   6.347   4.618   4.917  1.8585 -0.2533  0.9160
12753TIP3   OH259673   6.313   0.540  10.961  0.6927 -0.0127 -0.2081
12753TIP3    H159674   6.294   0.631  10.983 -0.7845 -0.0353 -1.2727
12753TIP3    H259675   6.255   0.520  10.888  0.0647 -2.1939  0.8022
12754TIP3   OH259676   0.560   0.372   1.140 -0.3670 -0.3987 -0.4783
12754TIP3    H159677   0.484   0.336   1.095 -1.2794  1.2508 -0.3473
12754TIP3    H259678   0.586   0.303   1.201 -0.1965 -1.9746 -2.2236
12755TIP3   OH259679   0.451   1.034  10.325 -0.0971 -0.4895  0.4414
12755TIP3    H159680   0.471   1.113  10.274  1.1100 -0.2579  1.2263
12755TIP3    H259681   0.361   1.048  10.356  0.0961  0.5807  0.5661
12756TIP3   OH259682   4.004   1.297  16.058 -0.4306  0.2787  0.1457
12756TIP3    H159683   3.976   1.282  15.968  0.5847  2.3411 -0.5795
12756TIP3    H259684   3.995   1.212  16.100  1.4016 -1.3956 -2.5446
12757TIP3   OH259685   2.576   1.496   5.724  0.6045 -0.6027  0.1121
12757TIP3    H159686   2.518   1.550   5.670  1.1219 -1.9064 -1.8733
12757TIP3    H259687   2.664   1.525   5.702  0.8309 -1.1670  0.2388
12758TIP3   OH259688   3.730   3.348   2.939  0.2674 -0.4824 -0.0079
12758TIP3    H159689   3.807   3.361   2.995 -1.1674 -1.9467  2.4933
12758TIP3    H259690   3.663   3.404   2.978 -0.1126  0.4980 -1.9316
12759TIP3   OH259691   3.584   6.328  14.075  0.7517 -1.1259  0.2336
12759TIP3    H159692   3.639   6.251  14.091  0.3775 -1.2128  1.1284
12759TIP3    H259693   3.647   6.396  14.048  1.0155 -1.8931 -1.1866
12760TIP3   OH259694   3.546   5.430   3.413 -0.3430  0.1889  0.1224
12760TIP3    H159695   3.460   5.471   3.420  0.6700  2.7908 -1.1178
12760TIP3    H259696   3.531   5.349   3.365 -2.2054  0.0309  0.8767
12761TIP3   OH259697   6.465   4.179   5.255  0.1080  0.3628  0.5362
12761TIP3    H159698   6.457   4.129   5.173 -2.2415 -1.3210  1.6826
12761TIP3    H259699   6.504   4.118   5.317  0.1284  1.0093  1.1739
12762TIP3   OH259700   1.635   1.864  17.207 -0.2273  0.0221  0.3030
12762TIP3    H159701   1.693   1.816  17.148 -1.5037 -0.0772 -0.9259
12762TIP3    H259702   1.598   1.934  17.153 -1.4888 -0.1152  0.9458
12763TIP3   OH259703   2.226   6.121   6.087 -0.4908 -0.4660 -0.4732
12763TIP3    H159704   2.280   6.044   6.071  0.2945  0.0264 -0.2281
12763TIP3    H259705   2.202   6.116   6.180 -0.3573 -0.3660 -0.4328
12764TIP3   OH259706   2.685   4.831  13.936  0.6014  0.2825 -0.4217
12764TIP3    H159707   2.667   4.760  13.875 -0.6281  0.4858 -0.3272
12764TIP3    H259708   2.667   4.793  14.022 -0.7820  0.8758 -0.4146
12765TIP3   OH259709   3.202   1.090  17.132  0.5201 -0.1233  0.2315
12765TIP3    H159710   3.113   1.108  17.162  0.2670  0.0480 -0.5973
12765TIP3    H259711   3.253   1.081  17.213 -0.3864 -0.9641  0.7309
12766TIP3   OH259712   4.383   6.614   3.318 -0.3444 -0.5519 -0.0967
12766TIP3    H159713   4.305   6.655   3.282 -1.8275 -2.3200  0.9250
12766TIP3    H259714   4.405   6.667   3.395  1.1609  1.5513 -1.8539
12767TIP3   OH259715   4.002   1.680   1.239 -0.1076  0.3346 -0.4338
12767TIP3    H159716   4.072   1.615   1.238  0.8137  1.2702  0.9709
12767TIP3    H259717   4.043   1.761   1.270 -1.7192  1.0166  0.0495
12768TIP3   OH259718   0.080   5.129  15.295  0.3371  0.7959 -0.2959
12768TIP3    H159719   0.012   5.118  15.228  2.0342 -1.6313 -1.7799
12768TIP3    H259720   0.048   5.079  15.370 -0.3639  1.3007 -0.2455
12769TIP3   OH259721   2.317   3.754  11.497  0.0665 -0.1181  0.2644
12769TIP3    H159722   2.346   3.836  11.455 -0.2900 -1.1278 -2.1013
12769TIP3    H259723   2.337   3.767  11.590 -0.2554  2.7739  0.0318
12770TIP3   OH259724   6.312   0.637  16.600  0.7761 -0.2790  0.3516
12770TIP3    H159725   6.256   0.697  16.649 -0.1706 -1.3200  0.5712
12770TIP3    H259726   6.393   0.686  16.587  0.0673  1.0044  0.6144
12771TIP3   OH259727   4.714   6.052   0.280  0.5328  0.5571 -0.9789
12771TIP3    H159728   4.746   6.114   0.215  1.3885  1.1291 -0.0355
12771TIP3    H259729   4.693   6.106   0.356  0.6253 -0.2284 -0.3836
12772TIP3   OH259730   0.118   2.816   4.700 -0.2776 -0.1172 -0.2246
12772TIP3    H159731   0.052   2.807   4.631 -0.4095 -0.6896 -0.0343
12772TIP3    H259732   0.075   2.781   4.779  0.5653 -1.4036 -0.3065
12773TIP3   OH259733   2.457   0.158  13.007 -0.1356 -0.3402  0.2504
12773TIP3    H159734   2.445   0.163  12.912  0.6265  1.2425  0.1951
12773TIP3    H259735   2.370   0.138  13.042 -0.6295  0.0703 -0.7206
12774TIP3   OH259736   4.830   1.750   2.365 -0.1640  0.4284 -0.0375
12774TIP3    H159737   4.827   1.783   2.275  0.7522  1.5777  0.3280
12774TIP3    H259738   4.923   1.754   2.389 -0.2817 -0.6917  0.6655
12775TIP3   OH259739   2.361   0.232  16.895  0.5198  0.0062  0.0393
12775TIP3    H159740   2.452   0.257  16.915 -0.2825  3.3199  0.2191
12775TIP3    H259741   2.328   0.194  16.977  1.2907  0.3341  0.5163
12776TIP3   OH259742   0.354   1.512  13.360  0.1404 -0.4553 -0.1970
12776TIP3    H159743   0.406   1.543  13.435  1.7457  1.4650 -1.9591
12776TIP3    H259744   0.290   1.582  13.345 -0.2043 -0.8492 -0.5761
12777TIP3   OH259745   6.182   1.341   5.794 -0.0887  0.5010 -0.3067
12777TIP3    H159746   6.234   1.376   5.722 -0.3518  3.2431  0.7159
12777TIP3    H259747   6.101   1.392   5.792 -0.7082 -0.3734  1.0419
12778TIP3   OH259748   5.637   4.922  14.291  0.6358  0.1562 -0.0796
12778TIP3    H159749   5.707   4.909  14.355  0.0691  1.5381  0.8656
12778TIP3    H259750   5.557   4.925  14.343  0.2059  1.7213 -0.7787
12779TIP3   OH259751   3.568   6.417  16.045 -0.3546  0.4044 -0.0728
12779TIP3    H159752   3.504   6.373  16.100 -1.5038 -0.8473 -2.2778
12779TIP3    H259753   3.618   6.472  16.105 -0.7024 -1.7819  2.3770
12780TIP3   OH259754   2.577   2.079  14.553  0.1648 -0.4340 -0.0201
12780TIP3    H159755   2.646   2.027  14.595  1.3296 -1.2639 -2.7295
12780TIP3    H259756   2.568   2.156  14.609  0.4645 -2.1349  2.5369
12781TIP3   OH259757   4.555   1.602  16.081 -0.1261  0.0985 -0.0567
12781TIP3    H159758   4.460   1.599  16.090 -0.0507  0.0352  0.7660
12781TIP3    H259759   4.589   1.572  16.165  0.6277  2.1268  0.4371
12782TIP3   OH259760   0.083   3.119  16.955  0.3708  0.5726  0.3992
12782TIP3    H159761   0.085   3.143  16.862  0.3686 -2.3473 -0.4841
12782TIP3    H259762   0.170   3.083  16.972 -0.6732 -2.2563  0.3929
12783TIP3   OH259763   2.065   6.011   3.078 -0.2467 -0.3014  0.0295
12783TIP3    H159764   2.126   5.957   3.029 -1.6938  0.6463 -3.0802
12783TIP3    H259765   2.100   6.100   3.070 -0.8945 -0.0372  0.0717
12784TIP3   OH259766   4.964   0.263  12.081 -0.2916 -0.0732 -0.5364
12784TIP3    H159767   4.961   0.307  12.166 -0.3164 -0.8122 -0.1517
12784TIP3    H259768   5.056   0.240  12.069 -0.1887  0.5155 -0.9758
12785TIP3   OH259769   2.812   4.901  16.798 -0.1264 -0.0512 -0.1598
12785TIP3    H159770   2.894   4.949  16.790 -0.2325  0.0129 -1.0244
12785TIP3    H259771   2.765   4.944  16.869  0.5796 -0.0890  0.3411
12786TIP3   OH259772   2.511   4.211   2.592 -0.6887 -0.3038 -0.7112
12786TIP3    H159773   2.600   4.178   2.576 -0.0437  1.5269 -1.1226
12786TIP3    H259774   2.486   4.253   2.510 -0.8736  1.4580  0.1988
12787TIP3   OH259775   5.071   1.607   0.546  0.6771 -0.1522  0.3365
12787TIP3    H159776   5.104   1.539   0.605  0.4897  0.9479  1.7459
12787TIP3    H259777   5.144   1.623   0.486  0.5310 -1.9677 -0.4080
12788TIP3   OH259778   3.784   0.605   3.285 -0.1285  0.1398  0.2599
12788TIP3    H159779   3.720   0.540   3.314  1.2724 -0.7887  1.4441
12788TIP3    H259780   3.864   0.583   3.333  0.7591  1.9800 -0.2622
12789TIP3   OH259781   4.704   1.288   2.494  0.4498  0.2997  0.2658
12789TIP3    H159782   4.733   1.236   2.419 -2.1932 -2.1606  0.7579
12789TIP3    H259783   4.617   1.320   2.469  0.4725  1.3862  1.4414
12790TIP3   OH259784   4.598   0.164   2.584 -0.0862  0.4400 -0.3769
12790TIP3    H159785   4.600   0.151   2.678 -0.6338  0.7801 -0.3166
12790TIP3    H259786   4.617   0.257   2.571  2.0542  0.0137 -0.7215
12791TIP3   OH259787   6.386   2.706  15.575  0.1043  0.0596 -0.0646
12791TIP3    H159788   6.410   2.757  15.497 -0.5772 -1.0959 -1.0578
12791TIP3    H259789   6.455   2.640  15.583 -0.4238 -0.5390 -0.3724
12792TIP3   OH259790   1.115   1.843  12.413 -0.6252 -0.5152  0.2910
12792TIP3    H159791   1.097   1.938  12.410 -0.4727 -0.4845  0.3785
12792TIP3    H259792   1.147   1.823  12.325 -0.5398 -0.4634  0.3104
12793TIP3   OH259793   1.826   5.177   1.454 -0.0546 -0.3812 -0.8311
12793TIP3    H159794   1.759   5.109   1.459 -0.3736 -0.0404 -0.2916
12793TIP3    H259795   1.799   5.232   1.381  0.1537 -0.7768 -1.2097
12794TIP3   OH259796   6.519   0.476  17.181  0.2278  0.0468 -0.4253
12794TIP3    H159797   6.458   0.500  17.110  1.9770  1.3790 -1.5688
12794TIP3    H259798   6.537   0.383  17.167 -2.7173 -0.8617  0.9469
12795TIP3   OH259799   0.494   4.774  11.228  0.7389 -0.1314 -0.3286
12795TIP3    H159800   0.589   4.772  11.211  1.1749  0.7179  1.6694
12795TIP3    H259801   0.461   4.844  11.171  1.3088 -0.3845 -0.9896
12796TIP3   OH259802   1.593   5.831  13.941  0.4823 -0.2760 -0.3216
12796TIP3    H159803   1.685   5.820  13.916  1.3789  0.5584  2.2525
12796TIP3    H259804   1.556   5.886  13.872  1.6926 -1.2642 -1.8159
12797TIP3   OH259805   6.111   0.023  12.297  0.1934 -0.0371  1.0348
12797TIP3    H159806   6.099  -0.003  12.205 -0.0054  1.0572  0.7388
12797TIP3    H259807   6.042  -0.023  12.344 -1.0138  0.9788  0.3160
12798TIP3   OH259808   4.133   3.794  12.262  0.6425 -0.3283 -0.1755
12798TIP3    H159809   4.045   3.829  12.254  0.3366 -1.1883 -0.6661
12798TIP3    H259810   4.121   3.702  12.287  1.4021 -0.4224 -0.1085
12799TIP3   OH259811   2.675   2.877  14.435  0.0751  0.0963  0.0673
12799TIP3    H159812   2.708   2.823  14.507  1.3987 -1.8295 -1.8400
12799TIP3    H259813   2.580   2.874  14.444  0.1290 -2.0524  0.4399
12800TIP3   OH259814   4.923   6.673  15.668  0.9792 -0.0460  0.1865
12800TIP3    H159815   4.918   6.745  15.605  0.4944  1.0399  1.4453
12800TIP3    H259816   4.833   6.657  15.695  1.4209  1.9842  3.2974
12801TIP3   OH259817   3.555   5.895  14.465  0.3666 -0.0098  0.3347
12801TIP3    H159818   3.584   5.823  14.410  0.9880  0.9466 -0.6327
12801TIP3    H259819   3.553   5.971  14.406 -0.1748  0.7864  1.3454
12802TIP3   OH259820   1.535   4.688   3.912 -0.5547  0.1657  0.0567
12802TIP3    H159821   1.544   4.645   3.827  2.5438  0.8457 -0.1049
12802TIP3    H259822   1.571   4.776   3.897 -3.7114  1.7882  1.1514
12803TIP3   OH259823   2.357   2.556   3.525  0.1778  0.6637  0.7147
12803TIP3    H159824   2.353   2.643   3.486  0.9045  0.6641  0.6293
12803TIP3    H259825   2.365   2.573   3.619 -1.3519  0.6647  0.8624
12804TIP3   OH259826   6.160   4.538  13.009 -0.4313 -0.1071 -0.3218
12804TIP3    H159827   6.077   4.584  13.023  0.5156  1.4920  0.4318
12804TIP3    H259828   6.138   4.445  13.020 -1.9453  0.3270  0.7900
12805TIP3   OH259829   5.996   6.386   4.704  0.4605 -0.2965  0.1001
12805TIP3    H159830   6.038   6.384   4.618 -0.1187 -0.6657 -0.1835
12805TIP3    H259831   5.938   6.309   4.704 -0.3563  0.3054  0.4052
12806TIP3   OH259832   2.759   5.029   5.714  0.4778  0.4737 -0.4747
12806TIP3    H159833   2.797   4.990   5.793 -0.9006  2.0020  1.0104
12806TIP3    H259834   2.834   5.070   5.671  1.1309  0.3032  0.4525
12807TIP3   OH259835   3.945   0.481   5.425  0.4196  0.5784  0.1226
12807TIP3    H159836   3.980   0.446   5.343 -1.0144 -0.6785 -0.0026
12807TIP3    H259837   3.962   0.413   5.490 -2.4298 -0.5061 -0.1236
12808TIP3   OH259838   4.553   6.532   0.272  1.0820 -0.5098 -0.0289
12808TIP3    H159839   4.486   6.592   0.305  1.2237  1.3095 -2.6716
12808TIP3    H259840   4.609   6.513   0.347 -0.0563  1.2053  1.3222
12809TIP3   OH259841   4.064   3.988  13.988  0.2156  0.6990 -0.3434
12809TIP3    H159842   4.070   3.895  13.966 -0.9904  0.5480 -0.1375
12809TIP3    H259843   4.150   4.024  13.967  0.5785 -0.3873 -0.7773
12810TIP3   OH259844   3.287   2.913   3.665  0.6161  0.7261 -0.8563
12810TIP3    H159845   3.315   2.824   3.644 -0.1761  0.5737 -1.2902
12810TIP3    H259846   3.268   2.953   3.581 -0.0462  0.9627 -0.5955
12811TIP3   OH259847   4.638   3.230  15.998 -0.0216  0.2582 -0.3992
12811TIP3    H159848   4.593   3.248  15.916 -0.9003  0.9126  0.2065
12811TIP3    H259849   4.730   3.223  15.974 -0.2332  0.7451 -1.3951
12812TIP3   OH259850   4.231   0.420   5.709  0.0668  0.4767 -0.1891
12812TIP3    H159851   4.195   0.454   5.790  0.7739  1.8467 -0.4212
12812TIP3    H259852   4.195   0.332   5.702 -2.4591  1.4045  0.0634
12813TIP3   OH259853   6.556   2.771  13.756  0.1608  0.3042  0.3592
12813TIP3    H159854   6.513   2.695  13.719 -1.8482  0.7853  1.5825
12813TIP3    H259855   6.543   2.841  13.692  2.5248 -0.4174 -1.0517
12814TIP3   OH259856   6.727   2.909  16.785  0.1040  0.4461  0.5412
12814TIP3    H159857   6.803   2.959  16.756  0.4355 -0.3606 -0.0130
12814TIP3    H259858   6.665   2.914  16.712 -0.3394  1.0051  0.9456
12815TIP3   OH259859   4.350   3.283   4.151  0.6202 -0.2513 -0.0285
12815TIP3    H159860   4.279   3.326   4.102  0.0738 -0.3638  0.6389
12815TIP3    H259861   4.425   3.287   4.092  0.5033  1.3151 -0.1299
12816TIP3   OH259862   0.783   1.344   2.965  0.8094  0.3478  1.2882
12816TIP3    H159863   0.726   1.307   2.897  0.8738 -1.4134  2.1414
12816TIP3    H259864   0.871   1.334   2.930  0.7160  1.7563  0.5854
12817TIP3   OH259865   3.578   3.071  12.940  0.0190  0.1406 -0.5793
12817TIP3    H159866   3.622   3.029  13.013  1.3205  2.6173  0.1999
12817TIP3    H259867   3.564   3.001  12.876  1.3246 -1.5575  0.8951
12818TIP3   OH259868   5.878   5.515   1.737  0.6473  0.2132  0.3391
12818TIP3    H159869   5.789   5.480   1.733 -0.5534  2.8998  0.8881
12818TIP3    H259870   5.913   5.481   1.819  0.9983 -2.5775 -0.8789
12819TIP3   OH259871   0.917   0.521  13.629 -0.1244  0.4461 -0.3097
12819TIP3    H159872   0.851   0.477  13.682 -0.0205 -0.9400 -1.2846
12819TIP3    H259873   0.884   0.514  13.539  0.3789  1.5234 -0.5954
12820TIP3   OH259874   0.178   4.764  16.950  0.6889  0.0663  0.0647
12820TIP3    H159875   0.103   4.748  16.892  1.4817 -0.2213 -0.8874
12820TIP3    H259876   0.221   4.841  16.913  0.6796  0.4480  0.8203
12821TIP3   OH259877   5.913   2.618   3.743 -0.3266  0.3152  0.0045
12821TIP3    H159878   5.871   2.545   3.698 -0.4661  0.0087  0.6076
12821TIP3    H259879   6.004   2.589   3.757 -0.2842  0.4076 -0.0751
12822TIP3   OH259880   1.969   4.949  16.660  0.0203  0.1484 -1.0787
12822TIP3    H159881   1.997   4.971  16.571 -0.5123 -1.6116 -1.7403
12822TIP3    H259882   1.923   4.865  16.650 -1.1385  0.5279  0.6829
12823TIP3   OH259883   0.139   4.104   3.080 -0.0030  0.0455  0.4231
12823TIP3    H159884   0.173   4.015   3.075  1.0705  0.4993 -0.6542
12823TIP3    H259885   0.118   4.127   2.990 -1.1235  0.5806  0.8006
12824TIP3   OH259886   0.846   0.051  15.437  0.0696  0.2020 -0.1526
12824TIP3    H159887   0.920   0.041  15.378 -0.2164 -2.3004 -0.1811
12824TIP3    H259888   0.769   0.040  15.380 -0.2113 -1.9428  0.5743
12825TIP3   OH259889   3.557   4.405   3.979  0.6563 -0.3485 -0.3589
12825TIP3    H159890   3.629   4.343   3.965  0.2569 -0.9673  0.2900
12825TIP3    H259891   3.519   4.418   3.892  1.6159  0.0805 -0.7302
12826TIP3   OH259892   4.827   0.158  11.749  0.4432  0.3966 -0.2271
12826TIP3    H159893   4.764   0.106  11.698  1.1430 -0.9172  0.2141
12826TIP3    H259894   4.776   0.232  11.781 -0.5484  0.0680 -0.9939
12827TIP3   OH259895   5.246   3.795   6.652 -0.5911 -0.4045 -0.0710
12827TIP3    H159896   5.326   3.814   6.603 -0.0910 -1.9849  0.0744
12827TIP3    H259897   5.276   3.743   6.727 -1.6613 -0.2912  0.4538
12828TIP3   OH259898   3.321   5.189  12.224 -0.3576  0.2384  0.2988
12828TIP3    H159899   3.276   5.248  12.164 -0.3420 -1.7558 -1.7932
12828TIP3    H259900   3.252   5.152  12.278 -0.4109  1.7752  1.3705
12829TIP3   OH259901   4.832   0.705   3.400  0.0379  0.3594 -0.4847
12829TIP3    H159902   4.926   0.721   3.391 -0.0316  1.3765  0.3839
12829TIP3    H259903   4.791   0.775   3.349 -0.2436  0.4882 -0.0864
12830TIP3   OH259904   1.604   2.138   3.809  0.2252  0.7046  0.1148
12830TIP3    H159905   1.662   2.093   3.870 -0.3620  0.0983  0.2306
12830TIP3    H259906   1.643   2.123   3.723  0.4475  0.6233  0.2302
12831TIP3   OH259907   6.594   5.400   4.154 -0.2531  0.1966 -0.0052
12831TIP3    H159908   6.533   5.421   4.083 -3.2067 -2.2101  1.5838
12831TIP3    H259909   6.565   5.455   4.227  0.5876  0.2227  0.3148
12832TIP3   OH259910   0.735   2.088   2.130 -0.1190  0.6013  0.5818
12832TIP3    H159911   0.815   2.045   2.159  0.1355  1.1269  0.6811
12832TIP3    H259912   0.730   2.069   2.036 -0.4131 -0.2675  0.7710
12833TIP3   OH259913   2.789   0.872   0.252 -0.4615  0.0856 -0.0569
12833TIP3    H159914   2.693   0.871   0.251 -0.4698  0.7610 -0.0177
12833TIP3    H259915   2.813   0.785   0.285 -1.0860  0.4844  1.5252
12834TIP3   OH259916   2.775   1.521   4.504  0.3006  0.7941 -0.2839
12834TIP3    H159917   2.835   1.560   4.441  0.7499 -0.3101 -0.5643
12834TIP3    H259918   2.737   1.596   4.551  0.7101  1.5794 -1.1718
12835TIP3   OH259919   4.986   1.888  11.747  0.8253 -0.3387 -0.4057
12835TIP3    H159920   4.936   1.848  11.676  1.7296 -3.3755  0.5259
12835TIP3    H259921   5.051   1.943  11.702 -1.0526  0.9505 -1.7090
12836TIP3   OH259922   5.659   0.520   0.003  0.2847 -0.0209 -0.8195
12836TIP3    H159923   5.671   0.432   0.040 -0.6535 -0.1790 -0.8791
12836TIP3    H259924   5.565   0.535   0.005  0.3608  0.6587 -1.5702
12837TIP3   OH259925   1.475   4.251  12.261 -0.2312  0.6332 -0.8069
12837TIP3    H159926   1.465   4.196  12.183  1.4908 -1.7515  0.5270
12837TIP3    H259927   1.562   4.290  12.252  0.0282  0.2537 -0.0870
12838TIP3   OH259928   2.218   6.289   1.258 -0.0598 -0.0615  0.0745
12838TIP3    H159929   2.304   6.321   1.286  0.3340 -0.6853 -0.4137
12838TIP3    H259930   2.236   6.223   1.192 -0.9583  0.7252 -1.0037
12839TIP3   OH259931   1.293   2.281   3.423 -0.9736 -0.0598  0.4916
12839TIP3    H159932   1.236   2.217   3.380 -0.6582 -0.7655  1.1096
12839TIP3    H259933   1.368   2.288   3.365 -0.9401 -0.3626  0.4958
12840TIP3   OH259934   1.875   6.047  13.207 -0.1310 -0.4521 -0.5970
12840TIP3    H159935   1.859   5.982  13.275 -0.5339  0.4882  0.2201
12840TIP3    H259936   1.837   6.128  13.241  1.2337  0.4571 -1.1572
12841TIP3   OH259937   0.136   0.324  16.130  0.1393  0.1681  0.1714
12841TIP3    H159938   0.198   0.372  16.185 -0.2133  0.9118 -0.0680
12841TIP3    H259939   0.077   0.391  16.095  1.9779  0.2117 -3.3654
12842TIP3   OH259940   2.027   4.309  10.623  0.4531 -0.1620  0.2601
12842TIP3    H159941   2.100   4.255  10.654 -0.2885 -0.2673  1.9500
12842TIP3    H259942   1.999   4.268  10.542  1.6674 -0.6616  0.0703
12843TIP3   OH259943   0.275   5.735   2.196 -0.6483  0.1053 -0.3738
12843TIP3    H159944   0.251   5.813   2.146  0.2625  0.4350 -0.3020
12843TIP3    H259945   0.328   5.767   2.268  2.1565 -0.7865 -1.8962
12844TIP3   OH259946   3.040   5.151   4.572  0.4486 -0.0315  0.3450
12844TIP3    H159947   2.973   5.129   4.637  1.2852 -1.3590  0.8021
12844TIP3    H259948   3.123   5.131   4.615  1.1944  1.8582 -0.1036
12845TIP3   OH259949   0.557   1.330   1.270 -0.7671  0.0461  0.1866
12845TIP3    H159950   0.498   1.288   1.332  1.0469 -2.0259  0.6432
12845TIP3    H259951   0.534   1.292   1.186 -1.9259  1.3964 -0.1438
12846TIP3   OH259952   3.303   3.571  11.218 -0.2415  0.6423 -0.8652
12846TIP3    H159953   3.327   3.482  11.193  0.5510 -0.0109  1.8050
12846TIP3    H259954   3.377   3.602  11.272 -1.1562  2.3355 -0.4828
12847TIP3   OH259955   4.303   2.478   4.441 -0.2283 -0.0897  0.2908
12847TIP3    H159956   4.296   2.400   4.386 -1.5443  0.0526  0.2165
12847TIP3    H259957   4.361   2.452   4.512 -0.3262 -1.0120  0.0492
12848TIP3   OH259958   2.256   4.360  14.640 -0.0382 -0.0736 -0.1287
12848TIP3    H159959   2.177   4.310  14.618  0.2268 -0.4778 -0.1883
12848TIP3    H259960   2.306   4.301  14.697 -0.5105  0.7876  1.2165
12849TIP3   OH259961   5.727   3.779   2.263 -0.2767 -0.3180 -0.5342
12849TIP3    H159962   5.682   3.742   2.186 -1.1094 -0.2810 -0.0763
12849TIP3    H259963   5.660   3.780   2.331 -0.1888  1.7209 -0.4210
12850TIP3   OH259964   2.499   0.650   1.205 -0.3673 -0.0803 -0.8844
12850TIP3    H159965   2.549   0.657   1.125 -0.0298  2.5361 -0.5384
12850TIP3    H259966   2.413   0.687   1.183 -0.6427 -0.3626 -0.3187
12851TIP3   OH259967   1.875   1.914   5.359  0.3650 -0.1821  0.2363
12851TIP3    H159968   1.930   1.906   5.281  0.3406 -0.9719  0.2886
12851TIP3    H259969   1.835   1.827   5.368 -0.7110  0.3165  0.3278
12852TIP3   OH259970   0.888   4.464  12.051 -0.2925  0.4739  0.1745
12852TIP3    H159971   0.813   4.431  12.099  0.1630 -0.8072  0.0324
12852TIP3    H259972   0.895   4.556  12.077 -0.8835  0.1676  1.4831
12853TIP3   OH259973   4.925   5.209  11.473 -0.2455 -0.2842  0.4650
12853TIP3    H159974   4.968   5.247  11.550  1.8022  2.4265 -1.8111
12853TIP3    H259975   4.870   5.280  11.439  0.3606 -0.7305 -1.5770
12854TIP3   OH259976   6.338   4.561  16.128 -0.0717 -0.0515 -0.4303
12854TIP3    H159977   6.392   4.598  16.197  1.4977 -1.1182 -1.0188
12854TIP3    H259978   6.334   4.629  16.061 -0.8312  0.6352  0.2938
12855TIP3   OH259979   1.116   6.050   2.174 -0.0881  0.0274 -0.3502
12855TIP3    H159980   1.029   6.045   2.136 -0.1900 -0.1182 -0.0968
12855TIP3    H259981   1.140   6.142   2.167 -0.9020  0.3693  1.0021
12856TIP3   OH259982   4.978   2.230   4.961 -0.2160 -0.0281 -1.0048
12856TIP3    H159983   5.003   2.261   4.874  1.7148  1.0263 -0.1329
12856TIP3    H259984   4.918   2.297   4.994  0.9550  0.8697 -0.6217
12857TIP3   OH259985   2.639   4.798   5.683  0.1495  0.1884  0.4510
12857TIP3    H159986   2.697   4.762   5.751 -0.6970  0.8159  1.5407
12857TIP3    H259987   2.669   4.888   5.672 -0.6585  0.5577  1.1135
12858TIP3   OH259988   1.854   5.897   0.120 -0.5257 -0.2904  0.1049
12858TIP3    H159989   1.893   5.866   0.038  0.2321  0.5534  0.1419
12858TIP3    H259990   1.781   5.952   0.092 -0.7060 -0.5722  0.0138
12859TIP3   OH259991   1.965   3.427  14.335  0.0099  0.0595  0.1789
12859TIP3    H159992   1.919   3.348  14.305  3.0287 -0.9341 -2.3758
12859TIP3    H259993   1.907   3.499  14.310 -1.5343 -1.2123 -0.0797
12860TIP3   OH259994   5.656   2.951   1.726 -0.0427  0.6948 -0.2221
12860TIP3    H159995   5.642   2.977   1.817 -0.9152  0.3764 -0.2523
12860TIP3    H259996   5.661   2.855   1.728 -1.9395  0.5489 -0.7158
12861TIP3   OH259997   1.564   2.454  16.202  0.2537 -0.1274  0.0417
12861TIP3    H159998   1.480   2.408  16.210  0.5255 -0.4901  0.8254
12861TIP3    H259999   1.629   2.385  16.193  0.3766  0.1608 -1.8348
12862TIP3   OH260000   4.412   4.586   2.756 -0.2836 -0.2631  0.2247
12862TIP3    H160001   4.318   4.601   2.742 -0.1850  0.6091  0.4338
12862TIP3    H260002   4.455   4.663   2.717  0.5721 -1.9942 -2.5405
12863TIP3   OH260003   6.765   1.653  10.950  0.1732 -0.3611  0.8986
12863TIP3    H160004   6.712   1.680  11.025 -1.0644  0.6329 -0.2767
12863TIP3    H260005   6.703   1.649  10.877  1.8258  1.8218 -0.7736
12864TIP3   OH260006   6.373   1.907  15.236 -1.0469 -0.4641  0.0168
12864TIP3    H160007   6.389   1.906  15.141  0.7738 -2.1630  0.2836
12864TIP3    H260008   6.329   1.824  15.253 -3.6592  0.8899  0.3966
12865TIP3   OH260009   1.524   5.179   5.753 -0.0514 -0.3603  0.2282
12865TIP3    H160010   1.525   5.268   5.788 -1.2986 -0.5475  0.7747
12865TIP3    H260011   1.608   5.171   5.707  0.2385  0.9643  0.4785
12866TIP3   OH260012   5.720   4.476  14.510  0.4451  0.6361 -0.0907
12866TIP3    H160013   5.727   4.441  14.599  0.4123 -0.1949 -0.4114
12866TIP3    H260014   5.782   4.425  14.459 -0.0296  0.6480 -0.6891
12867TIP3   OH260015   2.082   1.112  16.364 -0.1964  0.6168  0.2751
12867TIP3    H160016   2.142   1.038  16.376 -1.0933  0.0147  1.2919
12867TIP3    H260017   2.113   1.155  16.285  1.7055  0.4567  0.8670
12868TIP3   OH260018   2.975   2.710  11.543 -0.4457 -0.5221  0.0468
12868TIP3    H160019   3.007   2.658  11.616  0.4840 -0.2336 -0.1372
12868TIP3    H260020   2.973   2.800  11.577 -2.4979 -0.6931  0.5180
12869TIP3   OH260021   0.697   5.455  12.927 -0.4815 -0.1564  0.9368
12869TIP3    H160022   0.602   5.447  12.936 -0.6785  0.8755  0.0341
12869TIP3    H260023   0.722   5.377  12.878 -1.4181  1.2133 -1.9649
12870TIP3   OH260024   3.419   3.947  11.815  0.5352  0.0577 -0.7793
12870TIP3    H160025   3.435   3.856  11.794  0.4569 -0.3370  0.7122
12870TIP3    H260026   3.334   3.946  11.861  1.4793  0.5424  1.0875
12871TIP3   OH260027   0.463   0.751  16.313 -0.0496 -0.0189  0.5446
12871TIP3    H160028   0.492   0.663  16.289  1.3216  0.8404 -1.1588
12871TIP3    H260029   0.495   0.763  16.403 -1.2979 -1.6608  1.2451
12872TIP3   OH260030   6.713   5.609  17.171  0.0091 -0.1759 -0.1851
12872TIP3    H160031   6.692   5.553  17.246  1.2820 -0.3599  0.0456
12872TIP3    H260032   6.742   5.691  17.211 -1.9759  0.7517 -0.5188
12873TIP3   OH260033   5.466   6.529  16.433  0.5895  0.8139  0.0566
12873TIP3    H160034   5.435   6.462  16.373 -0.3098  0.3610  0.9929
12873TIP3    H260035   5.482   6.605  16.378 -2.0225  1.0250 -0.5304
12874TIP3   OH260036   3.890   0.565   3.972  0.8584  0.3746  0.7350
12874TIP3    H160037   3.812   0.610   4.002 -0.7574 -0.8453 -1.3240
12874TIP3    H260038   3.913   0.505   4.043  1.4324  2.4402  2.3634
12875TIP3   OH260039   5.916   0.588  13.734  0.2567 -0.1633  0.7591
12875TIP3    H160040   5.838   0.599  13.680  1.1426  1.2137 -0.3068
12875TIP3    H260041   5.883   0.555  13.818 -1.4553  0.3754  0.3326
12876TIP3   OH260042   0.623   4.186   0.243 -0.4287  0.1439  0.1192
12876TIP3    H160043   0.642   4.094   0.227  0.1854  0.2209  0.3929
12876TIP3    H260044   0.529   4.195   0.226 -0.6976 -0.7402  1.0547
12877TIP3   OH260045   6.378   2.096   4.324  0.0882  0.1308 -0.1104
12877TIP3    H160046   6.352   2.024   4.382  0.0758 -0.7309 -1.1663
12877TIP3    H260047   6.295   2.128   4.288  0.2595 -2.0460 -2.7982
12878TIP3   OH260048   1.875   2.450   5.180 -0.1679  0.9510 -0.0811
12878TIP3    H160049   1.912   2.510   5.115 -0.5626 -0.4745 -1.6801
12878TIP3    H260050   1.951   2.411   5.223  0.1451  0.6031 -0.9338
12879TIP3   OH260051   1.818   3.460  14.721 -0.0591 -0.5870 -0.0326
12879TIP3    H160052   1.828   3.522  14.648 -0.0710  0.5479  0.8874
12879TIP3    H260053   1.885   3.393  14.705 -0.7730 -0.9503 -1.6334
12880TIP3   OH260054   2.270   6.394  14.589 -0.9984  0.3544  0.0707
12880TIP3    H160055   2.351   6.343  14.590 -1.0870  0.2100  0.0239
12880TIP3    H260056   2.296   6.482  14.613 -0.8670  0.2519  0.3073
12881TIP3   OH260057   3.305   1.686  14.793  0.0912  0.1848 -0.3211
12881TIP3    H160058   3.358   1.694  14.872 -0.5965  2.8116 -0.0260
12881TIP3    H260059   3.243   1.615  14.812  1.7437 -1.1392  0.3370
12882TIP3   OH260060   4.514   1.363  13.456  0.6584 -0.3130 -0.2206
12882TIP3    H160061   4.571   1.381  13.381 -0.4384 -0.4361 -1.1031
12882TIP3    H260062   4.439   1.317  13.419  0.4686 -1.1015  1.0870
12883TIP3   OH260063   4.893   0.913  12.431  0.0582  1.0221  0.2681
12883TIP3    H160064   4.823   0.881  12.374  1.9038 -0.3074 -1.3652
12883TIP3    H260065   4.946   0.970  12.375  1.1166  0.8269  1.0463
12884TIP3   OH260066   6.143   0.770   4.317 -0.2760 -0.0812 -0.0003
12884TIP3    H160067   6.186   0.684   4.324 -0.3665 -0.0149  1.7009
12884TIP3    H260068   6.051   0.752   4.335 -0.1650  0.4784  1.1724
12885TIP3   OH260069   5.302   2.090  11.804  0.3110 -0.0203 -0.0734
12885TIP3    H160070   5.280   2.085  11.897 -0.1393  1.2422 -0.0879
12885TIP3    H260071   5.391   2.054  11.797 -0.6496 -2.6821  0.4046
12886TIP3   OH260072   4.999   4.506  15.781  0.2990 -0.0655  0.1709
12886TIP3    H160073   4.919   4.557  15.772 -0.5397 -1.3836 -0.2231
12886TIP3    H260074   4.991   4.463  15.866  0.4511 -0.4092  0.0155
12887TIP3   OH260075   1.510   3.315   2.985  0.9278  0.2683  0.1329
12887TIP3    H160076   1.600   3.346   2.994  0.7210  1.7248 -2.0169
12887TIP3    H260077   1.457   3.391   3.008  0.1756 -0.7581  1.9959
12888TIP3   OH260078   5.532   1.697   0.910  0.5028  0.3072 -0.4670
12888TIP3    H160079   5.584   1.621   0.886  1.5111  0.8118  0.0283
12888TIP3    H260080   5.531   1.696   1.006  0.5657  0.9233 -0.4531
12889TIP3   OH260081   3.959   3.702  15.362 -0.3066  0.4731 -0.2273
12889TIP3    H160082   3.975   3.651  15.283 -0.8389  0.4833 -0.3453
12889TIP3    H260083   3.864   3.712  15.365 -0.2724  0.6688  0.2896
12890TIP3   OH260084   1.019   0.715   4.223  0.1176 -0.2934  0.1251
12890TIP3    H160085   1.025   0.635   4.276 -0.6193  0.0704  0.7851
12890TIP3    H260086   1.109   0.744   4.212  0.2520  0.1582  2.0350
12891TIP3   OH260087   1.357   2.316  16.771  0.2793 -0.2003 -0.4153
12891TIP3    H160088   1.402   2.312  16.687  1.3208  0.7512  0.0752
12891TIP3    H260089   1.390   2.396  16.812 -0.3386 -0.5642  0.8360
12892TIP3   OH260090   1.470   0.010  12.623 -0.1737  0.1207  0.2078
12892TIP3    H160091   1.450  -0.084  12.626 -1.1282  0.3302  1.4753
12892TIP3    H260092   1.410   0.045  12.558  1.3131 -0.3546 -1.4993
12893TIP3   OH260093   4.212   2.481  14.372 -0.1203 -0.5296  0.1825
12893TIP3    H160094   4.183   2.549  14.312  1.0126  1.0280  1.3066
12893TIP3    H260095   4.195   2.399  14.326 -0.5896  0.5359 -1.6490
12894TIP3   OH260096   3.885   6.469  14.900 -0.3445 -0.3404  0.4360
12894TIP3    H160097   3.890   6.426  14.814  1.1277  0.8400 -0.1247
12894TIP3    H260098   3.976   6.474  14.930 -0.7550  0.0150  1.6882
12895TIP3   OH260099   1.198   4.181   4.331 -0.4177  0.1348  0.0477
12895TIP3    H160100   1.126   4.151   4.386 -0.9849 -0.2377 -0.8638
12895TIP3    H260101   1.158   4.249   4.275 -0.0356  0.0224 -0.3666
12896TIP3   OH260102   1.735   2.260  16.135  0.3664  0.7757 -0.1799
12896TIP3    H160103   1.671   2.206  16.088  1.4596 -2.1197  1.3606
12896TIP3    H260104   1.820   2.225  16.106  1.1502  1.9559  0.6154
12897TIP3   OH260105   1.907   0.610   0.481 -0.5923  0.3676 -0.2984
12897TIP3    H160106   1.935   0.700   0.497  1.2887  0.3421 -2.9742
12897TIP3    H260107   1.934   0.563   0.560 -1.5732  2.0422  1.1423
12898TIP3   OH260108   0.340   5.948  14.547  0.2615 -0.6736  0.7835
12898TIP3    H160109   0.326   5.911  14.634  1.5681  0.9780  1.7642
12898TIP3    H260110   0.435   5.952  14.538  0.1435  0.0771 -0.3277
12899TIP3   OH260111   3.130   4.239  15.058  0.1784 -0.0653 -0.2491
12899TIP3    H160112   3.097   4.303  15.122 -2.7196 -1.5072 -0.1355
12899TIP3    H260113   3.209   4.203  15.099 -1.3547 -0.6692  2.4601
12900TIP3   OH260114   5.533   1.333  15.842  0.1332 -0.2973 -0.4899
12900TIP3    H160115   5.545   1.306  15.933 -0.8799 -0.8501 -0.4986
12900TIP3    H260116   5.527   1.428  15.845  1.3642 -0.2178 -0.1448
12901TIP3   OH260117   3.089   2.001   4.820 -0.4569  0.2389  0.0246
12901TIP3    H160118   3.112   2.014   4.728  1.3585 -1.1653  0.2304
12901TIP3    H260119   3.167   2.028   4.868  0.2152 -2.9039  0.8867
12902TIP3   OH260120   6.162   2.085   0.807  0.5070 -0.2043  0.4115
12902TIP3    H160121   6.229   2.019   0.789  3.7760  2.6722  0.8267
12902TIP3    H260122   6.180   2.154   0.743 -2.1969  0.7092  0.5188
12903TIP3   OH260123   3.916   0.961   1.469  0.3726 -0.4991  0.3224
12903TIP3    H160124   3.871   1.011   1.402  1.3440 -0.3325 -0.2368
12903TIP3    H260125   3.848   0.932   1.530 -0.6847 -1.5055 -1.2791
12904TIP3   OH260126   2.621   6.078   5.491 -0.2815 -0.0840 -0.8578
12904TIP3    H160127   2.546   6.128   5.461  1.2619  0.5100 -4.0983
12904TIP3    H260128   2.610   6.074   5.586 -3.2813  1.7144 -0.9975
12905TIP3   OH260129   5.315   1.086   4.904  0.5759  0.1525 -0.2645
12905TIP3    H160130   5.388   1.148   4.909 -0.1551  0.9961  0.2095
12905TIP3    H260131   5.291   1.085   4.811  0.3364  0.9067 -0.2192
12906TIP3   OH260132   4.495   5.824   5.718 -0.2832  0.0999 -0.1590
12906TIP3    H160133   4.497   5.899   5.778  0.5568 -0.7596  0.9427
12906TIP3    H260134   4.564   5.842   5.654 -0.5396  0.5769 -0.3035
12907TIP3   OH260135   2.801   5.575  12.925  0.1803 -0.0002  0.0122
12907TIP3    H160136   2.894   5.562  12.908  0.2509  1.4142 -0.9024
12907TIP3    H260137   2.794   5.666  12.954 -1.0899  0.5213 -1.7081
12908TIP3   OH260138   5.168   3.502  13.834  0.3574  0.2475 -0.2224
12908TIP3    H160139   5.231   3.437  13.802  0.0917  0.1386 -0.5287
12908TIP3    H260140   5.180   3.577  13.775  1.1260  0.7414  0.5272
12909TIP3   OH260141   0.214   1.982   1.447  0.0167 -0.2621 -0.5749
12909TIP3    H160142   0.264   1.965   1.527  0.3896 -0.5856 -0.8738
12909TIP3    H260143   0.276   1.963   1.376  0.0419  1.0668 -0.9355
12910TIP3   OH260144   3.978   2.246  11.832  0.5043  0.3892  0.5626
12910TIP3    H160145   3.928   2.316  11.790  1.4280 -0.0380 -1.4074
12910TIP3    H260146   4.069   2.265  11.811  0.9123 -0.4935  1.4369
12911TIP3   OH260147   5.529   2.692  11.040 -0.5253 -0.7125 -0.4023
12911TIP3    H160148   5.619   2.688  11.007 -0.5519  0.2238 -0.6307
12911TIP3    H260149   5.507   2.602  11.061  0.9058 -0.8074  0.8421
12912TIP3   OH260150   6.025   5.546  15.423  0.0706  0.6122 -0.1648
12912TIP3    H160151   6.084   5.474  15.403 -1.8514 -0.6274 -1.7332
12912TIP3    H260152   5.937   5.510  15.411 -0.9918  3.0277 -0.3308
12913TIP3   OH260153   1.993   2.115   3.780 -0.6892 -0.4736  0.0232
12913TIP3    H160154   1.932   2.087   3.848  0.6046 -0.8784  1.0566
12913TIP3    H260155   2.078   2.118   3.824  0.1661 -0.6625 -1.5540
12914TIP3   OH260156   5.060   4.519   2.129  0.2084  0.4951 -0.6529
12914TIP3    H160157   5.062   4.488   2.039  1.3576 -0.9341 -0.1678
12914TIP3    H260158   5.141   4.568   2.139  1.3528 -1.5052  0.2951
12915TIP3   OH260159   2.049   5.869  11.370  0.1101  0.1381  0.1216
12915TIP3    H160160   2.083   5.941  11.422 -0.6097 -0.5208  1.5627
12915TIP3    H260161   2.107   5.865  11.294  2.1645  0.1710  1.5929
12916TIP3   OH260162   2.152   0.729  13.776  0.1032  0.1507 -0.0187
12916TIP3    H160163   2.147   0.673  13.854 -2.1038  0.6572  0.2786
12916TIP3    H260164   2.127   0.672  13.704  1.2079 -0.0719 -0.2455
12917TIP3   OH260165   6.542   2.145   4.113  0.2435  0.0691  0.8124
12917TIP3    H160166   6.621   2.172   4.160 -0.4305 -1.0221  2.6462
12917TIP3    H260167   6.484   2.111   4.180 -0.8816 -1.3268 -0.7874
12918TIP3   OH260168   2.912   5.566   2.213  0.1455  0.0840 -0.7690
12918TIP3    H160169   2.820   5.575   2.237  0.4917  1.9049  0.0453
12918TIP3    H260170   2.952   5.526   2.291  0.0740 -0.6357 -1.0937
12919TIP3   OH260171   4.869   4.068   6.242 -0.4009 -0.7974 -0.2497
12919TIP3    H160172   4.958   4.097   6.261 -0.2939 -0.4532 -1.2444
12919TIP3    H260173   4.833   4.042   6.327  0.5257 -0.6040  0.2042
12920TIP3   OH260174   1.460   5.272  14.152 -0.2469 -0.1543  0.4790
12920TIP3    H160175   1.528   5.306  14.095 -1.4607 -1.4202 -1.8449
12920TIP3    H260176   1.445   5.183  14.122 -1.0002 -0.8940  2.7821
12921TIP3   OH260177   1.929   2.398  11.465 -0.2949  0.5917  0.0036
12921TIP3    H160178   2.003   2.455  11.488 -1.2409  2.0587 -0.4212
12921TIP3    H260179   1.911   2.419  11.373  1.7141 -3.1977 -1.4945
12922TIP3   OH260180   0.506   2.795  12.137 -0.7437 -0.1532 -0.2997
12922TIP3    H160181   0.431   2.806  12.078 -0.8999  0.1247 -0.0572
12922TIP3    H260182   0.467   2.768  12.220 -0.5134 -0.6693 -0.3610
12923TIP3   OH260183   3.670   6.540   2.119 -0.1481 -0.3224  0.2718
12923TIP3    H160184   3.732   6.523   2.048 -1.1268 -0.0925 -0.6626
12923TIP3    H260185   3.634   6.454   2.141  2.6503 -0.9838  2.9464
12924TIP3   OH260186   2.444   6.255  13.483 -0.1409 -0.0841 -0.1292
12924TIP3    H160187   2.519   6.251  13.424  1.0388  3.1122  0.9068
12924TIP3    H260188   2.482   6.247  13.571 -0.7493  2.5898  0.4651
12925TIP3   OH260189   3.024   4.214   2.237 -0.2673  0.5855 -0.0894
12925TIP3    H160190   2.934   4.229   2.206  0.1494  1.7218 -0.8010
12925TIP3    H260191   3.079   4.245   2.166  0.7198  1.5778  1.0789
12926TIP3   OH260192   2.853   5.223  15.074 -0.1707 -0.4498 -0.0305
12926TIP3    H160193   2.767   5.187  15.097 -1.1582  1.3635 -0.7200
12926TIP3    H260194   2.834   5.290  15.008  2.0057 -1.7484 -2.1690
12927TIP3   OH260195   0.042   5.817   2.555  0.2643  0.8064 -0.4985
12927TIP3    H160196   0.036   5.855   2.467  2.8471 -1.0196 -1.5603
12927TIP3    H260197   0.068   5.890   2.611  0.6630  1.5644 -1.6401
12928TIP3   OH260198   1.841   2.742  14.908 -0.1967  0.5794 -0.1494
12928TIP3    H160199   1.746   2.745  14.923  0.1579  1.2744  2.4376
12928TIP3    H260200   1.872   2.828  14.934  1.2273  0.1664 -0.4078
12929TIP3   OH260201   5.990   2.406  11.242  0.1192  0.8480 -0.1023
12929TIP3    H160202   5.918   2.345  11.263 -0.8615  1.6013 -1.1478
12929TIP3    H260203   6.011   2.448  11.325 -1.7333  1.7284 -0.0311
12930TIP3   OH260204   6.046   0.834   0.900  0.6684  0.1491  0.2566
12930TIP3    H160205   5.982   0.847   0.970  0.7703  0.9612  0.2162
12930TIP3    H260206   6.065   0.923   0.869  1.4674 -0.1163 -0.0411
12931TIP3   OH260207   1.256   2.391   6.223 -0.3064 -0.4204  0.3605
12931TIP3    H160208   1.286   2.411   6.311  1.2617  0.7625 -0.3928
12931TIP3    H260209   1.217   2.472   6.191 -0.5207 -0.7227 -0.1615
12932TIP3   OH260210   4.919   4.341  12.859  0.0382  0.4195  0.3108
12932TIP3    H160211   4.861   4.389  12.917 -0.3575  0.0440  0.2328
12932TIP3    H260212   4.962   4.277  12.915  1.0172  1.2428  0.5321
12933TIP3   OH260213   2.325   4.708  14.917  0.4697  0.1575 -0.1498
12933TIP3    H160214   2.410   4.727  14.878  0.4040  1.2616  0.2372
12933TIP3    H260215   2.329   4.747  15.004  0.4741 -1.9447  0.8628
12934TIP3   OH260216   6.696   5.653  12.332  0.2183  0.4627  0.0693
12934TIP3    H160217   6.601   5.652  12.343  0.4315  1.2673  2.8584
12934TIP3    H260218   6.721   5.560  12.333 -0.5180  0.2502 -0.5935
12935TIP3   OH260219   5.080   5.928  11.193 -0.0775 -0.2272  0.0069
12935TIP3    H160220   5.004   5.983  11.177 -1.2723 -1.9192 -0.3965
12935TIP3    H260221   5.045   5.852  11.239  1.1332 -1.6297 -1.2923
12936TIP3   OH260222   1.193   4.442   6.758 -0.4102 -0.0382  0.0995
12936TIP3    H160223   1.100   4.453   6.778 -0.2467  1.1895  0.2923
12936TIP3    H260224   1.202   4.474   6.668 -0.3372 -1.1182 -0.2891
12937TIP3   OH260225   1.034   6.349  13.690 -0.1369 -0.5076  0.2704
12937TIP3    H160226   1.069   6.431  13.655  0.7621 -1.0896 -0.2307
12937TIP3    H260227   0.940   6.352  13.669 -0.0653  0.2745  0.0375
12938TIP3   OH260228   3.232   4.065  13.799  0.0992  0.6829 -0.0544
12938TIP3    H160229   3.288   4.082  13.724 -0.5939  0.6643 -0.5910
12938TIP3    H260230   3.195   4.151  13.821  0.5667  0.7494  0.4888
12939TIP3   OH260231   5.270   0.496   0.592  0.1158  0.2477 -0.1551
12939TIP3    H160232   5.351   0.547   0.596 -0.5598  1.3827 -0.6613
12939TIP3    H260233   5.201   0.557   0.618 -0.6492 -0.5738 -0.2057
12940TIP3   OH260234   1.306   0.266  17.068 -0.2395  0.8306  0.7069
12940TIP3    H160235   1.371   0.327  17.104 -1.3579  1.0262  2.5291
12940TIP3    H260236   1.358   0.193  17.035  1.1370  2.6105 -1.3702
12941TIP3   OH260237   1.737   0.014   2.312  0.2710  0.1036  0.1901
12941TIP3    H160238   1.725  -0.057   2.248  3.4002  0.5702 -1.1354
12941TIP3    H260239   1.777  -0.029   2.387  0.6929  0.2013  0.0252
12942TIP3   OH260240   2.558   4.330   1.896 -0.3234  0.0539 -0.2073
12942TIP3    H160241   2.523   4.414   1.924 -0.1109  0.9573 -2.4289
12942TIP3    H260242   2.482   4.273   1.889 -0.6102  0.3692  0.2526
12943TIP3   OH260243   1.107   2.633   2.305  0.0734  0.4562 -0.4166
12943TIP3    H160244   1.184   2.679   2.273  0.2818 -0.5487 -1.4104
12943TIP3    H260245   1.100   2.555   2.250 -0.9648 -0.0875  0.4363
12944TIP3   OH260246   1.390   4.110   2.439 -0.2643  0.2106 -0.3880
12944TIP3    H160247   1.368   4.077   2.352 -1.2912  1.8296 -0.7900
12944TIP3    H260248   1.431   4.195   2.423  2.4829 -0.8250  0.5947
12945TIP3   OH260249   4.298   3.865  13.615  0.3487  0.4039  0.3933
12945TIP3    H160250   4.373   3.808  13.600  0.3473  0.4987  0.0136
12945TIP3    H260251   4.333   3.954  13.604  0.4159  0.4951  1.2609
12946TIP3   OH260252   0.768   5.519   2.935 -0.4295 -0.2561 -0.4854
12946TIP3    H160253   0.827   5.443   2.931 -2.0624 -1.5125 -1.8606
12946TIP3    H260254   0.696   5.490   2.991 -1.8716 -0.3609 -2.3212
12947TIP3   OH260255   0.571   3.739  12.860 -0.1172  0.4531  0.0113
12947TIP3    H160256   0.633   3.667  12.874 -1.0320  0.0552  2.5804
12947TIP3    H260257   0.537   3.724  12.772  1.6787 -0.6786 -0.5400
12948TIP3   OH260258   2.309   1.347   2.495  0.0715 -0.1258 -0.2475
12948TIP3    H160259   2.214   1.356   2.503 -0.1062  0.6255 -2.4659
12948TIP3    H260260   2.335   1.420   2.439  1.9527 -0.4244  0.1765
12949TIP3   OH260261   1.761   5.822   5.286  0.1112 -0.6912 -0.1831
12949TIP3    H160262   1.776   5.802   5.194  0.9700  0.0496 -0.2241
12949TIP3    H260263   1.707   5.901   5.286  0.7623 -0.2348 -0.0721
12950TIP3   OH260264   6.164   6.194   1.793  0.3965 -0.0004  0.3611
12950TIP3    H160265   6.203   6.234   1.716 -0.9277  1.0932  0.2064
12950TIP3    H260266   6.237   6.154   1.840  1.6688  1.8272  0.0317
12951TIP3   OH260267   2.156   3.778   3.837 -0.0383 -0.2130  0.1860
12951TIP3    H160268   2.185   3.688   3.826 -2.0308 -0.8435 -0.2446
12951TIP3    H260269   2.114   3.801   3.755 -2.0509  0.1075  1.2452
12952TIP3   OH260270   2.711   5.044  14.756  0.2104 -0.0181  0.0965
12952TIP3    H160271   2.747   4.957  14.773  2.5359  0.6778 -0.7734
12952TIP3    H260272   2.674   5.038  14.668 -0.3572 -0.3300  0.3558
12953TIP3   OH260273   4.215   4.544   4.513  0.0154 -0.2969  0.0110
12953TIP3    H160274   4.168   4.624   4.490 -0.6277 -0.8702 -0.7094
12953TIP3    H260275   4.154   4.494   4.567  0.7006  0.0263  1.1355
12954TIP3   OH260276   5.785   5.918   5.715  0.1167  0.0230  0.7798
12954TIP3    H160277   5.739   5.922   5.799  3.0068  0.8785  2.4609
12954TIP3    H260278   5.769   6.003   5.675 -1.0590 -0.2911  0.5448
12955TIP3   OH260279   0.704   2.549  14.774  0.3112  0.4820 -0.3588
12955TIP3    H160280   0.696   2.557  14.869 -1.1401  0.0172 -0.4131
12955TIP3    H260281   0.793   2.517  14.760  0.4783  0.3655  0.8600
12956TIP3   OH260282   2.913   6.667   3.259  0.0750  0.1251  0.0328
12956TIP3    H160283   2.828   6.712   3.257  0.6249  1.1964 -0.7466
12956TIP3    H260284   2.977   6.738   3.252  1.0165 -0.7234 -0.1349
12957TIP3   OH260285   0.052   2.153  12.089 -0.8176  0.5728  0.4549
12957TIP3    H160286  -0.007   2.192  12.153 -0.9030 -0.2634  0.9022
12957TIP3    H260287   0.139   2.175  12.120 -0.8379  2.6421 -0.7221
12958TIP3   OH260288   1.958   2.876   2.693  0.0125 -0.2031 -0.2302
12958TIP3    H160289   1.987   2.789   2.720 -1.1175 -0.2723  0.8389
12958TIP3    H260290   1.943   2.869   2.599  2.0396 -0.5368 -0.5844
12959TIP3   OH260291   0.866   3.545  14.331  0.1670 -0.2566  0.1775
12959TIP3    H160292   0.915   3.579  14.256 -0.4195  0.5296  0.1415
12959TIP3    H260293   0.875   3.450  14.324 -1.3852 -0.3118 -1.9556
12960TIP3   OH260294   5.533   0.299   1.381  0.0079 -0.0329  0.5292
12960TIP3    H160295   5.465   0.278   1.318 -0.6385 -1.7480  1.7457
12960TIP3    H260296   5.533   0.226   1.443  2.3133  0.3704  1.1127
12961TIP3   OH260297   5.078   1.248   5.176 -0.0623 -0.2102 -0.5793
12961TIP3    H160298   5.067   1.293   5.092  1.0298  0.4040 -0.4119
12961TIP3    H260299   5.151   1.293   5.217  1.4631 -2.4954 -0.6388
12962TIP3   OH260300   0.171   5.984   1.014  0.5273  0.1545 -0.4084
12962TIP3    H160301   0.258   6.020   1.032 -0.2985  1.7683  0.6954
12962TIP3    H260302   0.157   5.920   1.084  0.3325  0.8597  0.2150
12963TIP3   OH260303   0.684   3.873   6.782  0.0539 -0.2075  0.2658
12963TIP3    H160304   0.766   3.921   6.778  0.0480 -0.1580  0.7588
12963TIP3    H260305   0.625   3.929   6.832  0.3803 -1.1891  1.8336
12964TIP3   OH260306   6.159   3.901  12.211  0.2038 -0.0076  0.4965
12964TIP3    H160307   6.117   3.905  12.297 -1.3120  3.2288 -0.2346
12964TIP3    H260308   6.134   3.816  12.176  1.1399 -1.5654  3.3010
12965TIP3   OH260309   2.492   2.323   0.467 -0.0227 -0.2498 -0.1434
12965TIP3    H160310   2.426   2.254   0.454  0.9038 -1.2811  0.4320
12965TIP3    H260311   2.547   2.319   0.389 -0.3722  0.3179 -0.4246
12966TIP3   OH260312   6.332   0.579   5.144  0.5578  0.4463  0.1443
12966TIP3    H160313   6.340   0.599   5.050  1.6516 -0.0757  0.1212
12966TIP3    H260314   6.287   0.495   5.147  0.1536  0.6568  0.1095
12967TIP3   OH260315   0.664   3.745   3.806  0.3647 -0.2754 -0.2033
12967TIP3    H160316   0.591   3.737   3.868  0.6763 -1.7266  0.0060
12967TIP3    H260317   0.742   3.725   3.858  0.7287 -0.5589 -0.8488
12968TIP3   OH260318   1.936   4.722  14.666  0.2802 -0.0192  0.0814
12968TIP3    H160319   1.996   4.787  14.701 -0.0401  0.4138 -0.1727
12968TIP3    H260320   1.955   4.643  14.716  1.6352 -0.1257 -0.5255
12969TIP3   OH260321   5.251   1.201  10.767 -0.1006  0.2942 -0.6932
12969TIP3    H160322   5.200   1.245  10.835 -0.2598 -0.8417 -0.0573
12969TIP3    H260323   5.189   1.191  10.694 -0.3584  0.2145 -0.4664
12970TIP3   OH260324   0.232   1.873  16.399 -0.3883  0.3610  0.5936
12970TIP3    H160325   0.216   1.825  16.318 -1.7874 -0.2307  1.1748
12970TIP3    H260326   0.324   1.899  16.395  0.2582 -1.8536 -0.0217
12971TIP3   OH260327   0.794   2.445   1.073 -0.0538 -0.3404 -0.4285
12971TIP3    H160328   0.747   2.519   1.113 -0.8620 -1.5821  1.0060
12971TIP3    H260329   0.880   2.445   1.115 -0.3424 -0.6973  0.1662
12972TIP3   OH260330   2.391   5.814  11.481  0.2497  0.4380 -0.3500
12972TIP3    H160331   2.311   5.773  11.447 -0.2995  1.2059 -0.0181
12972TIP3    H260332   2.427   5.749  11.542 -0.4092  0.2983 -0.1009
12973TIP3   OH260333   0.108   3.518   4.325 -0.0562  0.7192 -0.4930
12973TIP3    H160334   0.128   3.499   4.234 -2.1498 -1.3882 -0.6050
12973TIP3    H260335   0.042   3.453   4.350 -0.6090  2.1101  2.1054
12974TIP3   OH260336   0.738   2.182  13.102 -0.7548  0.1009  0.1942
12974TIP3    H160337   0.709   2.202  13.191 -1.4462 -1.4471  0.3645
12974TIP3    H260338   0.809   2.119  13.113 -2.3971 -1.9845 -0.3086
12975TIP3   OH260339   0.775   0.908   2.568 -0.2368  0.0382  0.2967
12975TIP3    H160340   0.859   0.938   2.533  0.0716 -2.4126 -1.2755
12975TIP3    H260341   0.783   0.918   2.663  2.8098 -2.3414  0.4054
12976TIP3   OH260342   2.635   3.719   5.028  0.0116 -0.7162  0.4393
12976TIP3    H160343   2.599   3.805   5.006  0.1949 -0.1741  2.1538
12976TIP3    H260344   2.730   3.730   5.017 -0.0985 -1.5117 -1.9218
12977TIP3   OH260345   2.263   6.557   1.481 -0.2785  0.0192 -0.3229
12977TIP3    H160346   2.193   6.548   1.416 -0.2552 -1.4203 -0.1824
12977TIP3    H260347   2.218   6.568   1.564 -0.3085  1.2175 -0.4764
12978TIP3   OH260348   6.274   3.271   3.438  0.1827  0.0275  0.0939
12978TIP3    H160349   6.317   3.201   3.486  0.2586  0.7131  1.0453
12978TIP3    H260350   6.231   3.227   3.365  0.3136 -0.9898  0.6156
12979TIP3   OH260351   1.398   5.666   4.277 -0.2788 -0.2792  0.0933
12979TIP3    H160352   1.446   5.742   4.244  0.8265 -1.0409 -0.0814
12979TIP3    H260353   1.306   5.691   4.268  0.0640  1.4086  0.9137
12980TIP3   OH260354   0.574   2.478  12.107  0.0747  0.1696 -0.2103
12980TIP3    H160355   0.506   2.538  12.075 -0.3953  0.1608  0.7462
12980TIP3    H260356   0.635   2.533  12.155 -0.5711 -0.1594  1.0103
12981TIP3   OH260357   5.305   1.264  15.675  0.3762  0.1747 -0.2878
12981TIP3    H160358   5.262   1.347  15.696  0.2711 -0.3692  1.9383
12981TIP3    H260359   5.391   1.271  15.718  0.7904 -0.4599 -0.9952
12982TIP3   OH260360   1.500   1.127   2.431  0.2748  0.2357  0.2392
12982TIP3    H160361   1.435   1.188   2.395 -1.2286 -0.1179  2.2420
12982TIP3    H260362   1.551   1.180   2.492 -1.8636 -0.6400  2.9796
12983TIP3   OH260363   1.479   0.499  17.094  0.1546 -0.1045  0.1811
12983TIP3    H160364   1.538   0.451  17.035  0.6741 -0.0875  0.6855
12983TIP3    H260365   1.495   0.591  17.074 -0.9324 -0.1157 -0.8766
12984TIP3   OH260366   3.838   0.966  11.791 -0.5275  0.5584  0.2004
12984TIP3    H160367   3.857   0.883  11.748 -2.6689 -0.6745  1.4560
12984TIP3    H260368   3.834   1.030  11.720  2.0069 -0.1651 -0.7114
12985TIP3   OH260369   0.311   5.431  13.729  0.3469 -0.3796  0.3123
12985TIP3    H160370   0.394   5.477  13.712  2.0074 -2.9289  0.9133
12985TIP3    H260371   0.282   5.465  13.814  0.2897  1.1732 -0.3036
12986TIP3   OH260372   4.020   2.926  12.069  0.7615  0.1384 -0.5017
12986TIP3    H160373   4.114   2.937  12.059  0.9436 -0.3538  0.5142
12986TIP3    H260374   3.993   3.000  12.124  0.3371  0.9600 -1.7701
12987TIP3   OH260375   4.589   6.439   1.693 -0.6287  0.0857 -0.2478
12987TIP3    H160376   4.661   6.503   1.689 -0.7462  0.6973  3.4775
12987TIP3    H260377   4.631   6.355   1.678  1.8683  0.0086  4.9590
12988TIP3   OH260378   2.102   0.852   3.852 -0.1336  0.6836  0.3296
12988TIP3    H160379   2.035   0.882   3.914 -0.3471  0.3104  0.2864
12988TIP3    H260380   2.134   0.932   3.810 -0.2187  0.9070  0.6890
12989TIP3   OH260381   1.316   0.090   2.753 -0.4693  0.7885 -0.4022
12989TIP3    H160382   1.326  -0.005   2.747 -0.4807  0.5891  1.9007
12989TIP3    H260383   1.405   0.123   2.766 -0.4449  1.1451 -1.3479
12990TIP3   OH260384   4.742   1.344  11.955 -0.1272 -0.0169 -0.1075
12990TIP3    H160385   4.680   1.281  11.919 -0.3275 -0.3388  0.7860
12990TIP3    H260386   4.765   1.309  12.041 -0.8684  1.5332  0.7536
12991TIP3   OH260387   4.780   3.594   2.012 -0.5894  0.0924 -0.2037
12991TIP3    H160388   4.836   3.545   1.953 -0.9800 -0.4156 -0.1583
12991TIP3    H260389   4.746   3.529   2.073 -1.6984  0.2755 -0.6026
12992TIP3   OH260390   3.195   3.527   4.397 -0.2619  0.3934 -0.4004
12992TIP3    H160391   3.101   3.512   4.389 -0.1126 -0.0181 -1.5301
12992TIP3    H260392   3.204   3.622   4.398 -0.7628  0.4432  0.8403
12993TIP3   OH260393   5.663   1.189   1.687 -0.0274 -0.0802  0.0479
12993TIP3    H160394   5.741   1.134   1.680  0.7879  1.2600 -2.0023
12993TIP3    H260395   5.596   1.130   1.724  1.5930 -1.5738  0.7592
12994TIP3   OH260396   2.012   2.169   4.909 -0.5321  0.0996 -0.4062
12994TIP3    H160397   1.939   2.167   4.971  1.0283  0.9735  1.6012
12994TIP3    H260398   2.049   2.256   4.919  0.9025 -0.3785 -1.2363
12995TIP3   OH260399   3.649   2.814   1.920 -0.0681  0.0281  0.6740
12995TIP3    H160400   3.685   2.776   2.001  0.9105  2.6091  1.5299
12995TIP3    H260401   3.725   2.830   1.865 -0.6572 -0.9126 -0.4581
12996TIP3   OH260402   3.968   0.034   3.302  0.4491  0.3161  1.2403
12996TIP3    H160403   4.058   0.029   3.271  0.5633  0.1507  1.5850
12996TIP3    H260404   3.971  -0.004   3.390  0.2774  1.4291  1.7499
12997TIP3   OH260405   4.912   2.545   4.632 -0.5487  0.1003  0.2025
12997TIP3    H160406   4.907   2.450   4.646  1.1316 -0.0971 -0.3208
12997TIP3    H260407   4.953   2.554   4.546 -1.3112  1.3126 -0.0530
12998TIP3   OH260408   1.942   4.143  10.419  0.3765 -0.2763  0.4704
12998TIP3    H160409   1.847   4.153  10.422  0.2941 -0.9443  0.3423
12998TIP3    H260410   1.956   4.049  10.431  1.0952 -0.0118  1.8798
12999TIP3   OH260411   4.070   2.774  13.919 -0.1390  0.1505  0.1332
12999TIP3    H160412   4.058   2.737  13.832 -0.0946 -1.1398  0.6542
12999TIP3    H260413   4.008   2.847  13.923 -0.8043 -0.3571 -0.6458
13000TIP3   OH260414   2.539   6.097  11.166  0.4135  0.1641 -0.5114
13000TIP3    H160415   2.492   6.042  11.104 -0.2841 -0.1383  0.2662
13000TIP3    H260416   2.559   6.038  11.239 -0.2620  0.9151  0.2922
13001TIP3   OH260417   6.582   2.895  10.724 -0.7346  0.1887  0.3624
13001TIP3    H160418   6.628   2.894  10.808 -0.8383  1.2216  0.4505
13001TIP3    H260419   6.570   2.988  10.705 -0.3453 -0.0108 -0.9988
13002TIP3   OH260420   0.945   0.612   3.923  0.7481  0.0270 -0.2958
13002TIP3    H160421   0.953   0.690   3.867  0.6302 -0.0802 -0.4619
13002TIP3    H260422   1.019   0.619   3.984  0.1988  0.7639  0.3123
13003TIP3   OH260423   1.566   3.521   1.493 -0.0866 -0.2149 -0.2323
13003TIP3    H160424   1.515   3.488   1.418  1.9394 -1.2591 -1.2487
13003TIP3    H260425   1.643   3.464   1.496  1.0231  1.2586  1.2368
13004TIP3   OH260426   0.905   1.294  15.537 -0.3048 -0.0858 -0.1790
13004TIP3    H160427   0.899   1.272  15.630 -1.0604 -2.0618 -0.6349
13004TIP3    H260428   0.864   1.380  15.530  0.3406  0.3839  1.3820
13005TIP3   OH260429   5.171   4.948  10.832 -0.8685 -0.0176 -0.3673
13005TIP3    H160430   5.240   4.889  10.803  0.7771  0.8754  1.4120
13005TIP3    H260431   5.216   5.008  10.892 -2.6320  2.4247 -1.3259
13006TIP3   OH260432   4.333   1.487   3.369 -0.0185  0.0298  0.0585
13006TIP3    H160433   4.382   1.564   3.342  0.3323 -0.0084  0.5827
13006TIP3    H260434   4.382   1.451   3.442 -1.3517  0.5792  1.2724
13007TIP3   OH260435   1.008   3.737  12.960  0.0731 -0.2953 -0.7161
13007TIP3    H160436   0.927   3.787  12.952 -0.1233 -0.7370 -1.7258
13007TIP3    H260437   1.076   3.796  12.926  0.4354  0.5988  1.3963
13008TIP3   OH260438   5.633   4.555   0.627 -0.4266 -0.1100 -0.3968
13008TIP3    H160439   5.723   4.559   0.657 -0.5134 -1.2371  0.0491
13008TIP3    H260440   5.605   4.647   0.624  0.3659  0.1837  0.5612
13009TIP3   OH260441   0.910   6.588  16.518 -0.8452 -0.2311  0.5999
13009TIP3    H160442   0.862   6.563  16.598  0.8075  0.5993  1.9283
13009TIP3    H260443   0.922   6.682  16.526 -1.5106  0.0231 -1.1739
13010TIP3   OH260444   0.755   5.798   2.252 -0.5760 -0.1747 -0.4113
13010TIP3    H160445   0.825   5.737   2.273 -0.1973  0.1442 -0.7208
13010TIP3    H260446   0.674   5.751   2.273 -0.3194 -1.0378 -1.2559
13011TIP3   OH260447   6.518   0.666   3.160  0.1968  0.0983  0.7691
13011TIP3    H160448   6.516   0.590   3.103  0.7451 -0.5082  1.5317
13011TIP3    H260449   6.471   0.734   3.112 -2.0730 -1.2753  0.8974
13012TIP3   OH260450   1.699   4.547   2.372 -0.0851  0.1583  0.0787
13012TIP3    H160451   1.698   4.479   2.306  2.4480  2.2305 -2.3158
13012TIP3    H260452   1.638   4.613   2.339  2.1681  1.8024 -1.0303
13013TIP3   OH260453   0.636   1.326  13.513  0.0974  0.0888  0.7690
13013TIP3    H160454   0.605   1.413  13.535 -0.5823 -0.3833  1.7477
13013TIP3    H260455   0.582   1.267  13.566 -0.8943 -1.0517 -1.3957
13014TIP3   OH260456   4.027   4.053   4.898 -0.3858 -0.2619 -0.1534
13014TIP3    H160457   4.074   4.015   4.972  0.0586  0.1822 -0.2073
13014TIP3    H260458   3.956   4.103   4.938  1.0731  1.6931  0.0961
13015TIP3   OH260459   0.093   4.528   2.263 -0.3083 -0.3111 -0.0614
13015TIP3    H160460   0.127   4.568   2.182  1.5221 -1.6610 -0.0261
13015TIP3    H260461   0.089   4.600   2.325  2.9984 -0.0354  0.0317
13016TIP3   OH260462   6.024   0.549  12.520  0.2905 -0.3834  0.8364
13016TIP3    H160463   6.088   0.574  12.454 -0.3169  0.0743  0.4049
13016TIP3    H260464   5.960   0.621  12.519 -0.7686 -1.3025  0.5483
13017TIP3   OH260465   4.137   3.301  13.576  0.0469  0.1250 -0.4569
13017TIP3    H160466   4.118   3.334  13.664  1.0972  0.0737 -0.2051
13017TIP3    H260467   4.208   3.239  13.588 -0.7489 -0.9548 -1.1685
13018TIP3   OH260468   0.881   4.166   0.047 -0.1298  0.2468 -0.3163
13018TIP3    H160469   0.955   4.195  -0.007 -0.3056 -0.2284 -0.8291
13018TIP3    H260470   0.848   4.246   0.089  1.2677  0.3349  0.6841
13019TIP3   OH260471   0.922   6.590  11.528 -0.1636  0.1927  0.0722
13019TIP3    H160472   0.827   6.600  11.528 -0.2318 -0.4624 -0.1425
13019TIP3    H260473   0.938   6.508  11.575  0.2264 -0.3207 -0.9397
13020TIP3   OH260474   3.495   6.770  12.725 -0.3145  0.1967 -0.0758
13020TIP3    H160475   3.533   6.730  12.647  0.9993 -0.9066  1.0673
13020TIP3    H260476   3.408   6.798  12.698 -0.6896 -2.0208 -1.3952
13021TIP3   OH260477   1.832   0.113   5.707 -0.0315 -0.2463 -0.1052
13021TIP3    H160478   1.909   0.078   5.664 -0.1889 -2.0257  0.9480
13021TIP3    H260479   1.793   0.038   5.752 -0.4275  1.2740  2.2916
13022TIP3   OH260480   4.235   0.348  14.155 -0.6459 -0.4115 -0.3495
13022TIP3    H160481   4.262   0.390  14.073  0.9056  0.6948  0.6814
13022TIP3    H260482   4.317   0.324  14.198 -1.4334 -1.0502  0.8432
13023TIP3   OH260483   3.420   3.833  14.046  0.0194  0.1537 -0.2924
13023TIP3    H160484   3.473   3.911  14.057 -0.3074  0.2578  0.7143
13023TIP3    H260485   3.361   3.833  14.122  0.6577 -1.5639  0.2478
13024TIP3   OH260486   0.727   0.479  13.897 -1.0333  0.2487  0.2613
13024TIP3    H160487   0.793   0.411  13.881 -0.8578  0.1614  1.2613
13024TIP3    H260488   0.664   0.468  13.826 -1.1576 -1.1594  0.5491
13025TIP3   OH260489   1.461   6.171   0.998  0.5601  0.3286 -0.7031
13025TIP3    H160490   1.443   6.248   0.944 -0.0422 -0.2154 -1.3024
13025TIP3    H260491   1.387   6.112   0.981 -0.2438  0.5818  1.5565
13026TIP3   OH260492   3.914   4.285  16.110  0.6014 -0.5967  0.4329
13026TIP3    H160493   3.884   4.373  16.131  2.4261 -0.4759  2.9392
13026TIP3    H260494   3.851   4.253  16.045 -0.2667  2.4033 -0.3465
13027TIP3   OH260495   2.225   4.309  16.077 -0.3339  0.5124 -0.4917
13027TIP3    H160496   2.237   4.232  16.021  0.3081 -0.1081  0.4597
13027TIP3    H260497   2.295   4.368  16.052  1.1637 -0.5743  0.9251
13028TIP3   OH260498   5.889   3.265  11.017 -0.1271  0.7936 -0.5873
13028TIP3    H160499   5.945   3.339  11.042  0.5057  0.2887 -0.4937
13028TIP3    H260500   5.923   3.236  10.933  0.7490 -0.4830  0.1795
13029TIP3   OH260501   6.772   2.584  15.050  0.1582  0.0826 -0.1809
13029TIP3    H160502   6.751   2.578  15.144  3.1997  3.6135  0.9970
13029TIP3    H260503   6.865   2.563  15.045  0.3417  1.1261 -2.1873
13030TIP3   OH260504   2.188   5.542   2.941  0.0248  0.2404  0.1881
13030TIP3    H160505   2.218   5.461   2.901 -1.4365  0.8309 -2.3554
13030TIP3    H260506   2.117   5.516   3.000 -0.5890 -0.3283 -0.7897
13031TIP3   OH260507   0.356   5.649   2.495  0.2970  0.1265  0.6664
13031TIP3    H160508   0.264   5.669   2.477  0.4007  0.9432  0.9929
13031TIP3    H260509   0.388   5.605   2.416 -0.2311  0.3164  0.3478
13032TIP3   OH260510   5.360   1.880  12.956  0.4054 -0.0676 -0.4351
13032TIP3    H160511   5.356   1.955  12.897  0.5844 -0.5088 -1.0207
13032TIP3    H260512   5.387   1.807  12.900  4.3858  0.2098  0.8617
13033TIP3   OH260513   5.524   5.339   5.009 -0.0197 -0.7001 -0.4045
13033TIP3    H160514   5.528   5.417   5.065  0.4090 -2.4444  2.1403
13033TIP3    H260515   5.616   5.318   4.991 -0.1529  0.2543 -2.5012
13034TIP3   OH260516   6.171   2.040  12.964 -0.0643 -0.2606  0.0845
13034TIP3    H160517   6.090   2.082  12.934  0.1161  1.7383  2.0528
13034TIP3    H260518   6.237   2.069  12.902 -0.6313 -0.9534 -0.8691
13035TIP3   OH260519   6.470   2.696   4.667 -0.0945  0.4002 -0.1752
13035TIP3    H160520   6.530   2.747   4.720 -0.1944  1.1601 -0.7651
13035TIP3    H260521   6.526   2.648   4.606  0.0332 -0.6613  0.7636
13036TIP3   OH260522   4.276   1.536  12.869 -0.2334  0.3029 -0.0279
13036TIP3    H160523   4.237   1.602  12.812  0.5883 -0.1922 -1.1917
13036TIP3    H260524   4.359   1.574  12.898  1.7862 -1.2738 -3.1492
13037TIP3   OH260525   2.592   3.623  14.628  0.4073  0.0905  0.0632
13037TIP3    H160526   2.522   3.660  14.574  1.5063  0.5679 -1.0858
13037TIP3    H260527   2.547   3.591  14.706 -0.9547  1.3616 -0.1449
13038TIP3   OH260528   3.884   4.942  14.668  0.3843 -0.0454 -0.3255
13038TIP3    H160529   3.909   5.032  14.686  1.5678 -0.1593 -1.2937
13038TIP3    H260530   3.858   4.907  14.753  0.0658  1.1434  0.0894
13039TIP3   OH260531   0.474   6.379   4.989  0.4407 -0.5348  0.3825
13039TIP3    H160532   0.551   6.391   4.933  1.5619  0.1097  1.9832
13039TIP3    H260533   0.407   6.346   4.930  1.9790 -1.2716 -1.0552
13040TIP3   OH260534   3.006   5.532  16.859 -0.5169 -0.1035 -0.9003
13040TIP3    H160535   2.997   5.512  16.953 -0.8333 -1.3489 -1.1725
13040TIP3    H260536   2.927   5.495  16.820  0.0502 -0.4069 -1.7771
13041TIP3   OH260537   5.234   4.449   6.499 -0.2082 -0.6037  0.1077
13041TIP3    H160538   5.298   4.520   6.498  0.1206 -0.8382 -3.0166
13041TIP3    H260539   5.282   4.374   6.536  0.3889 -0.0185  0.5364
13042TIP3   OH260540   2.802   0.485  14.963 -0.1441  1.0049  0.1274
13042TIP3    H160541   2.729   0.541  14.936 -2.1292 -1.4857  0.0063
13042TIP3    H260542   2.780   0.458  15.052  0.4634 -0.0429 -0.0292
13043TIP3   OH260543   0.598   1.048  12.899  0.3690  0.3895 -0.1589
13043TIP3    H160544   0.522   1.076  12.848 -0.3391  0.4547  0.9007
13043TIP3    H260545   0.654   1.003  12.836 -0.9496 -0.4236 -0.7911
13044TIP3   OH260546   6.258   5.508   4.910 -0.1274 -0.0191  0.0988
13044TIP3    H160547   6.303   5.446   4.853  1.8549  1.9952 -0.6974
13044TIP3    H260548   6.292   5.489   4.998 -1.4449 -1.6209  0.3076
13045TIP3   OH260549   3.436   3.522   5.800 -0.1514  0.1884  0.2487
13045TIP3    H160550   3.479   3.438   5.787 -0.2411  0.4187 -1.7976
13045TIP3    H260551   3.347   3.500   5.827  0.2155 -0.3366  1.0612
13046TIP3   OH260552   1.309   0.541   0.659  0.6257 -0.3833  0.2231
13046TIP3    H160553   1.362   0.548   0.739  2.4278 -0.7689 -0.8896
13046TIP3    H260554   1.320   0.449   0.632 -1.2575 -0.6826  0.3639
13047TIP3   OH260555   3.576   2.893  16.366  0.0563  0.5537 -0.2255
13047TIP3    H160556   3.514   2.822  16.383 -0.8032  1.7479  2.0736
13047TIP3    H260557   3.530   2.953  16.309 -0.1925  0.5113 -0.0714
13048TIP3   OH260558   1.723   3.840   1.864  0.4834  0.1280 -0.2006
13048TIP3    H160559   1.669   3.878   1.795 -0.0430 -0.7804 -0.3033
13048TIP3    H260560   1.813   3.851   1.832  0.2389 -0.5490 -1.1984
13049TIP3   OH260561   6.555   3.971  15.732 -0.1915 -0.2262 -0.0935
13049TIP3    H160562   6.527   4.017  15.811 -2.1675  0.0374 -0.9070
13049TIP3    H260563   6.566   4.040  15.667  2.4469 -0.3105  0.1516
13050TIP3   OH260564   2.926   0.494   1.011  0.4261  0.4139 -0.5539
13050TIP3    H160565   2.985   0.561   1.045 -0.2301  0.1379  1.1929
13050TIP3    H260566   2.926   0.426   1.077 -1.3806  0.1334 -0.8099
13051TIP3   OH260567   6.197   2.311   0.598 -0.9683 -0.1475  0.4915
13051TIP3    H160568   6.237   2.336   0.515  0.6222  1.8980  1.7686
13051TIP3    H260569   6.140   2.385   0.621 -0.8001 -0.3321  1.5635
13052TIP3   OH260570   1.667   6.416   1.418  0.0148  0.2456  0.0083
13052TIP3    H160571   1.625   6.462   1.490  0.4335  1.5274 -0.5419
13052TIP3    H260572   1.595   6.376   1.369 -0.4802  1.5435 -0.3372
13053TIP3   OH260573   5.626   4.448  16.698  0.0980  0.1139  0.8168
13053TIP3    H160574   5.649   4.541  16.691  0.4461  0.0766  1.4029
13053TIP3    H260575   5.532   4.448  16.713 -0.2723  0.2830 -1.1958
13054TIP3   OH260576   6.108   2.728  12.943  0.4693 -0.0413 -0.0581
13054TIP3    H160577   6.045   2.783  12.896  0.8962  0.1193 -0.4525
13054TIP3    H260578   6.061   2.647  12.960  0.6807 -0.5650 -1.8381
13055TIP3   OH260579   3.042   3.145   3.347 -0.0461  0.2273 -0.5711
13055TIP3    H160580   3.015   3.197   3.271  1.5605  0.4233 -1.0463
13055TIP3    H260581   3.090   3.071   3.309 -1.0143 -0.8224  0.1800
13056TIP3   OH260582   6.425   2.172  13.087 -0.1017  0.6611  0.0395
13056TIP3    H160583   6.371   2.250  13.080 -0.4371  0.4328  0.0446
13056TIP3    H260584   6.425   2.134  12.999  0.1915  0.7524 -0.0006
13057TIP3   OH260585   1.421   2.992  16.666  0.0776  0.3941 -0.0450
13057TIP3    H160586   1.414   2.973  16.572 -1.1115  0.0852  0.0961
13057TIP3    H260587   1.482   3.066  16.671 -0.4817  0.9459 -1.1158
13058TIP3   OH260588   6.469   1.555   0.078  0.5890 -0.1935  0.4043
13058TIP3    H160589   6.535   1.566   0.146  1.1685 -0.3623 -0.1204
13058TIP3    H260590   6.405   1.625   0.094  1.3399  0.5006  0.4125
13059TIP3   OH260591   3.336   2.209   5.549 -0.5265  0.0960 -0.1779
13059TIP3    H160592   3.274   2.198   5.477 -0.8089  0.9892 -0.0782
13059TIP3    H260593   3.414   2.247   5.507  0.2702 -1.6762 -0.4350
13060TIP3   OH260594   0.251   5.065  17.125  0.3434 -0.4200  0.5281
13060TIP3    H160595   0.321   5.020  17.172  0.1446 -0.3913  0.8592
13060TIP3    H260596   0.199   5.106  17.194  0.0049 -0.4367  0.2832
13061TIP3   OH260597   4.027   0.752  13.771  0.2581 -0.3422 -0.5050
13061TIP3    H160598   3.966   0.680  13.756 -0.7805  0.7022 -1.4618
13061TIP3    H260599   4.059   0.776  13.684  2.1944 -0.9510 -0.0188
13062TIP3   OH260600   1.291   2.566   5.481 -0.0281  0.2603  0.1788
13062TIP3    H160601   1.316   2.477   5.457 -1.0734 -0.7987  2.7168
13062TIP3    H260602   1.197   2.571   5.461  0.1093  0.9502 -0.3305
13063TIP3   OH260603   1.804   2.431  13.851  0.1903  0.1117 -0.4097
13063TIP3    H160604   1.789   2.345  13.812 -0.2047 -0.6238  1.2571
13063TIP3    H260605   1.896   2.449  13.833  0.6246 -1.2601  0.2883
13064TIP3   OH260606   6.488   2.925   4.466  0.9744  0.4618  0.6012
13064TIP3    H160607   6.466   2.841   4.505  2.4669  0.6004  1.8533
13064TIP3    H260608   6.404   2.971   4.457  0.3726 -0.3624  1.8304
13065TIP3   OH260609   5.132   5.817  16.661  0.0425  0.3809 -0.1753
13065TIP3    H160610   5.170   5.844  16.744  0.1238  2.1186 -0.7390
13065TIP3    H260611   5.188   5.858  16.595 -0.3338 -0.5295 -1.0850
13066TIP3   OH260612   4.844   6.720  13.743 -0.2864 -0.0232 -0.2393
13066TIP3    H160613   4.919   6.681  13.697  0.7588  0.6617  0.8330
13066TIP3    H260614   4.855   6.815  13.730 -0.7497  0.1004  0.2438
13067TIP3   OH260615   6.584   5.765  16.962  0.3140  0.5771  0.0577
13067TIP3    H160616   6.624   5.719  17.036 -0.3218  1.4097  0.9381
13067TIP3    H260617   6.491   5.769  16.984 -0.2132 -0.7917 -1.6724
13068TIP3   OH260618   2.608   5.261  15.302 -0.0177  0.2623  0.1533
13068TIP3    H160619   2.525   5.261  15.254  0.1504  0.3313 -0.1396
13068TIP3    H260620   2.601   5.335  15.363  0.2810  0.9627 -0.6531
13069TIP3   OH260621   1.424   0.876  14.436  0.0847  0.5210  0.8820
13069TIP3    H160622   1.338   0.915  14.450 -0.2553  0.1486 -0.0755
13069TIP3    H260623   1.443   0.891  14.344  0.1620 -1.1060  0.5967
13070TIP3   OH260624   0.607   2.490  16.668 -0.2761  0.5356 -0.2938
13070TIP3    H160625   0.655   2.422  16.716 -0.3845  0.5571 -0.1557
13070TIP3    H260626   0.583   2.448  16.585 -1.4276  0.0009  0.2999
13071TIP3   OH260627   2.958   1.255  14.861  0.1620 -0.2494  0.0814
13071TIP3    H160628   2.930   1.183  14.917 -1.3550  0.7426  0.6657
13071TIP3    H260629   2.890   1.260  14.793 -1.0737  2.0425  1.3616
13072TIP3   OH260630   2.044   1.246   4.131  0.4911  0.8443  0.5076
13072TIP3    H160631   2.102   1.322   4.121  1.3416 -0.0136 -1.7072
13072TIP3    H260632   1.961   1.273   4.091  1.3652  0.0897 -1.9895
13073TIP3   OH260633   0.199   5.868  16.994 -0.1780  0.3580  0.3085
13073TIP3    H160634   0.281   5.840  16.954 -1.3203 -0.4119 -1.6277
13073TIP3    H260635   0.204   5.964  16.993  0.3198  0.3321 -0.6425
13074TIP3   OH260636   6.553   1.668   5.824 -0.0237 -0.1703 -0.2715
13074TIP3    H160637   6.626   1.614   5.794  0.5459  1.3302 -1.7726
13074TIP3    H260638   6.527   1.718   5.747 -1.0614  1.0986  0.8403
13075TIP3   OH260639   5.105   0.861   3.517  0.1492  0.2624  0.0052
13075TIP3    H160640   5.153   0.928   3.468  0.7548 -0.5727 -0.5799
13075TIP3    H260641   5.018   0.898   3.531 -0.0885  0.5053 -1.8152
13076TIP3   OH260642   3.703   2.335   3.650  0.1729 -0.1420 -0.0454
13076TIP3    H160643   3.685   2.293   3.566  0.7138  1.6488 -1.1165
13076TIP3    H260644   3.772   2.282   3.689 -0.2090 -1.1108 -0.6487
13077TIP3   OH260645   4.553   1.599  14.089  0.2561  0.0444  0.0226
13077TIP3    H160646   4.554   1.533  14.158 -1.0536  0.4423  0.4459
13077TIP3    H260647   4.490   1.565  14.025  0.6173  0.2185 -0.4285
13078TIP3   OH260648   6.548   0.533   0.822  0.4428  0.6416  0.3537
13078TIP3    H160649   6.517   0.544   0.912 -0.7326  0.8972 -0.0697
13078TIP3    H260650   6.524   0.442   0.800  1.0328  0.4695  0.4063
13079TIP3   OH260651   0.250   5.671  16.226  0.3938 -0.3676  0.3362
13079TIP3    H160652   0.311   5.621  16.170  1.5615 -0.1952  1.4101
13079TIP3    H260653   0.203   5.604  16.275  0.0791 -0.4834 -0.1122
13080TIP3   OH260654   5.889   4.304   2.228 -0.2443  0.0753  0.4909
13080TIP3    H160655   5.879   4.214   2.259  0.4403 -0.4891 -0.8742
13080TIP3    H260656   5.981   4.326   2.248 -0.4797  0.5877  1.0649
13081TIP3   OH260657   0.689   1.159  13.911  0.2346 -0.4470  0.6287
13081TIP3    H160658   0.631   1.235  13.900  0.4190 -0.5006 -0.9436
13081TIP3    H260659   0.775   1.191  13.883  0.0881 -1.5054 -1.2203
13082TIP3   OH260660   4.274   1.400   1.437 -0.5262 -0.4699  0.1686
13082TIP3    H160661   4.320   1.355   1.367  1.8635 -0.4847  1.6005
13082TIP3    H260662   4.249   1.330   1.498  0.4125 -0.2106  0.8875
13083TIP3   OH260663   5.890   4.465   5.722  0.0595 -0.3768 -0.1381
13083TIP3    H160664   5.974   4.442   5.683 -0.8419 -1.2277 -1.6805
13083TIP3    H260665   5.858   4.383   5.760 -1.0297 -0.6166 -1.4963
13084TIP3   OH260666   3.661   1.947  12.667 -0.5327  0.0198 -0.1275
13084TIP3    H160667   3.751   1.934  12.639 -0.5583  1.0878 -0.7575
13084TIP3    H260668   3.669   1.984  12.755 -0.3696 -0.0803 -0.0997
13085TIP3   OH260669   1.555   3.256   3.288 -0.2732 -0.2126  0.0630
13085TIP3    H160670   1.530   3.250   3.196  2.4977  0.3173 -0.8218
13085TIP3    H260671   1.547   3.349   3.309  0.1588 -0.1576 -0.0008
13086TIP3   OH260672   4.241   3.748  14.382 -0.1855 -0.4420 -0.2060
13086TIP3    H160673   4.197   3.671  14.344  0.1939 -1.4656  1.3561
13086TIP3    H260674   4.313   3.711  14.433  1.2849  1.1004 -1.0800
13087TIP3   OH260675   6.430   5.704   1.508  0.0508  0.3762 -0.2279
13087TIP3    H160676   6.352   5.649   1.512 -1.3487  2.1594 -1.2721
13087TIP3    H260677   6.486   5.672   1.578 -0.7279 -2.2530 -0.6966
13088TIP3   OH260678   1.067   2.749   3.599 -0.0041 -0.9384  0.7849
13088TIP3    H160679   0.981   2.764   3.637 -1.4504 -2.1060 -1.7599
13088TIP3    H260680   1.083   2.655   3.611  0.2373 -1.0056  0.0021
13089TIP3   OH260681   1.619   1.846   3.120 -0.2398  0.0043 -0.2798
13089TIP3    H160682   1.601   1.811   3.207  4.0567 -1.9980  0.0799
13089TIP3    H260683   1.656   1.933   3.136  0.3632 -0.2832 -0.0693
13090TIP3   OH260684   0.987   5.862  15.422  0.7452  0.5657 -0.2389
13090TIP3    H160685   1.011   5.814  15.501  1.9529 -1.0408 -1.5115
13090TIP3    H260686   1.044   5.939  15.421  2.3518 -0.5951 -0.6703
13091TIP3   OH260687   3.066   5.086   4.011 -0.1379  0.2643 -0.5388
13091TIP3    H160688   3.008   5.033   3.957  0.9282 -1.5798  0.0516
13091TIP3    H260689   3.154   5.058   3.986  0.4024 -0.2105  1.6872
13092TIP3   OH260690   2.758   1.841  13.595  0.3570  0.3789  0.7232
13092TIP3    H160691   2.817   1.854  13.670 -0.4247 -2.4433  1.9788
13092TIP3    H260692   2.704   1.767  13.621 -0.6462 -0.0541 -2.2874
13093TIP3   OH260693   6.509   2.330   5.211  0.6372 -0.3984  0.0109
13093TIP3    H160694   6.459   2.343   5.291 -0.8020 -1.6626 -0.6275
13093TIP3    H260695   6.495   2.238   5.189  1.9092 -0.3629 -1.1095
13094TIP3   OH260696   6.358   1.750  11.413  0.0035  0.3732 -0.0730
13094TIP3    H160697   6.391   1.800  11.488 -0.5871  0.5788  0.0570
13094TIP3    H260698   6.356   1.814  11.342  0.6572  0.1529 -0.2921
13095TIP3   OH260699   6.046   3.720   2.997  0.9191 -0.2089  0.2555
13095TIP3    H160700   5.999   3.729   2.914 -1.4397 -2.1573  1.2351
13095TIP3    H260701   5.976   3.713   3.063  2.6436 -1.5408  2.0503
13096TIP3   OH260702   0.055   1.785   2.889 -0.0931 -0.2238  0.0745
13096TIP3    H160703  -0.034   1.750   2.884  0.6581 -2.2275 -0.3015
13096TIP3    H260704   0.110   1.708   2.905  1.6160  0.9033 -0.1088
13097TIP3   OH260705   3.563   0.491  16.902 -0.6621  0.0835 -0.2577
13097TIP3    H160706   3.577   0.410  16.951  2.2376 -1.1250 -2.7459
13097TIP3    H260707   3.606   0.558  16.955  1.0553 -0.9118 -0.2901
13098TIP3   OH260708   0.864   3.771   3.997 -0.0918 -0.1180  0.9468
13098TIP3    H160709   0.871   3.687   4.043  0.9390  0.8427  2.6617
13098TIP3    H260710   0.923   3.830   4.045  0.3150  1.2281 -1.0646
13099TIP3   OH260711   6.337   3.157  16.253 -0.6525 -0.2272  0.7986
13099TIP3    H160712   6.312   3.213  16.327 -1.8430  2.4361 -1.4152
13099TIP3    H260713   6.390   3.214  16.197 -0.3582 -1.9278 -0.7354
13100TIP3   OH260714   4.328   3.729   3.002  0.4076  0.4582 -0.4566
13100TIP3    H160715   4.348   3.766   3.088  0.9576 -1.0490  0.0874
13100TIP3    H260716   4.327   3.805   2.943 -0.3018  1.5567  0.9119
13101TIP3   OH260717   2.005   0.493  14.891  0.3777 -0.5432  0.1399
13101TIP3    H160718   2.061   0.544  14.833 -0.8114 -0.3193 -0.8382
13101TIP3    H260719   2.012   0.537  14.976  0.5989  0.3151 -0.3118
13102TIP3   OH260720   5.781   1.552  12.183 -0.5330 -0.4758 -0.1575
13102TIP3    H160721   5.705   1.570  12.127  0.1764  0.3189 -0.8941
13102TIP3    H260722   5.856   1.587  12.135  0.2095 -0.5122  0.9211
13103TIP3   OH260723   6.778   5.172   1.185  0.2320 -1.0589 -0.9606
13103TIP3    H160724   6.853   5.137   1.233  0.9664  0.5854 -0.8568
13103TIP3    H260725   6.729   5.222   1.251  0.7469  0.4551 -1.7066
13104TIP3   OH260726   5.572   2.303  16.658  0.4210 -0.3665  0.1429
13104TIP3    H160727   5.624   2.290  16.738 -0.1729 -1.1706  0.4113
13104TIP3    H260728   5.630   2.278  16.587  0.4340 -1.1729  0.4351
13105TIP3   OH260729   2.147   4.850  16.392 -0.7042  0.2072 -0.0493
13105TIP3    H160730   2.138   4.805  16.475 -1.9909  0.5395 -0.0014
13105TIP3    H260731   2.194   4.931  16.413  0.4344 -0.4587  0.0676
13106TIP3   OH260732   6.655   4.693  14.075 -0.0463 -0.1804 -0.1887
13106TIP3    H160733   6.691   4.614  14.114 -0.9279 -0.4341  0.1280
13106TIP3    H260734   6.585   4.720  14.135  0.0195  0.6411 -0.4720
13107TIP3   OH260735   3.591   6.777  10.695 -0.0907  0.3317  0.1934
13107TIP3    H160736   3.568   6.709  10.758 -1.2740  1.2036  0.7311
13107TIP3    H260737   3.628   6.848  10.748  1.7377 -0.0983 -0.4196
13108TIP3   OH260738   6.337   6.126   5.733 -0.3005 -0.4441 -0.1348
13108TIP3    H160739   6.362   6.117   5.641 -0.8485  0.3224 -0.3670
13108TIP3    H260740   6.242   6.118   5.733 -0.2904 -0.6238  0.3947
13109TIP3   OH260741   4.358   5.286   0.157  0.1277 -0.6182  0.4614
13109TIP3    H160742   4.373   5.380   0.145  1.1554 -0.5851  1.7392
13109TIP3    H260743   4.263   5.277   0.165 -0.1311  0.0548 -1.4620
13110TIP3   OH260744   6.642   0.326  12.697  0.0643  0.0708 -0.4993
13110TIP3    H160745   6.687   0.303  12.615 -2.6929  0.5835 -2.2875
13110TIP3    H260746   6.665   0.418  12.712 -0.4748  0.3681 -1.4551
13111TIP3   OH260747   0.399   2.179   3.804  0.2118  0.3628 -0.1481
13111TIP3    H160748   0.422   2.111   3.740 -2.2174  0.1419 -0.9139
13111TIP3    H260749   0.359   2.130   3.877  1.0750  0.7735  0.6116
13112TIP3   OH260750   4.653   5.674  15.381 -0.0152  0.5915 -0.1447
13112TIP3    H160751   4.743   5.695  15.358  0.7248 -1.0392  1.1352
13112TIP3    H260752   4.630   5.601  15.323  0.0092  0.0475  0.5144
13113TIP3   OH260753   4.119   5.452   0.321 -0.1121  0.1530  0.3040
13113TIP3    H160754   4.177   5.417   0.388 -0.4829 -0.3884  0.3540
13113TIP3    H260755   4.072   5.523   0.364  2.0566  2.1180 -0.3449
13114TIP3   OH260756   3.911   3.130  17.126  0.2251  0.0156 -0.4905
13114TIP3    H160757   3.851   3.055  17.128  1.4434 -0.9931 -0.4053
13114TIP3    H260758   3.856   3.206  17.144 -0.8421 -0.9893  0.6279
13115TIP3   OH260759   6.133   0.133  16.817  0.2854 -0.3209  0.0784
13115TIP3    H160760   6.076   0.209  16.825  0.1579 -0.2238 -1.4477
13115TIP3    H260761   6.150   0.126  16.723 -0.4021 -2.6843  0.0723
13116TIP3   OH260762   5.894   3.582   5.876  0.0345  0.3337  0.2520
13116TIP3    H160763   5.936   3.496   5.885 -0.3168  0.2538  1.1818
13116TIP3    H260764   5.950   3.630   5.816 -1.0821 -1.3947 -2.3585
13117TIP3   OH260765   4.857   4.517  13.483  0.5921 -0.1223  0.3487
13117TIP3    H160766   4.912   4.442  13.501 -0.6003 -1.2447 -0.4820
13117TIP3    H260767   4.855   4.566  13.566  2.5957 -0.1530  0.4591
13118TIP3   OH260768   0.545   1.390   0.447 -0.1661  0.6295  0.9139
13118TIP3    H160769   0.455   1.420   0.446 -0.4509 -0.1113  2.1469
13118TIP3    H260770   0.566   1.373   0.356 -1.9749 -1.1759  0.7699
13119TIP3   OH260771   3.399   6.533  11.235  0.5069  0.3413 -0.0812
13119TIP3    H160772   3.476   6.479  11.221 -0.3189 -0.9573  0.2975
13119TIP3    H260773   3.330   6.492  11.182 -0.1798  0.8981  0.3532
13120TIP3   OH260774   6.109   4.432  16.833 -0.0069  0.6637  0.1782
13120TIP3    H160775   6.074   4.363  16.777 -1.6481  2.6880 -1.4284
13120TIP3    H260776   6.083   4.407  16.922 -1.5166 -0.2519 -0.4844
13121TIP3   OH260777   1.116   2.886  13.774  0.0001 -0.0061  0.1582
13121TIP3    H160778   1.153   2.974  13.764  1.9965 -0.6967  0.8721
13121TIP3    H260779   1.053   2.879  13.703  0.6373  1.5919 -0.6422
13122TIP3   OH260780   1.505   0.884   5.802  0.0399 -0.0274  0.0325
13122TIP3    H160781   1.496   0.883   5.897 -1.7639 -0.5098 -0.1096
13122TIP3    H260782   1.443   0.952   5.773  1.2257  0.7524 -0.7541
13123TIP3   OH260783   3.867   2.549   3.233  0.5007 -0.4930 -0.3844
13123TIP3    H160784   3.917   2.520   3.156  0.5377  2.9502 -1.8494
13123TIP3    H260785   3.778   2.518   3.216  0.0682  1.7188 -2.9284
13124TIP3   OH260786   6.165   3.921   4.732  0.1339  0.1330 -0.4846
13124TIP3    H160787   6.150   3.835   4.772  1.1455  0.4496  0.6832
13124TIP3    H260788   6.096   3.976   4.768 -0.8238 -0.2821 -1.6308
13125TIP3   OH260789   1.202   2.541  15.504  0.2767  0.4178 -0.1058
13125TIP3    H160790   1.248   2.457  15.494  0.5626  0.4707  0.7223
13125TIP3    H260791   1.138   2.541  15.432 -0.7697 -1.1924  0.7687
13126TIP3   OH260792   0.594   1.728  13.210 -0.0688 -0.3892  0.2400
13126TIP3    H160793   0.622   1.703  13.298  0.6649  0.1632  0.1694
13126TIP3    H260794   0.659   1.792  13.181 -0.9087  0.2506 -0.2838
13127TIP3   OH260795   2.137   4.424  13.656 -0.2631  0.1269  0.6344
13127TIP3    H160796   2.169   4.361  13.721  1.2688 -0.3186 -0.4670
13127TIP3    H260797   2.065   4.469  13.699 -0.5837 -1.5110  1.9214
13128TIP3   OH260798   3.196   6.424  13.180 -0.4719  0.4815  0.3407
13128TIP3    H160799   3.229   6.435  13.091 -1.3553  0.6939  0.0263
13128TIP3    H260800   3.108   6.463  13.178 -0.4167  0.6795  1.3583
13129TIP3   OH260801   5.375   6.554   2.057 -0.2287  0.6604 -0.9789
13129TIP3    H160802   5.345   6.617   2.123  0.3751  0.4477 -0.4868
13129TIP3    H260803   5.452   6.596   2.017  0.1174  0.2908 -0.7176
13130TIP3   OH260804   6.147   5.454   4.015  0.1691 -0.2256 -0.3305
13130TIP3    H160805   6.056   5.427   4.027  0.2841 -1.9441 -2.5787
13130TIP3    H260806   6.157   5.462   3.920  1.7695  2.3325 -0.0613
13131TIP3   OH260807   1.917   1.723   1.876  0.3640  0.2903 -0.7316
13131TIP3    H160808   1.926   1.665   1.800 -2.9588 -0.2409 -0.8733
13131TIP3    H260809   1.843   1.779   1.854 -1.0168 -0.1669  2.2490
13132TIP3   OH260810   5.629   2.222  14.632 -0.0624 -0.3585 -0.5005
13132TIP3    H160811   5.618   2.216  14.727  0.8485  0.7017 -0.3044
13132TIP3    H260812   5.544   2.196  14.597 -0.3281 -1.0326  0.5895
13133TIP3   OH260813   2.399   2.533  12.249  0.1545  0.8528 -0.1961
13133TIP3    H160814   2.307   2.554  12.267  0.3680  1.8137 -0.1465
13133TIP3    H260815   2.427   2.481  12.324 -0.3176  0.6345 -0.1633
13134TIP3   OH260816   3.122   6.206   1.896  0.0475  0.5734 -0.3246
13134TIP3    H160817   3.110   6.283   1.841 -0.1463  0.7125 -0.0905
13134TIP3    H260818   3.073   6.137   1.853  1.7830  0.0622 -1.5859
13135TIP3   OH260819   3.731   3.260   4.086 -0.2393  0.3790 -0.3612
13135TIP3    H160820   3.785   3.210   4.148 -1.1681 -0.3118 -0.0932
13135TIP3    H260821   3.795   3.306   4.031  0.6348  1.3785  1.3686
13136TIP3   OH260822   0.498   3.125  14.939  0.2873 -0.1513  0.2904
13136TIP3    H160823   0.410   3.104  14.972 -0.0458  0.4014 -0.2193
13136TIP3    H260824   0.548   3.149  15.017 -0.1428 -0.0340  0.5331
13137TIP3   OH260825   5.530   6.507  14.689 -0.8232  0.0367 -0.8677
13137TIP3    H160826   5.456   6.447  14.700 -3.1931  2.8205 -0.6012
13137TIP3    H260827   5.491   6.594  14.691  2.5562  1.6870 -0.3049
13138TIP3   OH260828   6.204   2.311   3.931 -0.5959  0.7112 -0.4521
13138TIP3    H160829   6.250   2.365   3.867 -0.4149  0.2044 -0.7622
13138TIP3    H260830   6.113   2.309   3.901 -0.5057  0.4519 -0.7131
13139TIP3   OH260831   4.149   5.097   1.844 -0.5880 -0.3684  0.0544
13139TIP3    H160832   4.095   5.057   1.776  0.8691 -2.5177  0.0717
13139TIP3    H260833   4.115   5.061   1.926 -1.5697  1.2921  0.4205
13140TIP3   OH260834   2.238   0.101   0.641 -0.1944  0.0350 -0.7118
13140TIP3    H160835   2.312   0.070   0.589  0.5930  1.5009 -0.4951
13140TIP3    H260836   2.256   0.193   0.657 -1.5586  0.1664  0.2389
13141TIP3   OH260837   3.868   1.932  10.870  0.0341  0.3906  0.1068
13141TIP3    H160838   3.818   1.871  10.815 -0.7999  2.1900 -1.2660
13141TIP3    H260839   3.948   1.885  10.892 -1.1598 -1.6700  0.2660
13142TIP3   OH260840   2.735   6.675  12.345  0.0119 -0.1094 -0.6703
13142TIP3    H160841   2.787   6.730  12.287 -0.7101  0.8994 -0.3855
13142TIP3    H260842   2.678   6.624  12.287 -0.8129  1.0044 -0.8716
13143TIP3   OH260843   5.947   6.540   4.107 -0.3212 -0.3480  0.0712
13143TIP3    H160844   5.933   6.622   4.061  0.1953 -1.4891 -2.2466
13143TIP3    H260845   6.042   6.537   4.123 -0.5691  0.3692  1.9887
13144TIP3   OH260846   4.563   0.697   0.184 -0.3433  0.0666 -0.6839
13144TIP3    H160847   4.491   0.754   0.213 -0.6288  0.1045 -1.4522
13144TIP3    H260848   4.580   0.724   0.094  0.3414 -0.2489 -0.6538
13145TIP3   OH260849   1.616   5.111   5.171 -0.3020  0.1861 -0.1072
13145TIP3    H160850   1.629   5.021   5.141  0.0485  0.2988 -0.3019
13145TIP3    H260851   1.525   5.130   5.149 -0.5232 -0.2806  0.3688
13146TIP3   OH260852   3.372   1.131  16.524 -0.4155  0.0795 -0.2222
13146TIP3    H160853   3.320   1.070  16.577  1.2908 -0.7568  0.5891
13146TIP3    H260854   3.443   1.077  16.490  0.8377  1.4960  0.0694
13147TIP3   OH260855   2.225   6.240  10.424 -0.0747 -0.8533  0.0890
13147TIP3    H160856   2.220   6.185  10.503 -1.3508 -1.0528 -0.1053
13147TIP3    H260857   2.184   6.187  10.356  0.8997 -0.6222 -0.6929
13148TIP3   OH260858   3.533   0.469   1.574  0.2916  0.7856 -0.6237
13148TIP3    H160859   3.611   0.524   1.586  1.9234 -1.6592  0.9259
13148TIP3    H260860   3.566   0.379   1.580 -2.8651 -0.4075  2.3017
13149TIP3   OH260861   4.813   3.629   0.401 -0.2524 -0.0742 -0.2460
13149TIP3    H160862   4.748   3.640   0.332 -0.8520  2.3440  0.6084
13149TIP3    H260863   4.765   3.645   0.483  1.1754  0.6880  0.4835
13150TIP3   OH260864   4.064   2.450   4.160 -0.1708 -0.5475 -0.1937
13150TIP3    H160865   4.042   2.500   4.082 -1.3465  1.0608  1.1018
13150TIP3    H260866   3.981   2.412   4.188  0.2426 -1.1350  0.2611
13151TIP3   OH260867   5.903   2.811  15.137 -0.0678 -0.4532 -0.2436
13151TIP3    H160868   5.973   2.867  15.172  0.6557 -1.8533  0.6465
13151TIP3    H260869   5.829   2.871  15.123  1.4803  1.2054 -1.8555
13152TIP3   OH260870   5.350   0.800  13.180 -0.3611  0.5328  0.1528
13152TIP3    H160871   5.341   0.896  13.180  2.0587  0.8336  0.1237
13152TIP3    H260872   5.302   0.771  13.103 -2.6731  1.5014  1.1579
13153TIP3   OH260873   1.826   5.174  15.261 -0.4787  0.2060 -0.0997
13153TIP3    H160874   1.887   5.165  15.335 -1.5977  0.0698  0.8500
13153TIP3    H260875   1.868   5.237  15.202  0.1865  0.7675  0.9401
13154TIP3   OH260876   0.706   3.184   6.150 -0.1622  0.4819  0.6864
13154TIP3    H160877   0.647   3.115   6.180 -0.5012 -0.0848 -1.2110
13154TIP3    H260878   0.700   3.252   6.218 -2.2519  0.0322  0.9986
13155TIP3   OH260879   3.693   6.620   2.650  0.0708 -0.7659  0.4157
13155TIP3    H160880   3.661   6.697   2.697 -0.3986 -1.0573  0.5776
13155TIP3    H260881   3.635   6.549   2.677 -0.6429 -0.8016 -1.0946
13156TIP3   OH260882   5.131   0.424  13.397 -0.3356 -0.2524  0.3032
13156TIP3    H160883   5.131   0.358  13.329  0.0155 -0.0250  0.0813
13156TIP3    H260884   5.214   0.470  13.387 -1.6296  2.0014 -1.3126
13157TIP3   OH260885   3.755   1.828  14.895  0.1376  0.2546  0.1390
13157TIP3    H160886   3.709   1.800  14.816 -0.1291 -1.9539  1.0153
13157TIP3    H260887   3.799   1.909  14.870 -1.7195  0.7808 -1.6146
13158TIP3   OH260888   6.562   3.432   3.968 -0.1519  0.1253 -0.1859
13158TIP3    H160889   6.556   3.346   4.009 -1.1726 -0.0909 -0.7503
13158TIP3    H260890   6.489   3.481   4.005  1.0516  1.1502  0.9681
13159TIP3   OH260891   1.842   1.330   0.165  0.8046  0.0846 -0.0307
13159TIP3    H160892   1.751   1.354   0.183  1.3786  2.5368 -0.0884
13159TIP3    H260893   1.837   1.242   0.127 -1.5601  0.3034 -0.3413
13160TIP3   OH260894   3.139   6.738   5.081 -0.3164 -0.3919 -0.7786
13160TIP3    H160895   3.214   6.754   5.139 -0.1084  0.9167 -1.3715
13160TIP3    H260896   3.064   6.733   5.140  0.2223 -1.7492 -0.1751
13161TIP3   OH260897   0.805   0.192  12.399  0.0828  0.5180 -0.1537
13161TIP3    H160898   0.769   0.142  12.325 -1.0192 -1.2591  1.4772
13161TIP3    H260899   0.764   0.278  12.392 -0.3304  0.2357 -1.3748
13162TIP3   OH260900   1.056   3.140  10.902  0.8319 -0.4921  0.0246
13162TIP3    H160901   1.149   3.135  10.921  1.3350 -1.6625 -2.3802
13162TIP3    H260902   1.044   3.084  10.826 -1.6139  0.6865 -0.5569
13163TIP3   OH260903   2.730   1.412  16.818 -0.4328 -0.7954 -0.3592
13163TIP3    H160904   2.761   1.427  16.729  0.7271  0.5609  0.2322
13163TIP3    H260905   2.708   1.500  16.851  1.4325 -0.9423  1.4659
13164TIP3   OH260906   4.008   5.752  15.128 -0.1144 -0.1206 -0.0806
13164TIP3    H160907   4.079   5.812  15.148 -0.3135  0.8923 -2.1190
13164TIP3    H260908   3.930   5.807  15.125 -0.6085 -0.8084 -0.1464
13165TIP3   OH260909   4.953   6.394   1.988  0.0763 -0.3195 -0.0752
13165TIP3    H160910   4.891   6.459   1.955  0.7418 -0.5946 -1.9845
13165TIP3    H260911   4.903   6.342   2.051 -0.9002  1.0361  0.2923
13166TIP3   OH260912   4.963   1.647   4.388  0.2286  0.7290  0.0317
13166TIP3    H160913   5.051   1.644   4.425  0.5927  0.1700 -0.8725
13166TIP3    H260914   4.905   1.629   4.463  1.0184 -1.7617  0.1383
13167TIP3   OH260915   1.599   5.710  13.410 -0.0520  0.3435 -0.4986
13167TIP3    H160916   1.518   5.723  13.362 -0.1345 -0.1409 -0.5039
13167TIP3    H260917   1.609   5.614  13.414  0.3005  0.3915 -0.1418
13168TIP3   OH260918   3.743   5.360   4.196 -0.6376  0.3188  0.1532
13168TIP3    H160919   3.808   5.369   4.127  1.8954 -0.0750  2.3155
13168TIP3    H260920   3.671   5.312   4.155  0.4637  0.6005 -2.3054
13169TIP3   OH260921   6.713   2.303   0.811  0.2072  0.3867  0.3244
13169TIP3    H160922   6.661   2.365   0.760  0.0569  1.4361  1.6829
13169TIP3    H260923   6.804   2.329   0.793  0.1376  1.4381  1.3405
13170TIP3   OH260924   0.527   1.572  14.987 -0.2488  0.2510  0.4386
13170TIP3    H160925   0.497   1.550  14.899  0.5882 -0.7810  0.3913
13170TIP3    H260926   0.484   1.508  15.044  1.5146 -1.0293  0.4077
13171TIP3   OH260927   1.770   4.386   3.721 -0.2479  0.8665 -0.2427
13171TIP3    H160928   1.797   4.466   3.766  1.0181  0.1399  0.3543
13171TIP3    H260929   1.851   4.353   3.680 -0.6159 -0.4118  0.0210
13172TIP3   OH260930   0.236   2.365   2.508 -0.0966 -0.8003 -0.5245
13172TIP3    H160931   0.301   2.435   2.511 -0.0578 -0.8464 -0.2621
13172TIP3    H260932   0.286   2.285   2.490 -0.2009 -0.6881 -1.3563
13173TIP3   OH260933   0.284   6.549  14.507 -0.0736 -0.3556  0.3058
13173TIP3    H160934   0.311   6.459  14.492  0.9516 -0.3242  1.7829
13173TIP3    H260935   0.190   6.544  14.524  0.0228 -1.1629  0.6107
13174TIP3   OH260936   6.183   0.936  11.506 -0.6121 -0.3727 -0.1595
13174TIP3    H160937   6.143   1.007  11.456 -0.4014  1.4211  2.0554
13174TIP3    H260938   6.132   0.932  11.587 -1.0562 -3.2730 -0.4674
13175TIP3   OH260939   4.357   3.307   3.697 -0.4505  0.2373 -0.2712
13175TIP3    H160940   4.363   3.224   3.744  0.3289  0.1080 -0.5780
13175TIP3    H260941   4.272   3.343   3.722 -0.6429 -0.4838  0.1411
13176TIP3   OH260942   2.176   2.816   1.043 -0.0167 -0.2608  0.0865
13176TIP3    H160943   2.104   2.837   0.984 -1.6223 -1.8774  1.3505
13176TIP3    H260944   2.246   2.784   0.986  0.2952  2.6049 -1.2945
13177TIP3   OH260945   3.287   2.765  14.338 -0.3027 -0.6588 -0.2171
13177TIP3    H160946   3.255   2.794  14.423 -0.5260 -0.7920 -0.2550
13177TIP3    H260947   3.264   2.837  14.278  0.2008 -0.3925 -0.0971
13178TIP3   OH260948   5.086   5.645   3.101  0.2281  0.4485 -0.0312
13178TIP3    H160949   4.994   5.649   3.125  0.6252  0.5021  1.5568
13178TIP3    H260950   5.085   5.626   3.007 -1.3915  1.3176 -0.2283
13179TIP3   OH260951   0.276   2.408  13.046 -0.2515  0.0595 -0.0200
13179TIP3    H160952   0.193   2.369  13.021 -0.3929  1.0197 -1.1800
13179TIP3    H260953   0.290   2.380  13.136 -1.8532 -0.0814  0.2140
13180TIP3   OH260954   0.709   3.802  16.391  0.3269  0.1407 -0.6049
13180TIP3    H160955   0.735   3.724  16.342 -0.0023 -0.9824  0.9162
13180TIP3    H260956   0.618   3.816  16.366  0.7758  0.8664 -1.8981
13181TIP3   OH260957   1.028   5.516  16.683 -0.2122 -0.0432 -0.2295
13181TIP3    H160958   1.120   5.504  16.706 -0.3305  0.9197  0.8400
13181TIP3    H260959   0.998   5.428  16.659  1.0382 -0.3188 -0.8476
13182TIP3   OH260960   1.073   0.090   5.003 -0.3414  0.1151  0.2969
13182TIP3    H160961   1.165   0.090   4.975  0.1309  0.2768  1.7471
13182TIP3    H260962   1.026   0.128   4.930  0.7653  0.1143 -0.4421
13183TIP3   OH260963   4.286   0.399  13.567  0.3213 -0.4780 -0.6773
13183TIP3    H160964   4.287   0.330  13.633  0.9557  0.0514 -0.1159
13183TIP3    H260965   4.378   0.419  13.551  0.1782 -0.6097 -1.7479
13184TIP3   OH260966   5.235   6.044   3.661 -0.4964  0.0967  0.4726
13184TIP3    H160967   5.201   6.066   3.575 -0.4496 -0.5091  0.2952
13184TIP3    H260968   5.200   5.956   3.679 -2.9936  1.3202  2.3478
13185TIP3   OH260969   3.065   0.072  14.293  0.4501  0.5396 -0.7084
13185TIP3    H160970   3.012   0.144  14.261 -0.7614  1.9552  3.7671
13185TIP3    H260971   3.150   0.111  14.314  0.3191  0.3755  0.2117
13186TIP3   OH260972   0.431   3.508   5.530  0.1657  0.1254 -0.5125
13186TIP3    H160973   0.336   3.498   5.535  0.2613 -0.3935  0.5910
13186TIP3    H260974   0.452   3.492   5.438 -0.7161 -0.6878 -0.5884
13187TIP3   OH260975   2.347   5.164   5.539 -0.3750 -0.3790  0.1424
13187TIP3    H160976   2.275   5.133   5.485  0.4100 -1.0677 -0.5385
13187TIP3    H260977   2.374   5.087   5.590 -2.0193  0.5726  2.6462
13188TIP3   OH260978   5.429   5.366   0.955 -0.2785 -0.3998 -0.1971
13188TIP3    H160979   5.346   5.405   0.986 -0.3453  1.1320 -2.0930
13188TIP3    H260980   5.408   5.331   0.869  1.0009 -0.1488 -0.6317
13189TIP3   OH260981   4.687   1.977   6.615  0.4697 -0.2323 -0.3610
13189TIP3    H160982   4.711   2.070   6.608  0.4906 -0.1514  0.6349
13189TIP3    H260983   4.591   1.977   6.618  0.4842 -0.1946  0.1846
13190TIP3   OH260984   6.613   4.955  16.026  0.1448  0.3012  0.1836
13190TIP3    H160985   6.667   5.022  15.985 -0.3436  1.7065  1.7159
13190TIP3    H260986   6.675   4.892  16.062  0.8737  2.1256  2.3243
13191TIP3   OH260987   0.593   1.247   2.774  0.0578  0.4095  0.4824
13191TIP3    H160988   0.608   1.156   2.801 -0.7380  0.1525  0.0905
13191TIP3    H260989   0.544   1.240   2.691 -0.9600  1.1870  0.9924
13192TIP3   OH260990   6.489   3.030   0.297  0.0922  0.3522 -0.2307
13192TIP3    H160991   6.484   3.113   0.345 -1.8130 -0.7136  1.6221
13192TIP3    H260992   6.414   2.979   0.330  0.5729 -1.7057 -2.0719
13193TIP3   OH260993   0.675   2.951  13.401  0.3505 -0.3905 -0.7889
13193TIP3    H160994   0.695   2.874  13.347  0.5539  1.3842 -3.4482
13193TIP3    H260995   0.681   3.025  13.340 -0.7339  1.6651  1.4344
13194TIP3   OH260996   0.016   5.800  12.814 -0.3158 -0.3781 -0.4756
13194TIP3    H160997   0.068   5.880  12.820  1.4821 -1.5828  1.3635
13194TIP3    H260998  -0.069   5.824  12.850  0.2748  0.6614  0.2717
13195TIP3   OH260999   5.408   1.909   0.087 -0.2083 -0.0045  0.0561
13195TIP3    H161000   5.474   1.869   0.145 -0.0879  0.5769  0.3231
13195TIP3    H261001   5.345   1.949   0.146 -0.0367  0.6745 -0.2143
13196TIP3   OH261002   0.827   2.789  15.047  0.7097 -0.1203 -0.1880
13196TIP3    H161003   0.851   2.758  15.134 -0.3837 -0.4262  0.0195
13196TIP3    H261004   0.875   2.732  14.987 -0.0071 -1.1639  0.2040
13197TIP3   OH261005   5.108   1.358  12.916 -0.4744  0.2616 -0.2936
13197TIP3    H161006   5.100   1.355  12.821 -0.6560 -1.3152 -0.2645
13197TIP3    H261007   5.202   1.347  12.933 -0.3353  1.3620 -0.2922
13198TIP3   OH261008   3.049   5.003   5.722  0.0460  0.0263  0.3694
13198TIP3    H161009   3.092   5.082   5.689  1.5592 -1.2245 -0.7809
13198TIP3    H261010   3.102   4.931   5.688 -0.0806 -1.4579  3.0313
13199TIP3   OH261011   3.496   5.368  16.897 -0.2915 -0.2628  0.3237
13199TIP3    H161012   3.407   5.334  16.884 -1.1751  1.2281  1.8865
13199TIP3    H261013   3.541   5.351  16.815 -2.7379  0.9764 -1.4183
13200TIP3   OH261014   1.789   1.072  12.717 -0.2578  0.4225 -0.1574
13200TIP3    H161015   1.784   0.984  12.681 -0.8503  0.4670 -0.1824
13200TIP3    H261016   1.793   1.059  12.812  1.6148  0.2893 -0.2008
13201TIP3   OH261017   1.164   2.960   2.081 -0.4019 -0.1266 -0.7196
13201TIP3    H161018   1.128   3.045   2.109  1.5132  1.1024 -1.8302
13201TIP3    H261019   1.194   2.920   2.163 -0.4878  0.6591 -0.2872
13202TIP3   OH261020   2.821   0.201   0.135 -0.1067  0.2196 -0.3532
13202TIP3    H161021   2.800   0.289   0.166  0.3863 -0.3457  1.7189
13202TIP3    H261022   2.761   0.143   0.182 -0.9259 -0.5430 -2.2243
13203TIP3   OH261023   6.361   4.004  15.430  0.5274 -0.3873 -0.1426
13203TIP3    H161024   6.452   3.990  15.454  0.2587 -1.8112  0.1918
13203TIP3    H261025   6.364   4.056  15.350  1.6791 -1.3384 -0.7399
13204TIP3   OH261026   6.338   4.417   0.459  0.3057  0.2660  0.1919
13204TIP3    H161027   6.433   4.420   0.473  0.3665  0.1886 -0.1913
13204TIP3    H261028   6.312   4.509   0.450  0.1445  0.3708  1.5697
13205TIP3   OH261029   3.737   2.334   0.067 -0.6353 -0.8818 -0.1811
13205TIP3    H161030   3.726   2.425   0.095 -1.1857 -1.5224  1.9164
13205TIP3    H261031   3.800   2.338  -0.004 -0.5351  1.1212 -0.0458
13206TIP3   OH261032   3.789   2.476  16.507 -0.2891 -0.1300  0.7536
13206TIP3    H161033   3.737   2.481  16.427 -1.0039  0.9281  1.2536
13206TIP3    H261034   3.779   2.385  16.536 -0.3615 -0.4138 -0.1214
13207TIP3   OH261035   3.881   5.027  16.199  0.1617 -0.6710 -0.1253
13207TIP3    H161036   3.896   5.086  16.125 -0.4903  0.6086  0.7245
13207TIP3    H261037   3.958   4.971  16.200  0.7813  0.1158 -1.0178
13208TIP3   OH261038   4.255   4.310   2.454 -0.4873  0.2571  0.1046
13208TIP3    H161039   4.247   4.261   2.372  0.9441  1.2081 -0.6378
13208TIP3    H261040   4.348   4.329   2.462 -0.6164  0.2635  1.9280
13209TIP3   OH261041   3.179   4.747   3.111  0.0748 -0.0789 -0.1260
13209TIP3    H161042   3.154   4.718   3.023 -2.1926  1.3474 -0.0257
13209TIP3    H261043   3.148   4.677   3.169  1.4462 -0.9532 -0.4021
13210TIP3   OH261044   1.276   3.937   3.704  0.1496 -0.1064 -0.1600
13210TIP3    H161045   1.342   3.922   3.772  1.1419 -1.5399 -1.3642
13210TIP3    H261046   1.245   3.849   3.681 -0.3108  0.3611 -1.4128
13211TIP3   OH261047   2.637   4.756   0.457 -0.2704 -0.5361 -0.2889
13211TIP3    H161048   2.621   4.709   0.539 -1.0812 -2.0672 -1.2812
13211TIP3    H261049   2.708   4.708   0.415  1.4298  1.3333  0.3003
13212TIP3   OH261050   1.309   2.244  14.362  0.0166  0.2798  0.2945
13212TIP3    H161051   1.254   2.200  14.297  1.4430  0.0268 -0.8032
13212TIP3    H261052   1.366   2.301  14.310  0.9531  0.3403  1.3466
13213TIP3   OH261053   6.239   1.731  11.037  0.5136 -0.1885 -0.0957
13213TIP3    H161054   6.259   1.679  10.959  0.8777  0.8702 -0.7384
13213TIP3    H261055   6.212   1.816  11.002  2.8828  1.0948  0.9324
13214TIP3   OH261056   6.603   0.265  17.056  0.3188 -0.0765  0.3170
13214TIP3    H161057   6.603   0.169  17.055  0.8976 -0.0766 -1.0932
13214TIP3    H261058   6.520   0.289  17.015  0.1324  0.0406  0.7525
13215TIP3   OH261059   6.529   5.656  12.641 -0.7112  0.0233 -0.2927
13215TIP3    H161060   6.502   5.687  12.727 -0.0868  0.7842 -0.3632
13215TIP3    H261061   6.452   5.667  12.586 -1.1497 -0.5769  0.1865
13216TIP3   OH261062   0.617   0.840  11.665 -0.6481 -0.6295  0.1830
13216TIP3    H161063   0.616   0.802  11.577  1.8838  0.6182 -0.5119
13216TIP3    H261064   0.526   0.861  11.683 -1.0378  2.1151 -3.6208
13217TIP3   OH261065   4.472   1.808   5.498 -0.0359 -0.3367  0.8331
13217TIP3    H161066   4.503   1.760   5.574 -0.6650 -0.8781  0.7553
13217TIP3    H261067   4.513   1.895   5.507  0.1568 -0.4946  1.6096
13218TIP3   OH261068   0.399   5.105  16.348 -0.8513  0.5706  0.1122
13218TIP3    H161069   0.360   5.023  16.318  0.2324  0.3651 -0.8211
13218TIP3    H261070   0.430   5.086  16.437 -2.7717  0.7345  0.8619
13219TIP3   OH261071   1.567   3.820  12.381 -0.0996  0.2602  0.3262
13219TIP3    H161072   1.561   3.794  12.288 -1.5059  0.7692  0.2495
13219TIP3    H261073   1.599   3.741  12.425  0.4358 -0.0412 -0.5696
13220TIP3   OH261074   0.842   3.290   4.939  0.1093 -0.0793 -0.0606
13220TIP3    H161075   0.810   3.274   5.028 -0.3309 -0.3479 -0.2597
13220TIP3    H261076   0.776   3.348   4.900 -0.6624 -1.3820 -0.7789
13221TIP3   OH261077   0.680   4.757   6.734 -0.0251 -0.5319  0.4384
13221TIP3    H161078   0.735   4.713   6.798 -0.6108 -0.5371  0.9435
13221TIP3    H261079   0.709   4.722   6.649 -1.2715 -2.8499  0.8820
13222TIP3   OH261080   5.714   5.206   2.024 -0.3558 -0.2220  0.3701
13222TIP3    H161081   5.647   5.272   2.006  0.2206 -0.0236 -1.1258
13222TIP3    H261082   5.766   5.201   1.944  1.1762 -0.6714  1.3557
13223TIP3   OH261083   6.126   4.293   3.942 -0.7750 -0.5748 -0.0104
13223TIP3    H161084   6.151   4.230   4.010 -2.2963  0.6517  1.8083
13223TIP3    H261085   6.051   4.340   3.980 -0.9984  0.9019 -2.1332
13224TIP3   OH261086   2.255   3.747   1.065  0.5164  0.3798 -0.4371
13224TIP3    H161087   2.337   3.779   1.027  0.1850  1.9934  0.1120
13224TIP3    H261088   2.278   3.725   1.155  0.4131  0.5977 -0.3560
13225TIP3   OH261089   4.113   4.354  13.284 -1.0029 -0.0124 -0.1124
13225TIP3    H161090   4.154   4.427  13.330  0.1644 -1.4628  1.2485
13225TIP3    H261091   4.110   4.382  13.192  0.2666  1.3523  0.2382
13226TIP3   OH261092   1.371   4.019   1.805 -0.0853 -0.6354  0.0558
13226TIP3    H161093   1.280   4.048   1.814  0.2025  0.5697 -0.6218
13226TIP3    H261094   1.388   4.021   1.710  1.1865  1.0637  0.2505
13227TIP3   OH261095   1.407   6.343  16.256 -1.0730  0.0255 -0.3334
13227TIP3    H161096   1.314   6.367  16.252 -1.1575 -0.3559 -3.3008
13227TIP3    H261097   1.449   6.401  16.193  0.0214 -2.2752 -1.8729
13228TIP3   OH261098   3.096   0.045   3.728  0.0882  0.0479  1.0263
13228TIP3    H161099   3.021  -0.014   3.740 -0.5494  0.3899 -1.0014
13228TIP3    H261100   3.168  -0.013   3.703 -0.0971 -0.0410  0.6988
13229TIP3   OH261101   0.864   2.882  13.616  0.1486  0.0439  0.3286
13229TIP3    H161102   0.853   2.968  13.656 -0.5972  0.4650 -0.7433
13229TIP3    H261103   0.778   2.859  13.582  0.4516 -0.9082  0.1496
13230TIP3   OH261104   2.238   6.054   3.692  0.2613  0.0303  0.0198
13230TIP3    H161105   2.168   6.048   3.757  0.0488  0.3670 -0.1745
13230TIP3    H261106   2.263   5.963   3.676  2.5569 -0.0127  2.9575
13231TIP3   OH261107   4.867   6.156   5.341  0.2722 -0.4652 -0.4878
13231TIP3    H161108   4.864   6.145   5.436 -0.4104  2.9182  0.0191
13231TIP3    H261109   4.796   6.101   5.308  0.2720 -1.3821  0.9926
13232TIP3   OH261110   4.442   6.011   5.969 -0.1695 -0.3810 -0.0805
13232TIP3    H161111   4.409   6.038   6.055 -1.2812  0.4667 -0.7328
13232TIP3    H261112   4.522   6.062   5.957 -0.3905  0.0358  0.1653
13233TIP3   OH261113   3.596   3.029   1.222  0.0004  0.4005  0.5426
13233TIP3    H161114   3.593   3.040   1.127  0.7339 -0.2778  0.4241
13233TIP3    H261115   3.521   2.973   1.243  0.7089 -0.7363  0.1469
13234TIP3   OH261116   4.682   4.685   4.988 -0.5348  0.1638  0.1763
13234TIP3    H161117   4.774   4.662   4.977 -0.1359  0.0559  3.0372
13234TIP3    H261118   4.654   4.638   5.066 -3.2713 -0.3642 -0.9810
13235TIP3   OH261119   3.236   2.148  14.478 -0.7771  0.2361  0.4621
13235TIP3    H161120   3.245   2.205  14.555  0.5475  0.4219  0.2059
13235TIP3    H261121   3.326   2.121  14.459 -1.1544 -0.2327 -0.7102
13236TIP3   OH261122   4.621   2.954   2.747 -0.2141  0.0247 -0.2426
13236TIP3    H161123   4.531   2.985   2.748 -0.6858 -1.2830  1.6933
13236TIP3    H261124   4.667   3.010   2.810 -0.2135 -0.7609  0.4682
13237TIP3   OH261125   1.078   3.782   1.702 -0.0715 -0.2241  0.6936
13237TIP3    H161126   1.113   3.746   1.783  0.7539 -1.0368 -0.0102
13237TIP3    H261127   1.116   3.728   1.632 -0.0219  1.0300 -0.2951
13238TIP3   OH261128   6.304   5.251   4.153  0.4836 -0.2169  0.3707
13238TIP3    H161129   6.236   5.302   4.108 -0.2458 -1.9557 -0.6127
13238TIP3    H261130   6.306   5.286   4.242 -0.5226  0.9833 -0.0503
13239TIP3   OH261131   4.745   6.637   2.642  1.0720  0.8804 -0.3236
13239TIP3    H161132   4.661   6.657   2.684  0.0071 -0.5408 -1.6782
13239TIP3    H261133   4.796   6.592   2.709  0.0664  0.1937  0.0029
13240TIP3   OH261134   4.059   4.638  14.849 -0.2813 -0.2737  0.5792
13240TIP3    H161135   4.142   4.677  14.875  0.7018 -1.2888 -0.8662
13240TIP3    H261136   4.083   4.552  14.813 -1.5303  0.6383 -2.7913
13241TIP3   OH261137   2.130   6.608  15.247 -0.1769  0.1075  0.1979
13241TIP3    H161138   2.216   6.639  15.218 -0.5734  0.3556 -0.7220
13241TIP3    H261139   2.095   6.559  15.173 -1.2559  0.8596  0.1863
13242TIP3   OH261140   3.484   1.395   4.912 -0.0821  0.2989  0.4751
13242TIP3    H161141   3.398   1.438   4.917 -0.2987 -0.1950  1.0995
13242TIP3    H261142   3.489   1.343   4.992  2.0686  2.6560  2.0435
13243TIP3   OH261143   3.113   3.710   1.765  0.0237 -0.3641 -0.7494
13243TIP3    H161144   3.031   3.718   1.813 -0.1645 -0.9806 -0.9470
13243TIP3    H261145   3.088   3.726   1.674  0.3168  0.4692 -0.6925
13244TIP3   OH261146   4.788   4.434  13.148  0.3194  0.8373 -0.1033
13244TIP3    H161147   4.731   4.454  13.221 -0.3862  1.9294 -0.9163
13244TIP3    H261148   4.855   4.375  13.184 -0.8197  0.2226  1.0516
13245TIP3   OH261149   4.838   5.684  16.189  0.2009 -0.4657 -0.1418
13245TIP3    H161150   4.779   5.751  16.154  0.7119  1.0750  1.7865
13245TIP3    H261151   4.831   5.612  16.127 -3.4412 -0.2496 -0.1927
13246TIP3   OH261152   2.082   2.411  13.847 -0.2138  0.0619  0.0322
13246TIP3    H161153   2.097   2.431  13.940  0.7032 -0.3403 -0.0178
13246TIP3    H261154   2.169   2.410  13.808 -0.5850  0.1494 -0.8277
13247TIP3   OH261155   6.334   6.340   0.210  0.3542  0.2095 -0.2942
13247TIP3    H161156   6.375   6.406   0.266 -2.9976  2.6891 -0.4294
13247TIP3    H261157   6.381   6.347   0.127  1.7814  0.4700  0.4967
13248TIP3   OH261158   4.106   3.220  12.075 -0.0535  0.0889  0.0371
13248TIP3    H161159   4.165   3.165  12.023  0.3484 -0.9629  1.5520
13248TIP3    H261160   4.156   3.241  12.154 -0.5811  1.8080 -0.0459
13249TIP3   OH261161   5.602   2.730  11.498  0.4630  0.2341  0.2260
13249TIP3    H161162   5.659   2.655  11.480 -0.0785  0.0759 -0.9081
13249TIP3    H261163   5.559   2.708  11.581  0.0169 -0.9029 -0.2900
13250TIP3   OH261164   1.818   4.781  13.001 -0.1834  0.0157  0.4393
13250TIP3    H161165   1.793   4.870  12.976  2.0684  0.1552 -1.6179
13250TIP3    H261166   1.736   4.731  12.996 -1.0272  1.4409 -0.9149
13251TIP3   OH261167   6.206   3.548  12.441 -0.4755  0.5410 -0.3268
13251TIP3    H161168   6.278   3.575  12.384 -0.1524  1.5145  0.4964
13251TIP3    H261169   6.249   3.496  12.510 -0.6009  0.8261 -0.0281
13252TIP3   OH261170   6.300   1.064   2.508  0.3788 -0.1701  0.4570
13252TIP3    H161171   6.289   1.002   2.435 -2.1123 -0.2896  0.8487
13252TIP3    H261172   6.365   1.127   2.476 -1.7973  0.7620 -2.6085
13253TIP3   OH261173   2.015   0.357   0.861  0.1959  0.0924 -0.3700
13253TIP3    H161174   2.072   0.366   0.937 -0.7576 -1.0412  0.5401
13253TIP3    H261175   1.926   0.355   0.898 -0.5640  2.8413 -1.8188
13254TIP3   OH261176   5.927   6.286   5.494  0.0302  0.5059 -0.1154
13254TIP3    H161177   5.872   6.256   5.565  0.6918  0.4791  0.3940
13254TIP3    H261178   5.914   6.381   5.491  1.3729  0.7724  1.2554
13255TIP3   OH261179   3.798   5.641  16.706 -0.2641  0.2985 -0.2669
13255TIP3    H161180   3.725   5.697  16.735  1.1141  0.7486  2.7249
13255TIP3    H261181   3.813   5.581  16.780  1.2528 -0.9946 -1.5461
13256TIP3   OH261182   5.666   1.449   2.378  0.4475  0.3743  0.2546
13256TIP3    H161183   5.701   1.536   2.358  0.4135  0.7238  1.6171
13256TIP3    H261184   5.718   1.389   2.324  1.2040  1.1503  0.1003
13257TIP3   OH261185   0.222   5.013   1.277  0.3665 -0.6580  0.3034
13257TIP3    H161186   0.283   5.004   1.203  0.3602 -0.3442  0.2613
13257TIP3    H261187   0.255   4.950   1.342  1.0168 -0.1556  0.4699
13258TIP3   OH261188   0.606   5.125   2.812 -0.2096 -0.2307 -0.4866
13258TIP3    H161189   0.666   5.061   2.775 -0.0353 -0.1342 -0.3710
13258TIP3    H261190   0.637   5.139   2.902 -0.3409 -0.1020 -0.4600
13259TIP3   OH261191   1.517   0.558  11.812  0.4787  0.2185  0.4596
13259TIP3    H161192   1.435   0.513  11.792  0.5907 -1.1569  2.7474
13259TIP3    H261193   1.496   0.651  11.803  0.2343 -0.0886 -4.3184
13260TIP3   OH261194   3.380   5.789  11.938  0.2723 -0.3683 -0.9328
13260TIP3    H161195   3.314   5.776  12.007  0.7094  0.4451 -0.3434
13260TIP3    H261196   3.440   5.854  11.975  1.3595 -1.0188 -1.4945
13261TIP3   OH261197   6.705   0.679  10.329 -0.5037  0.0125  0.1611
13261TIP3    H161198   6.612   0.690  10.309 -0.5506  0.3900  0.5513
13261TIP3    H261199   6.737   0.768  10.345  0.0647 -0.0548 -0.5542
13262TIP3   OH261200   1.111   2.872   3.901 -0.6200 -0.2657  0.1347
13262TIP3    H161201   1.034   2.842   3.853  0.0303 -1.0326 -0.4785
13262TIP3    H261202   1.152   2.936   3.843 -1.0565  0.5165  0.6785
13263TIP3   OH261203   0.703   1.404   5.092 -0.6607  0.1119 -0.2139
13263TIP3    H161204   0.652   1.410   5.173 -1.6648  2.3179 -0.9376
13263TIP3    H261205   0.671   1.324   5.050 -0.7353 -0.5984  1.1411
13264TIP3   OH261206   2.445   0.569   2.685  0.4735  0.1724 -0.4953
13264TIP3    H161207   2.520   0.586   2.628  0.3087  0.0403 -0.7545
13264TIP3    H261208   2.379   0.633   2.659  1.2287  1.7111  1.1541
13265TIP3   OH261209   0.819   4.144   3.639  0.3625  0.0258  0.2298
13265TIP3    H161210   0.839   4.213   3.703  1.3828  0.0705 -0.1162
13265TIP3    H261211   0.900   4.134   3.588 -0.4569  0.0729 -1.1366
13266TIP3   OH261212   5.014   6.050   3.292  0.2327 -0.1975  0.5283
13266TIP3    H161213   4.999   6.131   3.243  2.3621  0.5521  0.9864
13266TIP3    H261214   5.108   6.032   3.279  0.1322 -1.7511  1.7020
13267TIP3   OH261215   2.169   4.764  16.121  0.3266  0.1898  0.2333
13267TIP3    H161216   2.142   4.785  16.211 -1.1763 -1.6983  0.2888
13267TIP3    H261217   2.232   4.833  16.098  1.7277  0.0602  3.1783
13268TIP3   OH261218   0.649   6.604  10.886 -0.0749  0.0415  0.4784
13268TIP3    H161219   0.599   6.680  10.857  0.5667  1.1125  2.0646
13268TIP3    H261220   0.604   6.529  10.846 -2.3149  1.0296  0.9956
13269TIP3   OH261221   4.006   5.546  13.326  0.2886 -0.7859 -0.1753
13269TIP3    H161222   4.064   5.598  13.270 -1.3028  0.5527 -0.6960
13269TIP3    H261223   4.056   5.530  13.405  1.4676  0.0603 -0.7191
13270TIP3   OH261224   2.880   0.820   4.395 -0.1115  0.1271  0.0291
13270TIP3    H161225   2.909   0.733   4.423 -0.5620  0.3632  1.2889
13270TIP3    H261226   2.915   0.829   4.307  0.2051 -1.2119 -0.0111
13271TIP3   OH261227   0.910   4.607  13.034  0.2582  0.2223  0.2148
13271TIP3    H161228   0.821   4.641  13.030  0.4322  0.9297  1.6988
13271TIP3    H261229   0.966   4.684  13.020  0.6411 -0.1391 -0.2692
13272TIP3   OH261230   1.756   3.452   2.290  0.3173  0.4594 -0.0188
13272TIP3    H161231   1.767   3.363   2.259  0.0668 -0.1692  1.5695
13272TIP3    H261232   1.665   3.455   2.323  0.0531  1.5439 -0.7822
13273TIP3   OH261233   6.129   4.269  13.470 -0.4306  0.0155 -0.5511
13273TIP3    H161234   6.145   4.320  13.549  0.3878  1.4340 -1.5745
13273TIP3    H261235   6.085   4.330  13.411  0.5054 -0.4722 -1.7902
13274TIP3   OH261236   5.356   0.509   3.559 -0.1314 -0.7620  0.3552
13274TIP3    H161237   5.320   0.445   3.498 -0.6326  0.2635 -0.4463
13274TIP3    H261238   5.280   0.550   3.599  0.1917 -1.1924  1.4533
13275TIP3   OH261239   4.715   4.533   0.526  0.4630  0.0333 -0.8563
13275TIP3    H161240   4.769   4.462   0.492  2.3734  1.3585 -0.7282
13275TIP3    H261241   4.711   4.518   0.620 -1.1960 -1.2236 -1.0929
13276TIP3   OH261242   1.488   2.165   2.199  0.1238  0.0581 -0.3639
13276TIP3    H161243   1.454   2.161   2.289  0.7236  2.3636  0.0337
13276TIP3    H261244   1.421   2.213   2.150  0.9955  1.2291 -0.4661
13277TIP3   OH261245   0.308   1.265   1.718  0.1818  0.2180  0.3542
13277TIP3    H161246   0.327   1.264   1.625  2.0083 -0.3607  0.7055
13277TIP3    H261247   0.232   1.324   1.726  0.3992  0.7936 -1.3965
13278TIP3   OH261248   1.202   4.290  12.046  0.4846  0.3810  0.6082
13278TIP3    H161249   1.114   4.255  12.032  0.9222 -0.8442  0.8131
13278TIP3    H261250   1.189   4.368  12.101 -0.5651  0.9341 -0.3838
13279TIP3   OH261251   1.238   1.145   2.315  0.8967  0.1855 -0.1957
13279TIP3    H161252   1.229   1.212   2.248  0.7856  0.2049 -0.1625
13279TIP3    H261253   1.287   1.075   2.273 -0.1134 -0.2663 -0.6427
13280TIP3   OH261254   5.251   1.699  16.382 -0.4167 -0.1106 -0.9329
13280TIP3    H161255   5.229   1.735  16.468  1.1442 -0.3249 -0.4180
13280TIP3    H261256   5.289   1.613  16.400  0.4385  0.0639 -1.7829
13281TIP3   OH261257   3.785   4.234   2.470 -0.0539  0.0083 -0.3235
13281TIP3    H161258   3.845   4.161   2.477 -0.3380 -0.1464  0.6387
13281TIP3    H261259   3.709   4.198   2.423 -0.0136 -0.2005 -0.2303
13282TIP3   OH261260   1.933   0.451  16.705  0.1082 -0.4666  0.3223
13282TIP3    H161261   1.980   0.390  16.762  0.1890 -1.9696 -1.2477
13282TIP3    H261262   2.000   0.484  16.645 -0.2867 -0.2833 -0.0224
13283TIP3   OH261263   1.524   4.538   1.141 -0.6352  0.1037 -0.1783
13283TIP3    H161264   1.469   4.571   1.211 -0.8528 -0.1881 -0.2088
13283TIP3    H261265   1.506   4.444   1.139 -0.8911  0.1600 -0.8458
13284TIP3   OH261266   1.959   0.681  15.559  0.6878 -0.4419 -0.5930
13284TIP3    H161267   1.921   0.626  15.627  0.7167  0.0589 -0.1621
13284TIP3    H261268   2.049   0.696  15.589  1.6052 -2.4378 -2.0853
13285TIP3   OH261269   3.894   4.800  11.808  1.3026 -0.0414  0.0988
13285TIP3    H161270   3.814   4.833  11.766  0.4469 -2.6816 -0.5690
13285TIP3    H261271   3.960   4.803  11.740  1.6562  1.5863  0.4781
13286TIP3   OH261272   6.630   1.231  13.088  0.2097 -0.6121 -0.4894
13286TIP3    H161273   6.691   1.174  13.041  1.3663  0.0986  0.0967
13286TIP3    H261274   6.561   1.172  13.120  0.9585 -1.5530 -0.5751
13287TIP3   OH261275   3.559   0.487   2.815  0.0099  0.5091 -0.4856
13287TIP3    H161276   3.564   0.420   2.746 -0.4091  0.8697 -0.8638
13287TIP3    H261277   3.469   0.484   2.845  0.2549  0.1750  0.2335
13288TIP3   OH261278   1.970   1.277  12.669 -0.3290 -0.3695  0.6689
13288TIP3    H161279   1.949   1.185  12.678  0.3285 -0.7562 -1.2328
13288TIP3    H261280   2.066   1.281  12.675 -0.2362 -0.0391 -0.7146
13289TIP3   OH261281   2.591   2.265   4.926  0.4545 -0.0670 -0.5785
13289TIP3    H161282   2.595   2.195   4.860 -0.7967 -1.6590  0.9111
13289TIP3    H261283   2.621   2.223   5.007  0.3925  1.3530  0.2100
13290TIP3   OH261284   0.619   0.085   5.560 -0.4718 -0.3163 -0.0714
13290TIP3    H161285   0.713   0.094   5.577 -0.7827  0.5877  1.3952
13290TIP3    H261286   0.597   0.000   5.599  0.0266 -1.3906 -2.0116
13291TIP3   OH261287   0.501   0.743  14.981  0.2553 -0.6479  0.3004
13291TIP3    H161288   0.588   0.718  15.012  1.1257  0.7944 -0.8109
13291TIP3    H261289   0.489   0.832  15.014 -0.0424 -0.1964 -0.9512
13292TIP3   OH261290   4.076   3.854   2.622  0.1291  0.0880 -0.0142
13292TIP3    H161291   4.045   3.917   2.686 -0.9969 -0.0493 -0.4004
13292TIP3    H261292   4.025   3.872   2.543  0.6984 -0.4680 -0.5253
13293TIP3   OH261293   3.949   6.690   4.033 -0.1200 -0.1337  0.1160
13293TIP3    H161294   3.898   6.758   3.989  0.4616 -0.9569 -1.9267
13293TIP3    H261295   4.039   6.706   4.004  0.1976 -1.0502  0.5794
13294TIP3   OH261296   0.133   2.049   5.919 -0.1863  0.5867 -0.4416
13294TIP3    H161297   0.157   2.120   5.978  0.7912  0.2634 -0.4334
13294TIP3    H261298   0.113   2.093   5.836 -2.8629  1.1673  0.4448
13295TIP3   OH261299   2.951   3.515   2.517 -0.3802 -0.0266 -0.1244
13295TIP3    H161300   2.976   3.591   2.465 -0.2771 -0.6546 -1.0174
13295TIP3    H261301   3.012   3.516   2.591  0.6675 -0.1155 -0.9534
13296TIP3   OH261302   5.838   4.576   3.927 -0.5525 -0.6867 -0.0962
13296TIP3    H161303   5.845   4.490   3.969 -0.3670 -1.1394 -1.0231
13296TIP3    H261304   5.802   4.633   3.994  0.9457 -1.0837  1.0878
13297TIP3   OH261305   2.439   0.381  11.439  0.1544  0.3111  0.3101
13297TIP3    H161306   2.479   0.464  11.465  0.7627  0.2833 -0.4869
13297TIP3    H261307   2.506   0.315  11.456 -0.1243  0.0518  0.4189
13298TIP3   OH261308   3.872   6.680  13.683 -0.1185 -0.1105 -0.0351
13298TIP3    H161309   3.885   6.719  13.770  2.9214  2.0015 -1.2712
13298TIP3    H261310   3.802   6.732  13.644 -0.5324 -0.1569  0.6288
13299TIP3   OH261311   6.432   1.161   4.494  0.5464 -0.4629 -0.0033
13299TIP3    H161312   6.393   1.111   4.422 -0.4757  1.0937 -0.5976
13299TIP3    H261313   6.399   1.118   4.573 -0.3898 -0.6840 -0.4900
13300TIP3   OH261314   6.486   1.121   0.987  0.0756 -0.4071  0.2495
13300TIP3    H161315   6.529   1.095   1.069  1.9442  0.9724 -0.2299
13300TIP3    H261316   6.468   1.038   0.943  1.2306 -1.1045  1.0136
13301TIP3   OH261317   1.687   3.512   5.427  0.0403 -0.1083 -0.2477
13301TIP3    H161318   1.620   3.446   5.408  0.5878 -0.6349 -0.3986
13301TIP3    H261319   1.770   3.463   5.427  0.4373  0.5447 -0.1560
13302TIP3   OH261320   4.678   2.838  11.940 -0.8149  0.0144 -0.2027
13302TIP3    H161321   4.723   2.871  11.862  0.5179  0.8052  0.8583
13302TIP3    H261322   4.614   2.906  11.961 -0.0453  0.5950  0.3189
13303TIP3   OH261323   4.010   0.447  14.491  0.5742  0.1839 -0.0220
13303TIP3    H161324   3.926   0.416  14.523  1.1706 -0.8134  0.6465
13303TIP3    H261325   4.032   0.521  14.548  0.8410 -0.5226  0.8282
13304TIP3   OH261326   6.504   2.742  15.219  0.3099  0.1044  0.2259
13304TIP3    H161327   6.589   2.785  15.233  0.5336 -0.4330  0.5643
13304TIP3    H261328   6.515   2.655  15.256 -0.3239 -0.0494  0.0669
13305TIP3   OH261329   3.855   3.980   1.280 -0.1051  0.3426 -0.7756
13305TIP3    H161330   3.859   4.029   1.362  0.1533 -1.9314  0.6476
13305TIP3    H261331   3.944   3.984   1.245 -0.4513  2.2106 -1.5628
13306TIP3   OH261332   6.265   0.478  12.011  0.5377  0.4734 -0.2669
13306TIP3    H161333   6.198   0.507  11.949  0.1983 -1.4658 -0.8793
13306TIP3    H261334   6.230   0.501  12.097  0.5066  2.1884 -0.6854
13307TIP3   OH261335   4.849   4.617  16.183  0.2568 -0.2656 -0.1711
13307TIP3    H161336   4.929   4.596  16.135  0.0698  0.4551 -0.8128
13307TIP3    H261337   4.879   4.671  16.256  0.1325  2.0981 -1.7829
13308TIP3   OH261338   0.312   2.126  16.021  0.3936 -0.4011  0.3905
13308TIP3    H161339   0.353   2.049  16.061 -0.1131  0.7624  3.4532
13308TIP3    H261340   0.364   2.143  15.943  0.8230 -3.5216 -0.1658
13309TIP3   OH261341   5.858   3.191   6.088  0.0297  0.3312  0.0031
13309TIP3    H161342   5.847   3.286   6.090 -2.3104  0.0949  0.1393
13309TIP3    H261343   5.770   3.155   6.097  0.8437 -1.8752 -0.0682
13310TIP3   OH261344   3.921   6.448   0.115  0.4963 -0.0719 -0.0040
13310TIP3    H161345   3.884   6.521   0.065  0.9666 -0.2234 -0.5900
13310TIP3    H261346   3.940   6.485   0.201  1.2814  0.6575 -0.4771
13311TIP3   OH261347   4.674   4.494   0.813  0.2487 -0.3929  0.6075
13311TIP3    H161348   4.583   4.520   0.831  0.2836  2.3675 -2.2969
13311TIP3    H261349   4.711   4.478   0.900 -2.1522  1.6209  2.1684
13312TIP3   OH261350   4.587   6.018   2.500  0.3292 -0.3101 -0.0345
13312TIP3    H161351   4.548   5.957   2.564  3.3705  0.4527  2.8453
13312TIP3    H261352   4.523   6.089   2.493 -0.3848 -0.7231  1.7280
13313TIP3   OH261353   4.170   5.459  13.974  0.0101 -0.6721  0.3651
13313TIP3    H161354   4.203   5.465  13.884 -1.3963  1.9709 -0.0733
13313TIP3    H261355   4.217   5.528  14.021 -0.3591 -1.0332  1.2736
13314TIP3   OH261356   3.091   4.927  13.641  0.3112 -0.3921  0.3459
13314TIP3    H161357   3.104   4.983  13.717 -0.4226 -0.6662  0.6818
13314TIP3    H261358   3.133   4.844  13.664  1.4450  0.0177 -0.1716
13315TIP3   OH261359   6.729   6.045  12.945  0.0888 -0.2963 -0.2110
13315TIP3    H161360   6.807   6.094  12.971  0.7399 -1.5433  0.2679
13315TIP3    H261361   6.688   6.100  12.877  0.7935  0.8743  0.2728
13316TIP3   OH261362   6.393   2.170  15.409  0.3026 -0.2032 -0.4266
13316TIP3    H161363   6.397   2.087  15.456  3.3654  0.1076  0.0489
13316TIP3    H261364   6.417   2.149  15.319 -0.2559 -0.0112 -0.6273
13317TIP3   OH261365   3.150   6.649   2.345 -0.0443  0.4398  0.1820
13317TIP3    H161366   3.113   6.607   2.422  0.8198  0.0247  0.3917
13317TIP3    H261367   3.082   6.644   2.278 -0.7629  0.7203  0.8884
13318TIP3   OH261368   0.176   0.882  10.529 -0.6292 -0.3924 -0.1035
13318TIP3    H161369   0.270   0.899  10.531 -0.8487  0.8397  1.1290
13318TIP3    H261370   0.139   0.956  10.479 -0.9142 -1.1356 -1.0302
13319TIP3   OH261371   1.827   6.420  15.105  0.1846 -0.2500  0.4393
13319TIP3    H161372   1.894   6.443  15.041 -0.5371  0.9441  0.0713
13319TIP3    H261373   1.819   6.325  15.099  0.0559 -0.1617 -1.3359
13320TIP3   OH261374   1.885   4.629  13.213  0.5237 -0.0141  0.4081
13320TIP3    H161375   1.876   4.688  13.139  0.4699 -0.6377 -0.0903
13320TIP3    H261376   1.957   4.570  13.189 -0.5724 -1.2800  0.1035
13321TIP3   OH261377   2.412   1.070   1.677 -0.1803 -0.2510 -0.1751
13321TIP3    H161378   2.458   1.047   1.597 -0.9498 -0.0527 -0.6782
13321TIP3    H261379   2.449   1.154   1.703  0.8669 -0.8397  0.3101
13322TIP3   OH261380   2.459   5.235   5.847  0.1027  0.0902 -0.7518
13322TIP3    H161381   2.367   5.243   5.825 -0.2672 -0.0138  0.6371
13322TIP3    H261382   2.473   5.142   5.862  0.9108 -0.1567 -2.7799
13323TIP3   OH261383   2.375   1.717  16.277 -0.0178 -0.2282 -0.0412
13323TIP3    H161384   2.359   1.628  16.244  1.1250 -0.3179 -0.4031
13323TIP3    H261385   2.382   1.771  16.198  1.1690 -0.1618  0.0903
13324TIP3   OH261386   4.639   3.485   3.166  0.4272 -0.2850  0.2853
13324TIP3    H161387   4.574   3.524   3.226  0.5410  0.2148  0.0885
13324TIP3    H261388   4.593   3.478   3.083  0.6985  0.2993  0.0817
13325TIP3   OH261389   0.891   1.418   3.421  0.0513  0.0049  0.1093
13325TIP3    H161390   0.927   1.507   3.424 -1.9619  0.9671 -1.2936
13325TIP3    H261391   0.911   1.388   3.332  1.6318 -1.4356  0.8893
13326TIP3   OH261392   2.577   5.813  13.870  0.7563  0.1655 -0.6045
13326TIP3    H161393   2.512   5.743  13.863 -0.8880  1.6003 -0.1807
13326TIP3    H261394   2.613   5.821  13.781  1.0570 -1.2584 -0.6344
13327TIP3   OH261395   2.997   2.033  11.609 -0.0889 -0.2643 -0.4282
13327TIP3    H161396   2.908   2.036  11.574 -1.1968 -2.1416  1.9701
13327TIP3    H261397   3.003   2.111  11.665 -0.0386  0.1017 -0.9330
13328TIP3   OH261398   4.923   2.243  13.023  0.1771 -0.2100 -0.3413
13328TIP3    H161399   4.834   2.255  12.990  0.4993 -1.3580 -1.7092
13328TIP3    H261400   4.969   2.324  12.999 -0.4542  0.3527  0.3034
13329TIP3   OH261401   4.325   3.866  13.254 -0.2788 -0.7358  0.8293
13329TIP3    H161402   4.250   3.820  13.216 -0.2649 -1.1492  1.2760
13329TIP3    H261403   4.365   3.800  13.312  0.0996 -0.3441  1.0131
13330TIP3   OH261404   5.829   1.313  12.273 -0.4601 -0.4855  0.1480
13330TIP3    H161405   5.893   1.322  12.344 -0.9616 -0.6145  0.6256
13330TIP3    H261406   5.818   1.402  12.240 -0.7729 -0.3013  0.7290
13331TIP3   OH261407   4.308   0.401  17.047  0.4987 -0.2680 -0.2146
13331TIP3    H161408   4.308   0.452  17.129 -0.1650 -0.7731  0.1032
13331TIP3    H261409   4.220   0.364  17.041  0.6074 -0.4143 -1.0539
13332TIP3   OH261410   3.473   3.809   3.214  0.3776  0.0848 -0.8310
13332TIP3    H161411   3.454   3.884   3.270  1.2626 -0.8994  0.8512
13332TIP3    H261412   3.521   3.845   3.140 -0.8163  1.4188 -0.9859
13333TIP3   OH261413   3.246   4.408  17.150 -0.1768 -0.1407  0.0606
13333TIP3    H161414   3.184   4.367  17.090  0.4100 -0.4129 -0.3729
13333TIP3    H261415   3.200   4.412  17.233 -0.3736 -1.4225  0.0453
13334TIP3   OH261416   3.107   3.802   0.665  0.0687 -0.3978  0.3799
13334TIP3    H161417   3.167   3.866   0.626 -0.5918 -0.3137 -0.5479
13334TIP3    H261418   3.071   3.848   0.741 -1.9401  1.2093 -1.4003
13335TIP3   OH261419   1.339   3.991   5.394 -0.0903 -0.5209  0.3494
13335TIP3    H161420   1.299   3.948   5.319  1.0811  0.9505 -1.1924
13335TIP3    H261421   1.326   4.084   5.378  0.0367 -0.1574  2.0982
13336TIP3   OH261422   5.976   5.866  11.042  0.2711 -0.1425  0.0745
13336TIP3    H161423   5.906   5.892  10.982  0.0459 -0.1594  0.3253
13336TIP3    H261424   5.941   5.886  11.129  0.4984 -0.3407  0.2106
13337TIP3   OH261425   3.755   6.012  15.711  0.7571  0.0203 -0.0166
13337TIP3    H161426   3.736   6.099  15.746 -0.0863 -0.6026  1.1357
13337TIP3    H261427   3.696   6.004  15.636  0.0258  0.0215  0.5472
13338TIP3   OH261428   0.081   4.957  16.520 -0.1849  0.3464  0.4507
13338TIP3    H161429   0.002   4.940  16.469 -0.0274  2.3969 -0.5738
13338TIP3    H261430   0.153   4.953  16.456  0.5950 -1.4786  1.3594
13339TIP3   OH261431   0.935   0.067  10.399 -0.4475 -0.8423 -0.6916
13339TIP3    H161432   1.024   0.103  10.396 -0.5281 -0.7006 -1.3346
13339TIP3    H261433   0.948  -0.028  10.406 -0.2424 -0.7564  0.4313
13340TIP3   OH261434   3.978   5.330   0.642  0.3436  0.6184  0.7485
13340TIP3    H161435   3.988   5.288   0.556 -1.3079  1.3108  0.1716
13340TIP3    H261436   3.999   5.261   0.704 -1.1613 -0.7635 -0.1959
13341TIP3   OH261437   1.473   5.132   3.342  0.3552  0.5074  0.9006
13341TIP3    H161438   1.456   5.225   3.358 -0.6855  0.5400 -0.2094
13341TIP3    H261439   1.464   5.123   3.247  0.1508 -0.7760  1.0262
13342TIP3   OH261440   2.510   4.643   2.290 -0.0395 -0.4648 -0.0263
13342TIP3    H161441   2.583   4.611   2.342 -0.1815  0.2540  0.6370
13342TIP3    H261442   2.534   4.622   2.199 -0.1569 -2.4649  0.3526
13343TIP3   OH261443   5.657   0.240   0.072  0.7042 -0.0625 -0.4232
13343TIP3    H161444   5.747   0.207   0.070  0.5217 -0.7507  0.9153
13343TIP3    H261445   5.605   0.170   0.033  0.8474  0.8482 -2.3473
13344TIP3   OH261446   0.404   6.370   0.683 -0.1922  0.3200  0.1695
13344TIP3    H161447   0.410   6.277   0.663 -0.6793 -0.2360  2.3105
13344TIP3    H261448   0.491   6.405   0.664 -0.1340 -0.4663 -1.0696
13345TIP3   OH261449   0.033   3.773   4.396 -1.2260  0.1336  0.5454
13345TIP3    H161450   0.046   3.680   4.411 -1.9079  0.1136  1.0305
13345TIP3    H261451   0.006   3.808   4.481  1.3440  1.2130  1.0184
13346TIP3   OH261452   3.040   1.628   0.113 -0.2569 -0.4930 -0.0972
13346TIP3    H161453   2.968   1.649   0.053  0.3153 -2.0406 -1.4172
13346TIP3    H261454   3.026   1.535   0.135  1.6622 -1.0252 -0.9199
13347TIP3   OH261455   4.418   2.912   2.979  0.0238 -0.5902 -0.1450
13347TIP3    H161456   4.418   2.892   2.885  0.5518 -0.1602 -0.2414
13347TIP3    H261457   4.365   2.991   2.986  1.1450  0.1949 -0.2740
13348TIP3   OH261458   3.422   6.023   3.163 -0.2053  0.5685 -0.0066
13348TIP3    H161459   3.439   5.963   3.236  3.4314  2.2796  0.7816
13348TIP3    H261460   3.471   5.986   3.090  0.5760  1.5870 -0.0190
13349TIP3   OH261461   5.018   1.325   4.582 -0.5473 -0.2269 -0.3384
13349TIP3    H161462   4.932   1.322   4.540 -0.4828 -0.5690 -0.4418
13349TIP3    H261463   5.066   1.252   4.545  0.2420  0.7103 -1.2407
13350TIP3   OH261464   2.257   4.243  13.816  0.8652 -0.6700  0.0705
13350TIP3    H161465   2.321   4.305  13.851 -0.9958  0.4137  1.8201
13350TIP3    H261466   2.252   4.174  13.882  0.7934 -1.1445 -0.4307
13351TIP3   OH261467   0.638   4.724   3.436 -0.0894  0.6431  0.3189
13351TIP3    H161468   0.692   4.796   3.468  0.6666 -0.5492  1.8480
13351TIP3    H261469   0.563   4.767   3.395  1.4105  2.3264 -0.8258
13352TIP3   OH261470   3.533   5.394  15.448 -0.3962  0.6259  0.3346
13352TIP3    H161471   3.505   5.416  15.537  1.0489  0.0048  0.9863
13352TIP3    H261472   3.545   5.479  15.405 -3.7064  0.9336 -0.2065
13353TIP3   OH261473   1.329   3.484  15.644  0.4803 -0.4054  0.1190
13353TIP3    H161474   1.300   3.428  15.716 -0.1213 -0.6063 -0.2731
13353TIP3    H261475   1.323   3.429  15.567 -2.7566  0.8946 -0.7419
13354TIP3   OH261476   1.585   4.974   3.869 -0.4816  0.3217  0.4528
13354TIP3    H161477   1.584   4.987   3.774 -0.4041  0.7657  0.5105
13354TIP3    H261478   1.539   5.051   3.904  0.0036  0.4529  0.8074
13355TIP3   OH261479   4.992   3.511  15.667 -0.6404 -0.0984 -0.8547
13355TIP3    H161480   5.052   3.449  15.626  0.3038 -0.9268  1.5747
13355TIP3    H261481   5.042   3.592  15.675  0.4156 -0.8915  1.4979
13356TIP3   OH261482   3.679   2.560   0.896  0.2471 -0.1995 -0.1004
13356TIP3    H161483   3.692   2.553   0.802  3.6434  0.9333  0.1423
13356TIP3    H261484   3.710   2.476   0.931  0.0243 -0.2080  0.0834
13357TIP3   OH261485   1.677   2.838   2.840  0.0811 -0.2068  0.8549
13357TIP3    H161486   1.614   2.909   2.840 -0.2017 -0.4169  2.6506
13357TIP3    H261487   1.696   2.822   2.747 -0.4743  1.6237  0.3994
13358TIP3   OH261488   6.533   1.901   2.634  0.3877 -0.3176  0.2504
13358TIP3    H161489   6.526   1.892   2.539  0.7446 -3.5513  0.4074
13358TIP3    H261490   6.482   1.828   2.669 -0.7363  1.4649  2.6505
13359TIP3   OH261491   4.967   1.240  12.562  0.3790  0.1753 -0.8101
13359TIP3    H161492   4.898   1.199  12.615  0.5116 -0.2918 -0.9873
13359TIP3    H261493   4.945   1.333  12.561 -0.7661 -0.0780 -1.6033
13360TIP3   OH261494   6.210   6.019   0.411  0.0202  0.6586 -0.0721
13360TIP3    H161495   6.239   6.028   0.502  0.0340  0.1686 -0.0257
13360TIP3    H261496   6.189   5.926   0.402 -0.2845  0.7644 -0.4805
13361TIP3   OH261497   5.936   6.727   5.865  0.1956  0.6896  0.3458
13361TIP3    H161498   5.916   6.764   5.779 -2.9955 -0.1055  0.6366
13361TIP3    H261499   5.885   6.780   5.926  0.9568  0.0578  1.5644
13362TIP3   OH261500   3.272   4.315  13.595 -0.2140 -0.2726 -0.2835
13362TIP3    H161501   3.363   4.292  13.613  0.0836  0.7572 -0.4099
13362TIP3    H261502   3.277   4.381  13.526 -1.0951 -0.6796 -0.7591
13363TIP3   OH261503   1.015   3.947   4.164  0.4920  0.7675 -0.1753
13363TIP3    H161504   1.035   4.015   4.100  2.6792  2.4662  2.1496
13363TIP3    H261505   1.099   3.922   4.201 -0.7093  0.4008  2.5716
13364TIP3   OH261506   1.311   4.797   1.761  0.7729 -0.4503 -0.0528
13364TIP3    H161507   1.294   4.725   1.701  2.4481 -0.3448 -0.7039
13364TIP3    H261508   1.276   4.874   1.716 -0.1596 -0.6990  0.2194
13365TIP3   OH261509   2.233   4.048  12.818  0.1653  0.6427  0.2672
13365TIP3    H161510   2.313   3.996  12.824  0.4021  1.1565  3.0839
13365TIP3    H261511   2.165   3.992  12.855 -0.4889  0.7826 -0.6859
13366TIP3   OH261512   3.985   4.848   4.182 -1.2539  0.0271  0.4499
13366TIP3    H161513   4.068   4.894   4.184 -0.5345 -1.2502  1.9384
13366TIP3    H261514   3.960   4.847   4.090  0.2760  0.6006  0.0015
13367TIP3   OH261515   4.859   2.806  11.351  0.4777  0.0097 -0.1596
13367TIP3    H161516   4.906   2.836  11.429  2.9539 -2.3049 -0.5833
13367TIP3    H261517   4.900   2.853  11.279  3.7948 -3.3191 -0.7354
13368TIP3   OH261518   1.244   1.324   3.353  0.5742 -0.1495 -0.1072
13368TIP3    H161519   1.266   1.356   3.265  1.9827 -0.1545  0.2170
13368TIP3    H261520   1.243   1.229   3.345 -0.6645 -0.1232 -0.4097
13369TIP3   OH261521   0.461   4.227   3.868 -0.2075 -0.2105  0.0130
13369TIP3    H161522   0.392   4.186   3.920  0.4125 -1.4858 -0.1361
13369TIP3    H261523   0.508   4.154   3.828 -0.3425  0.7057 -1.9438
13370TIP3   OH261524   2.987   4.720  11.723  0.5122  0.4499  0.2500
13370TIP3    H161525   3.036   4.740  11.643 -0.2288  3.1397  0.3717
13370TIP3    H261526   2.895   4.725  11.697  0.2136 -1.5404  0.7038
13371TIP3   OH261527   0.726   5.874   1.987 -0.1067  0.2032 -0.1626
13371TIP3    H161528   0.741   5.821   2.066  0.2918 -1.8367 -1.5325
13371TIP3    H261529   0.811   5.874   1.943 -0.5325  0.6407 -0.9905
13372TIP3   OH261530   3.336   6.685  11.540 -0.0473 -0.2937 -0.1313
13372TIP3    H161531   3.347   6.590  11.530  0.6881 -0.7165  3.4353
13372TIP3    H261532   3.412   6.722  11.495  0.6681 -1.5397  0.0024
13373TIP3   OH261533   2.644   0.584   4.563  0.0703  0.7350  0.1359
13373TIP3    H161534   2.586   0.653   4.530  0.8982  0.9964 -0.8135
13373TIP3    H261535   2.731   0.607   4.528  0.3682 -0.7601 -0.1726
13374TIP3   OH261536   3.386   0.081   1.121  0.0167  0.3128  0.0421
13374TIP3    H161537   3.333   0.055   1.196 -0.5874 -0.7961 -0.7296
13374TIP3    H261538   3.393   0.176   1.128  0.1256  0.2203  1.5807
13375TIP3   OH261539   5.903   6.245  15.177 -0.8758  0.3602  0.3532
13375TIP3    H161540   5.849   6.291  15.242 -1.3142  2.4952 -1.3870
13375TIP3    H261541   5.942   6.172  15.225 -4.5545 -0.7715  1.9731
13376TIP3   OH261542   5.641   6.212  16.600  0.3128 -0.2136 -0.0730
13376TIP3    H161543   5.721   6.163  16.619  0.6961  0.6911  0.7200
13376TIP3    H261544   5.573   6.144  16.592  0.4382 -0.8377  2.9688
13377TIP3   OH261545   0.665   3.276  15.193 -0.3363  0.1944 -0.4371
13377TIP3    H161546   0.738   3.338  15.185 -0.1268  0.0765  0.4588
13377TIP3    H261547   0.587   3.330  15.181 -0.1151  0.4176 -0.8787
13378TIP3   OH261548   2.520   3.184   3.355 -0.3544 -0.1967  0.3968
13378TIP3    H161549   2.585   3.254   3.346  0.7720 -0.9338  2.1778
13378TIP3    H261550   2.455   3.202   3.286  0.0826  2.3521  0.5617
13379TIP3   OH261551   4.021   3.895  14.692 -0.1517  0.0035  0.2739
13379TIP3    H161552   4.114   3.912  14.710 -0.8842  3.3834  1.8035
13379TIP3    H261553   4.019   3.809  14.651  3.6407 -0.1890  0.1749
13380TIP3   OH261554   4.774   3.784  10.601  0.7548  0.8799  0.0631
13380TIP3    H161555   4.693   3.738  10.579  0.9586  0.8200 -0.5549
13380TIP3    H261556   4.843   3.734  10.558  1.0380  1.4149 -0.1133
13381TIP3   OH261557   4.138   0.257   3.037  0.1700 -0.2492 -0.4557
13381TIP3    H161558   4.157   0.349   3.055 -3.2376  0.3973  0.4632
13381TIP3    H261559   4.155   0.212   3.120 -2.1848  0.3396  0.3982
13382TIP3   OH261560   3.289   5.794   0.831 -0.0934  0.1198 -0.1833
13382TIP3    H161561   3.218   5.848   0.866 -0.6240 -0.6737 -0.0182
13382TIP3    H261562   3.335   5.761   0.908 -2.8288 -3.7667  0.0593
13383TIP3   OH261563   0.374   1.633   6.309 -0.7337 -0.3996 -0.3560
13383TIP3    H161564   0.400   1.568   6.374 -1.0092 -0.3542 -0.2027
13383TIP3    H261565   0.366   1.583   6.227  0.5073 -0.3037 -0.5635
13384TIP3   OH261566   4.747   0.345   3.123  0.4661 -0.4474 -0.0340
13384TIP3    H161567   4.725   0.439   3.126 -1.2865 -0.8277  0.3702
13384TIP3    H261568   4.812   0.333   3.192  0.0685  0.3264  0.4913
13385TIP3   OH261569   2.516   5.318  14.426  0.3971 -0.0741 -0.2876
13385TIP3    H161570   2.474   5.233  14.408  0.8524 -0.4633  0.4270
13385TIP3    H261571   2.471   5.379  14.368 -2.6554 -0.0215  1.8779
13386TIP3   OH261572   0.489   5.008  13.333  0.4437 -0.3691  0.4967
13386TIP3    H161573   0.410   4.960  13.356 -0.2110  1.0462  1.3086
13386TIP3    H261574   0.555   4.978  13.395  0.6653 -1.7872 -0.3838
13387TIP3   OH261575   5.150   0.401   1.386 -0.3113 -0.0883 -0.0749
13387TIP3    H161576   5.160   0.411   1.291  0.6611 -0.1558  0.0116
13387TIP3    H261577   5.151   0.490   1.420 -2.3262  0.0523 -0.2533
13388TIP3   OH261578   4.325   2.610   2.723  0.5695  0.7417 -0.1563
13388TIP3    H161579   4.405   2.627   2.772 -0.9805  2.2668  2.0063
13388TIP3    H261580   4.258   2.595   2.790 -0.7704 -1.7227 -1.8980
13389TIP3   OH261581   0.363   3.126  15.799 -0.2016 -0.2056  0.1170
13389TIP3    H161582   0.298   3.195  15.814 -2.3729 -2.1945  0.3799
13389TIP3    H261583   0.403   3.112  15.885 -2.2158 -1.5497  0.9064
13390TIP3   OH261584   3.637   6.226   0.368  0.1900 -0.2724 -0.0675
13390TIP3    H161585   3.631   6.136   0.400 -0.2292 -0.6554 -1.1697
13390TIP3    H261586   3.688   6.220   0.288  1.0894  0.6398  0.4070
13391TIP3   OH261587   6.196   5.267  14.853 -0.3482  0.4324  0.5299
13391TIP3    H161588   6.215   5.210  14.929 -0.0752  0.4438  0.4722
13391TIP3    H261589   6.264   5.335  14.857  0.4638 -0.2936 -0.4617
13392TIP3   OH261590   3.462   5.803   3.341  0.7857 -0.0914  0.5227
13392TIP3    H161591   3.537   5.756   3.378  0.4526 -1.8629 -0.9550
13392TIP3    H261592   3.399   5.807   3.413  0.4785 -2.7259  0.4739
13393TIP3   OH261593   2.251   5.733  13.276 -0.1440  0.7091  0.0586
13393TIP3    H161594   2.326   5.687  13.313  1.4366  2.2096 -1.0946
13393TIP3    H261595   2.223   5.793  13.346 -0.1950  0.2294  0.4516
13394TIP3   OH261596   0.366   4.168   1.127 -0.6844 -0.2086 -0.1053
13394TIP3    H161597   0.442   4.198   1.176  0.6214 -3.0874 -0.1616
13394TIP3    H261598   0.299   4.235   1.142  1.5852  2.0288  0.5580
13395TIP3   OH261599   1.893   3.175  16.545 -0.1914 -0.4963 -0.5616
13395TIP3    H161600   1.987   3.160  16.552 -0.1244 -0.1094 -0.6616
13395TIP3    H261601   1.875   3.247  16.605 -0.3623 -0.3081 -0.8379
13396TIP3   OH261602   2.025   0.265  12.544  0.7848  0.1584 -0.1301
13396TIP3    H161603   2.097   0.213  12.580  0.8100  0.7049  0.6262
13396TIP3    H261604   2.063   0.313  12.471  1.2653  0.6716  0.4522
13397TIP3   OH261605   1.928   1.523  11.030  0.2033  0.3870 -0.2205
13397TIP3    H161606   1.967   1.543  11.115  0.5439 -0.4550 -0.1665
13397TIP3    H261607   1.853   1.582  11.024 -0.3235 -0.0908  1.0437
13398TIP3   OH261608   3.927   5.782   2.363 -0.3332 -0.6013 -0.3252
13398TIP3    H161609   3.904   5.800   2.271  0.0875  1.5676 -0.0673
13398TIP3    H261610   3.854   5.729   2.396 -1.3339 -0.0018 -1.4705
13399TIP3   OH261611   4.850   1.027   3.438 -0.1282 -0.3193  0.0605
13399TIP3    H161612   4.846   1.101   3.498  0.2210 -0.3445  0.1179
13399TIP3    H261613   4.910   1.056   3.369 -0.3283 -0.3860 -0.1421
13400TIP3   OH261614   6.582   1.558  11.675 -0.1193 -0.2714  0.0371
13400TIP3    H161615   6.593   1.573  11.581 -0.0231  1.2019  0.2623
13400TIP3    H261616   6.563   1.645  11.711 -1.1875 -0.9836  1.2388
13401TIP3   OH261617   1.324   1.376   2.688  0.1831 -0.6176  0.1025
13401TIP3    H161618   1.236   1.356   2.656  1.4432 -0.9608 -3.7025
13401TIP3    H261619   1.332   1.471   2.678 -0.0647 -0.4351  1.4788
13402TIP3   OH261620   3.729   0.881   0.310 -0.0449 -0.0029 -0.2349
13402TIP3    H161621   3.766   0.880   0.399 -1.3535  1.1030  0.3750
13402TIP3    H261622   3.802   0.904   0.254  0.3233  1.7685  0.8784
13403TIP3   OH261623   4.711   6.428  12.314 -0.1058 -0.8001  0.0261
13403TIP3    H161624   4.763   6.476  12.249  1.5522 -2.9270 -0.3404
13403TIP3    H261625   4.774   6.372  12.358 -1.2633  0.1634  3.2162
13404TIP3   OH261626   4.778   5.089  14.431 -0.2956 -0.1415 -0.0818
13404TIP3    H161627   4.829   5.170  14.429 -0.2011 -0.2117 -0.7470
13404TIP3    H261628   4.707   5.107  14.493  0.1766  0.1760  0.3725
13405TIP3   OH261629   0.509   1.925  16.380  0.1693  0.0976 -0.2251
13405TIP3    H161630   0.522   1.920  16.475  1.3620  0.7520 -0.3345
13405TIP3    H261631   0.594   1.902  16.343 -0.1562  0.3041 -1.1251
13406TIP3   OH261632   4.964   4.348  11.581 -0.4067 -0.1646 -0.3806
13406TIP3    H161633   5.057   4.336  11.600 -0.5968  0.4285  0.9934
13406TIP3    H261634   4.961   4.421  11.520 -0.0404  0.7709  0.6855
13407TIP3   OH261635   3.320   5.115   2.843 -0.9177 -0.2691  0.1702
13407TIP3    H161636   3.229   5.127   2.870 -0.6347 -0.5635  1.3026
13407TIP3    H261637   3.351   5.203   2.821 -1.3763 -0.1239  0.1012
13408TIP3   OH261638   1.281   2.506  17.186  0.0497  0.2356 -0.1718
13408TIP3    H161639   1.330   2.543  17.259  0.5171 -0.3418 -0.1743
13408TIP3    H261640   1.209   2.458  17.226  0.5226 -0.3977 -0.0501
13409TIP3   OH261641   2.934   3.211   4.283 -0.0549 -0.2572 -0.8473
13409TIP3    H161642   2.846   3.194   4.249 -0.7497  2.4157 -0.5957
13409TIP3    H261643   2.964   3.288   4.235  1.6805 -0.4025 -0.0785
13410TIP3   OH261644   3.118   6.355  17.180  0.1568  0.1705  0.4668
13410TIP3    H161645   3.143   6.263  17.177  0.3692  0.2364  0.0346
13410TIP3    H261646   3.137   6.384  17.269  4.1569  0.9170 -0.4425
13411TIP3   OH261647   4.476   1.859   1.368  0.0537 -0.1437 -0.2036
13411TIP3    H161648   4.492   1.792   1.434  1.6898 -0.0333 -0.4534
13411TIP3    H261649   4.479   1.941   1.416  0.9148 -0.0845 -0.3451
13412TIP3   OH261650   3.087   1.737  14.399 -0.3787  0.2175 -0.6288
13412TIP3    H161651   3.015   1.676  14.416  0.4880 -1.4962 -2.7265
13412TIP3    H261652   3.076   1.805  14.465 -2.2002 -1.4869  0.9550
13413TIP3   OH261653   6.211   1.346  11.857 -0.3910  0.0239  0.3975
13413TIP3    H161654   6.143   1.317  11.796 -2.2631  1.9491  1.4326
13413TIP3    H261655   6.251   1.422  11.815  0.4896 -0.5268  0.2168
13414TIP3   OH261656   1.360   3.754   2.649  0.3688 -0.0455 -0.1827
13414TIP3    H161657   1.311   3.782   2.726  1.2668 -1.2117  0.8595
13414TIP3    H261658   1.314   3.794   2.575 -0.1685  1.5735  0.9858
13415TIP3   OH261659   4.840   6.049   2.703  0.0326 -0.4064 -0.2473
13415TIP3    H161660   4.789   6.127   2.681  0.4844  0.4494  1.5292
13415TIP3    H261661   4.775   5.978   2.705 -0.8220  0.3561  0.3431
13416TIP3   OH261662   0.265   6.246   4.103  0.2655  0.0747 -0.9828
13416TIP3    H161663   0.210   6.318   4.133  0.9329  0.8732 -1.6011
13416TIP3    H261664   0.234   6.228   4.014  1.5865  1.2155 -1.7334
13417TIP3   OH261665   4.083   0.026   2.563  0.6961  0.5371 -0.1432
13417TIP3    H161666   4.041   0.102   2.523 -1.4605 -0.8722 -0.7325
13417TIP3    H261667   4.133   0.061   2.636 -2.0670  2.3524  1.0313
13418TIP3   OH261668   6.770   1.654  12.361 -0.2291  0.1470 -0.2062
13418TIP3    H161669   6.796   1.645  12.270  1.4136  1.2467  0.1260
13418TIP3    H261670   6.791   1.569  12.401  1.6232  0.5488 -0.2618
13419TIP3   OH261671   6.080   1.205  13.786 -0.5662  0.3550  0.6535
13419TIP3    H161672   5.986   1.225  13.777 -0.0777  2.0430 -2.0175
13419TIP3    H261673   6.123   1.271  13.732  1.9625 -2.3394 -0.8895
13420TIP3   OH261674   1.385   3.207  16.147 -0.1631 -0.6997  0.1733
13420TIP3    H161675   1.373   3.115  16.171  1.5196 -0.6203  1.5270
13420TIP3    H261676   1.314   3.253  16.193 -0.7272 -1.2546 -0.1283
13421TIP3   OH261677   3.345   3.908   1.875 -0.3628  0.2909  0.3678
13421TIP3    H161678   3.322   3.989   1.830  1.7973  0.2969 -0.8615
13421TIP3    H261679   3.306   3.839   1.822  0.5373  0.3968 -0.4547
13422TIP3   OH261680   2.249   0.068   2.466 -0.6495 -0.0308  0.0709
13422TIP3    H161681   2.343   0.076   2.481 -0.3268 -0.5248 -1.5220
13422TIP3    H261682   2.233  -0.027   2.463 -0.6260 -0.0069 -2.7033
13423TIP3   OH261683   5.304   6.429   0.595 -0.3975  0.6185 -0.5278
13423TIP3    H161684   5.359   6.500   0.561 -0.0796 -0.4562 -2.3841
13423TIP3    H261685   5.224   6.434   0.544  0.0366 -0.9606 -1.4338
13424TIP3   OH261686   2.710   1.884   0.637  0.2260 -0.3400 -0.2096
13424TIP3    H161687   2.678   1.969   0.607 -0.6087 -0.8038 -0.6772
13424TIP3    H261688   2.738   1.839   0.557  0.5534 -0.5522  0.0211
13425TIP3   OH261689   4.232   1.655   1.838  0.1310  0.3432 -0.1294
13425TIP3    H161690   4.266   1.569   1.863  3.2076  2.0726  2.1952
13425TIP3    H261691   4.199   1.692   1.920  0.6162  2.0899 -0.6902
13426TIP3   OH261692   0.636   0.950   0.701 -0.0105 -0.3737 -0.0754
13426TIP3    H161693   0.665   0.912   0.618  0.2615  0.1021 -0.2039
13426TIP3    H261694   0.709   1.004   0.730 -0.5802  0.4809 -0.1709
13427TIP3   OH261695   1.220   3.619  13.809  0.1787 -0.0482  0.3355
13427TIP3    H161696   1.300   3.575  13.781  0.3395 -0.1267  0.9172
13427TIP3    H261697   1.238   3.712  13.794  0.4718 -0.0462  0.7019
13428TIP3   OH261698   5.193   0.325  13.806 -0.1718  0.1047  0.1536
13428TIP3    H161699   5.198   0.420  13.802  0.8822  0.0125 -1.2285
13428TIP3    H261700   5.279   0.297  13.838  0.0213 -0.4281 -0.7823
13429TIP3   OH261701   1.999   1.534  13.335 -0.2069 -0.0144  0.0727
13429TIP3    H161702   2.032   1.453  13.375 -0.7481  0.3481  1.3022
13429TIP3    H261703   1.917   1.551  13.381  0.3628  1.7538  0.4792
13430TIP3   OH261704   0.388   4.428  12.576  0.8567  0.1660  0.1108
13430TIP3    H161705   0.338   4.403  12.498  0.4978 -1.5674  0.8487
13430TIP3    H261706   0.356   4.516  12.597 -1.9586 -0.8539  0.5550
13431TIP3   OH261707   3.080   0.803  15.527  0.2646 -0.4657 -0.3254
13431TIP3    H161708   3.026   0.724  15.515  1.7725 -1.4105 -1.2042
13431TIP3    H261709   3.139   0.780  15.599 -0.5142  0.5967  0.6919
13432TIP3   OH261710   4.491   6.613   4.264 -0.3412 -0.2185  0.1000
13432TIP3    H161711   4.524   6.524   4.270  0.4124  0.1074  0.9540
13432TIP3    H261712   4.429   6.621   4.337 -0.5509 -0.1068 -0.0896
13433TIP3   OH261713   6.653   2.219  15.587 -0.1164 -0.4221  0.4050
13433TIP3    H161714   6.625   2.218  15.678 -0.7636  1.9097  0.2846
13433TIP3    H261715   6.573   2.204  15.536 -0.2089  0.6898  0.1950
13434TIP3   OH261716   2.695   2.757  13.945 -0.2628  0.3064  0.3796
13434TIP3    H161717   2.635   2.758  14.020 -0.7321  0.5123  0.0067
13434TIP3    H261718   2.638   2.749  13.868  0.2403 -0.4586  0.0701
13435TIP3   OH261719   2.660   5.010  15.150 -0.0858  0.0429 -0.0284
13435TIP3    H161720   2.630   5.093  15.187 -2.0313 -1.6174  2.5063
13435TIP3    H261721   2.593   4.986  15.087 -0.2759 -0.2457  0.2791
13436TIP3   OH261722   0.345   4.239  16.561 -0.2803 -0.0501 -0.0386
13436TIP3    H161723   0.378   4.171  16.502 -3.4789 -1.5555 -0.3197
13436TIP3    H261724   0.255   4.255  16.532 -0.9635  1.4304  2.5166
13437TIP3   OH261725   5.614   3.099   6.203  0.2085  0.1223 -0.5216
13437TIP3    H161726   5.593   3.007   6.216 -0.2256  0.4760  1.7390
13437TIP3    H261727   5.643   3.129   6.289 -0.5232  2.3012 -0.9736
13438TIP3   OH261728   3.078   0.098  11.037  0.3860 -0.1453 -0.5696
13438TIP3    H161729   3.057   0.149  11.115  1.2928 -1.5797  0.6648
13438TIP3    H261730   3.014   0.127  10.971 -0.0647  1.4613  0.5311
13439TIP3   OH261731   2.728   6.279   2.417 -0.2088  0.0983  0.1653
13439TIP3    H161732   2.783   6.206   2.444 -0.3035 -0.9767 -2.2539
13439TIP3    H261733   2.725   6.337   2.493 -0.4701 -2.5815  2.3460
13440TIP3   OH261734   2.337   2.862   0.427  0.5496 -0.2795  0.4381
13440TIP3    H161735   2.429   2.882   0.410  0.4677 -0.6108 -0.4623
13440TIP3    H261736   2.327   2.770   0.400 -0.0048 -0.2896  0.6705
13441TIP3   OH261737   2.685   2.779   5.450  0.3372  0.2745 -0.7703
13441TIP3    H161738   2.646   2.708   5.399  0.6072  0.9211 -1.9200
13441TIP3    H261739   2.778   2.779   5.426  0.3031  1.1392 -0.9464
13442TIP3   OH261740   0.869   3.564  11.345  0.0435 -0.0743  0.6025
13442TIP3    H161741   0.883   3.648  11.300  0.0001 -0.7617 -0.7424
13442TIP3    H261742   0.835   3.506  11.276 -0.8867 -0.9228  1.7419
13443TIP3   OH261743   2.671   6.452   4.401 -0.3192  0.3720 -0.4448
13443TIP3    H161744   2.632   6.477   4.484  1.0778  0.3366  0.2563
13443TIP3    H261745   2.607   6.393   4.361  0.1595 -1.9079  1.9097
13444TIP3   OH261746   5.597   0.588  13.019 -0.0819 -0.3241 -0.1427
13444TIP3    H161747   5.594   0.617  13.110  0.2204 -0.7833  0.0192
13444TIP3    H261748   5.674   0.631  12.982 -0.8214  0.7400 -0.5017
13445TIP3   OH261749   2.423   5.334  13.833 -0.0703 -0.5104 -0.1887
13445TIP3    H161750   2.409   5.312  13.926 -0.4982  0.6579  0.0361
13445TIP3    H261751   2.353   5.289  13.787  0.0393 -0.9562  0.0734
13446TIP3   OH261752   2.114   5.767   5.080 -0.4879 -0.3314 -1.0583
13446TIP3    H161753   2.203   5.769   5.044  0.7236 -1.4439  1.6330
13446TIP3    H261754   2.061   5.733   5.008  1.0824  1.0661 -2.9883
13447TIP3   OH261755   2.163   6.173  17.191 -0.0170 -0.6398  0.4664
13447TIP3    H161756   2.121   6.226  17.260 -2.3368 -1.5077 -0.1776
13447TIP3    H261757   2.118   6.199  17.111  0.2731 -2.0530 -0.1811
13448TIP3   OH261758   3.313   3.023  13.872  0.5436  0.4011 -0.2905
13448TIP3    H161759   3.252   3.073  13.928 -0.2080  2.5186 -2.7791
13448TIP3    H261760   3.396   3.068  13.881  0.6633  0.1502 -0.1428
13449TIP3   OH261761   1.139   2.062  12.064 -0.6652 -0.1328  0.2073
13449TIP3    H161762   1.181   2.134  12.111  0.6770 -1.1278  0.5922
13449TIP3    H261763   1.131   1.993  12.130  1.7332 -1.7600 -1.0541
13450TIP3   OH261764   6.653   2.639  10.742 -0.1374  0.5398  0.0950
13450TIP3    H161765   6.614   2.716  10.699  1.9069  1.6335  0.0787
13450TIP3    H261766   6.718   2.676  10.801  1.1689 -1.2041 -0.2034
13451TIP3   OH261767   5.442   6.575  11.308 -0.0384  0.1693  0.1993
13451TIP3    H161768   5.509   6.573  11.240  0.2069  0.2645  0.4406
13451TIP3    H261769   5.364   6.608  11.263  0.2975  0.8590  0.1252
13452TIP3   OH261770   5.490   3.392  13.437  0.9484  0.1301 -0.4653
13452TIP3    H161771   5.549   3.364  13.368 -0.1585 -0.7044 -1.1060
13452TIP3    H261772   5.530   3.361  13.518  1.5779 -0.0753 -0.8533
13453TIP3   OH261773   2.067   5.860   5.346  0.5383  0.7075 -0.5344
13453TIP3    H161774   2.013   5.786   5.374  1.1066  0.5289  0.1287
13453TIP3    H261775   2.085   5.843   5.253  1.1554 -0.3128 -0.2467
13454TIP3   OH261776   6.527   0.846   2.620  0.3187 -0.2420 -0.6133
13454TIP3    H161777   6.582   0.921   2.598  0.8843  0.1378  1.7960
13454TIP3    H261778   6.545   0.782   2.551  2.2233  0.6732 -1.0284
13455TIP3   OH261779   2.924   4.063  14.989 -0.0494  0.0682 -0.6313
13455TIP3    H161780   2.970   4.146  15.004 -1.4294  1.1210 -1.8759
13455TIP3    H261781   2.984   3.996  15.021  1.8089  1.4458 -1.0491
13456TIP3   OH261782   1.472   5.855  16.217  0.4784  0.1222  0.3895
13456TIP3    H161783   1.479   5.775  16.165  1.0545  0.0011  0.6482
13456TIP3    H261784   1.466   5.926  16.152  1.8407  0.0304  0.1403
13457TIP3   OH261785   2.911   2.649  13.328  0.0598 -0.1039 -0.3715
13457TIP3    H161786   2.948   2.571  13.285 -2.7886 -1.8187 -0.0434
13457TIP3    H261787   2.873   2.615  13.409  0.5243  2.0775  0.8109
13458TIP3   OH261788   4.919   1.489  15.574  0.7823 -0.4157  0.1003
13458TIP3    H161789   4.941   1.474  15.482  0.1911 -3.6470  0.3626
13458TIP3    H261790   4.994   1.537  15.610  1.9067 -0.8146 -1.6287
13459TIP3   OH261791   3.313   2.638  11.902  0.7071  0.2003 -0.0430
13459TIP3    H161792   3.285   2.594  11.983 -1.1395  2.3389  0.5739
13459TIP3    H261793   3.401   2.669  11.921  0.4212  0.3986  1.0596
13460TIP3   OH261794   5.929   2.768  14.483  0.2664 -0.3922  0.0925
13460TIP3    H161795   5.940   2.754  14.577  0.7292 -1.3414 -0.0927
13460TIP3    H261796   5.835   2.778  14.472  0.3414  1.5458  0.8807
13461TIP3   OH261797   4.427   6.670  17.251 -0.0463  1.4203 -0.4089
13461TIP3    H161798   4.371   6.633  17.318 -2.7849  3.5966 -1.3030
13461TIP3    H261799   4.468   6.595  17.209 -1.5754 -0.2176  0.9073
13462TIP3   OH261800   1.585   3.926   5.538 -0.1724  0.1517 -0.0324
13462TIP3    H161801   1.561   3.836   5.555 -0.3195  0.3433  0.8205
13462TIP3    H261802   1.504   3.968   5.511 -1.3147  1.1274  4.1620
13463TIP3   OH261803   4.536   5.987   3.719  0.0486  0.3446  0.1271
13463TIP3    H161804   4.534   6.006   3.625  0.6379  0.7949  0.2022
13463TIP3    H261805   4.614   6.031   3.751 -0.9115  1.3863  1.0991
13464TIP3   OH261806   6.571   2.859   2.099  0.7791  0.4699  0.5281
13464TIP3    H161807   6.521   2.807   2.036 -0.1875  1.5265  0.3763
13464TIP3    H261808   6.661   2.858   2.067  0.6095 -0.3732  0.0580
13465TIP3   OH261809   6.034   6.314  12.079  0.0330  0.0169  0.1296
13465TIP3    H161810   6.126   6.314  12.105 -0.2901  1.0676  1.3702
13465TIP3    H261811   6.035   6.340  11.987  0.9937 -0.4549 -0.0082
13466TIP3   OH261812   2.392   2.226   5.962  0.2573  0.3953  0.2326
13466TIP3    H161813   2.399   2.150   6.020 -1.2992  1.1225  1.4614
13466TIP3    H261814   2.298   2.242   5.956  0.3870  0.6297 -2.1849
13467TIP3   OH261815   4.558   5.741  14.006 -0.1657  0.4991  0.4931
13467TIP3    H161816   4.550   5.834  14.028  1.5872  0.6666  0.5832
13467TIP3    H261817   4.566   5.739  13.911 -0.8511  0.3829  0.4376
13468TIP3   OH261818   2.479   6.470   5.735 -0.8164 -0.3215 -0.1677
13468TIP3    H161819   2.428   6.399   5.773  0.8914 -1.1178  0.7680
13468TIP3    H261820   2.468   6.543   5.796  2.0774 -1.6557  2.2237
13469TIP3   OH261821   2.791   5.880   1.474 -0.1664  0.1347 -0.0153
13469TIP3    H161822   2.714   5.929   1.504 -0.1768 -0.4742  1.0250
13469TIP3    H261823   2.755   5.798   1.439 -0.0658  0.3486 -0.6277
13470TIP3   OH261824   6.513   2.614   3.821  0.1985  0.4710  0.0216
13470TIP3    H161825   6.544   2.585   3.735  0.4584 -0.0989  0.3009
13470TIP3    H261826   6.520   2.536   3.877 -2.0676  0.2010  0.0238
13471TIP3   OH261827   6.624   6.202   3.649 -0.2862  0.1189  1.0349
13471TIP3    H161828   6.621   6.258   3.571  1.2245 -1.2209 -0.0569
13471TIP3    H261829   6.550   6.143   3.637  0.6743 -0.9199 -0.1218
13472TIP3   OH261830   3.976   1.788  14.450 -0.6460  0.4486 -0.1292
13472TIP3    H161831   3.973   1.864  14.507 -3.6478  0.7837 -0.5686
13472TIP3    H261832   4.006   1.823  14.366  1.9982  0.2872  0.6647
13473TIP3   OH261833   2.960   4.605  15.060  0.0775 -0.5080  0.0700
13473TIP3    H161834   2.937   4.619  14.968 -1.9107 -1.9574  0.2821
13473TIP3    H261835   2.922   4.679  15.106  0.9123  0.1204 -0.2285
13474TIP3   OH261836   5.779   3.962  16.987 -0.1166 -0.0438  0.0698
13474TIP3    H161837   5.733   3.898  17.042 -2.6273  0.3710 -1.3797
13474TIP3    H261838   5.742   4.046  17.013 -0.1982  0.3144 -1.1458
13475TIP3   OH261839   4.161   6.211  13.716 -1.0552  0.1604 -0.2891
13475TIP3    H161840   4.112   6.195  13.635 -0.9870 -1.4311 -0.0495
13475TIP3    H261841   4.147   6.132  13.769 -0.2729  0.7424  0.8385
13476TIP3   OH261842   5.906   5.843   4.695 -0.3391 -0.1764 -0.1305
13476TIP3    H161843   5.901   5.755   4.732  0.8635  0.6400  2.1923
13476TIP3    H261844   6.000   5.858   4.683 -0.4555  1.1052  0.4123
13477TIP3   OH261845   6.729   5.434   2.552  0.4929  0.2035 -0.1165
13477TIP3    H161846   6.806   5.439   2.495  0.3797  1.5891 -0.1869
13477TIP3    H261847   6.656   5.416   2.493  0.7197 -1.0244 -0.0601
13478TIP3   OH261848   2.896   0.995  14.732  0.0276  0.1277  0.1988
13478TIP3    H161849   2.949   0.917  14.745  0.5892  0.4916  0.1112
13478TIP3    H261850   2.957   1.061  14.698 -0.5391  0.4595 -0.2020
13479TIP3   OH261851   4.245   5.702   3.543 -0.3622 -0.2032 -0.2279
13479TIP3    H161852   4.338   5.694   3.566 -0.1170  1.5817 -0.4956
13479TIP3    H261853   4.223   5.617   3.505  0.7527 -1.1797  1.1988
13480TIP3   OH261854   1.976   2.604  14.307  0.5100 -0.0565 -0.6779
13480TIP3    H161855   1.924   2.523  14.298  0.9740 -0.4978  0.4589
13480TIP3    H261856   1.978   2.641  14.218  1.2601 -1.9033 -1.4861
13481TIP3   OH261857   2.936   5.672   4.441 -0.3496 -0.4897 -0.6042
13481TIP3    H161858   3.011   5.712   4.398  1.1147 -2.1602  0.2615
13481TIP3    H261859   2.949   5.578   4.429 -1.9819 -0.8327  0.1155
13482TIP3   OH261860   1.390   4.277   1.209 -0.5023 -0.6246  0.2978
13482TIP3    H161861   1.472   4.239   1.241 -0.2861  0.0704  0.6002
13482TIP3    H261862   1.352   4.209   1.154  0.2673 -0.9646  0.1696
13483TIP3   OH261863   4.473   4.177  15.700  0.0559  0.2308 -0.3717
13483TIP3    H161864   4.538   4.241  15.731  0.2944  0.3646 -1.1113
13483TIP3    H261865   4.522   4.121  15.640  0.2140 -1.6362  1.4260
13484TIP3   OH261866   2.060   5.010  11.891 -0.0661 -0.5905 -0.3519
13484TIP3    H161867   2.033   5.022  11.982 -0.2010 -2.9159 -0.0350
13484TIP3    H261868   2.155   5.000  11.896  0.2101  1.4058 -0.7610
13485TIP3   OH261869   4.505   0.905  12.396 -0.0487 -0.1282  0.4392
13485TIP3    H161870   4.466   0.973  12.341 -1.2596 -0.3787  0.9709
13485TIP3    H261871   4.444   0.894  12.468  0.2634 -1.6061  0.5063
13486TIP3   OH261872   4.626   4.365   5.930 -0.4307  0.2308 -1.0077
13486TIP3    H161873   4.605   4.399   6.017  0.8154  1.3985 -1.1251
13486TIP3    H261874   4.676   4.284   5.947 -1.5879 -0.4384 -0.6905
13487TIP3   OH261875   1.676   2.159  12.339  0.3518  0.0443  0.5848
13487TIP3    H161876   1.711   2.083  12.386  0.1929 -0.2157  0.2842
13487TIP3    H261877   1.665   2.129  12.249  1.6965  0.8700  0.1192
13488TIP3   OH261878   2.695   0.174  11.330  0.3567 -1.0619  0.3110
13488TIP3    H161879   2.752   0.244  11.299  0.7319 -1.3726  0.2906
13488TIP3    H261880   2.643   0.150  11.253 -0.7105  0.0745  0.6397
13489TIP3   OH261881   5.865   0.559   1.693 -0.0561 -0.2962  0.0762
13489TIP3    H161882   5.904   0.538   1.778  0.3094 -0.3315 -0.0939
13489TIP3    H261883   5.843   0.473   1.656 -0.2188 -0.2806  0.1384
13490TIP3   OH261884   0.283   4.443   3.811  0.0351  0.0698  0.4214
13490TIP3    H161885   0.334   4.463   3.733  2.0839 -0.1001  1.6568
13490TIP3    H261886   0.330   4.373   3.855 -0.1279  1.2332  2.6338
13491TIP3   OH261887   1.312   6.501   2.464  0.1366  0.1488  0.0986
13491TIP3    H161888   1.374   6.429   2.468  2.1474  1.7930  0.2444
13491TIP3    H261889   1.268   6.500   2.549  0.4481 -0.6387  0.2557
13492TIP3   OH261890   2.086   5.025  13.110  0.1537  0.0946  0.0915
13492TIP3    H161891   2.011   5.031  13.051  0.5065  2.5166 -0.1812
13492TIP3    H261892   2.155   5.076  13.068  0.8676  0.7287  1.9241
13493TIP3   OH261893   2.547   4.641   0.698  0.1313  0.1983  0.1739
13493TIP3    H161894   2.511   4.698   0.766 -0.8446 -0.2555  0.0501
13493TIP3    H261895   2.551   4.555   0.738  0.4624  0.1136 -0.0368
13494TIP3   OH261896   6.004   6.773  11.017  0.0503 -0.2674 -0.6828
13494TIP3    H161897   5.916   6.741  11.036  0.1071  0.3474  0.7148
13494TIP3    H261898   6.019   6.749  10.925 -1.7571  0.0506 -1.0920
13495TIP3   OH261899   6.109   2.135  16.820 -0.5169  0.2729 -0.0535
13495TIP3    H161900   6.036   2.113  16.763 -1.5478  0.3692  1.1765
13495TIP3    H261901   6.068   2.162  16.902  0.9035  0.2692  0.6951
13496TIP3   OH261902   6.151   5.201   0.707 -0.1095 -0.4231 -0.3569
13496TIP3    H161903   6.140   5.105   0.707 -2.0579 -0.2690 -1.8650
13496TIP3    H261904   6.094   5.231   0.777  1.2226 -0.3728  0.7505
13497TIP3   OH261905   1.239   4.916   5.911  0.5299 -0.3496 -0.2708
13497TIP3    H161906   1.163   4.942   5.964  0.2693 -0.9398 -0.3398
13497TIP3    H261907   1.256   4.826   5.938  0.5237 -0.5855 -1.0409
13498TIP3   OH261908   3.353   3.598   4.636  0.1421 -0.1898 -0.0698
13498TIP3    H161909   3.300   3.659   4.586  1.1738  1.6527  0.9785
13498TIP3    H261910   3.438   3.599   4.592 -0.3385 -2.4170 -1.1926
13499TIP3   OH261911   4.689   1.050   5.294  0.7249 -0.4956  0.1023
13499TIP3    H161912   4.610   1.027   5.246 -1.1297 -0.4165  2.8518
13499TIP3    H261913   4.663   1.124   5.349  1.9767 -1.8119  2.6803
13500TIP3   OH261914   0.599   6.546   0.814 -0.0145 -0.5686  0.1075
13500TIP3    H161915   0.670   6.490   0.847  0.4620  0.4118  0.8133
13500TIP3    H261916   0.526   6.530   0.874  0.6572  0.7579  1.3498
13501TIP3   OH261917   5.062   2.542   4.860 -0.1587 -0.0214  0.1151
13501TIP3    H161918   5.141   2.523   4.808 -0.6281 -0.8627 -0.3163
13501TIP3    H261919   4.997   2.569   4.795 -0.7924 -1.2140  0.2183
13502TIP3   OH261920   1.262   0.456  12.570  0.3809 -0.2013 -0.5728
13502TIP3    H161921   1.268   0.375  12.519 -2.1126  0.2337 -1.6927
13502TIP3    H261922   1.267   0.525  12.504  1.1785  0.5329  0.2419
13503TIP3   OH261923   1.976   5.601   5.239 -0.6505  0.0873 -0.0455
13503TIP3    H161924   2.027   5.534   5.285  0.3010  1.1280  0.4754
13503TIP3    H261925   2.039   5.640   5.178 -1.2736  0.3076 -0.5489
13504TIP3   OH261926   1.648   1.874  11.355  0.4263  0.0762 -0.1806
13504TIP3    H161927   1.604   1.920  11.283 -0.1912 -0.7902 -0.3780
13504TIP3    H261928   1.679   1.943  11.413 -0.9851  0.7299 -0.1748
13505TIP3   OH261929   1.412   2.008  12.564  0.6190 -0.4684  0.2176
13505TIP3    H161930   1.318   2.000  12.580  0.8940 -1.2025  1.6128
13505TIP3    H261931   1.424   1.978  12.474 -0.4031 -0.9756  0.2370
13506TIP3   OH261932   0.115   6.549  15.338 -0.0521  0.5025  0.2763
13506TIP3    H161933   0.155   6.467  15.366 -2.0791 -0.8591 -0.6555
13506TIP3    H261934   0.155   6.567  15.252 -1.2393 -0.7505 -0.5670
13507TIP3   OH261935   0.895   4.943   0.194 -0.1890 -0.0066  0.0556
13507TIP3    H161936   0.929   4.922   0.107  0.3205 -0.6676  0.3985
13507TIP3    H261937   0.974   4.962   0.246 -0.5116  0.7342  0.2830
13508TIP3   OH261938   2.509   2.684  16.393  0.1244 -0.1598  0.1522
13508TIP3    H161939   2.467   2.713  16.312 -1.2438  0.0901  0.9106
13508TIP3    H261940   2.573   2.752  16.413  0.2965 -0.0991 -0.5820
13509TIP3   OH261941   4.854   6.604  11.708  0.4504  0.4657  0.5281
13509TIP3    H161942   4.787   6.592  11.642  0.6632 -1.5298  0.6254
13509TIP3    H261943   4.908   6.676  11.675 -1.2845  1.6314  0.1190
13510TIP3   OH261944   5.035   0.917  17.249 -0.0314 -0.0758 -0.1844
13510TIP3    H161945   5.046   0.828  17.215 -1.4646 -0.0706 -0.7368
13510TIP3    H261946   5.082   0.916  17.333 -0.7600 -1.6208  0.2501
13511TIP3   OH261947   3.744   5.006  16.899  0.1586 -0.0992  0.6844
13511TIP3    H161948   3.756   5.054  16.818 -2.6302 -1.6602 -0.8020
13511TIP3    H261949   3.831   5.000  16.937  1.4084  1.4510 -1.7330
13512TIP3   OH261950   1.334   6.729   1.680 -0.5390 -0.0123  0.8659
13512TIP3    H161951   1.274   6.703   1.610  1.2858 -1.0103 -0.4240
13512TIP3    H261952   1.393   6.793   1.640 -0.4464  0.6267  1.9632
13513TIP3   OH261953   0.073   3.235   4.654  0.0394 -0.1597  1.1620
13513TIP3    H161954   0.092   3.216   4.745 -0.6788  0.6211  1.4942
13513TIP3    H261955  -0.007   3.186   4.635  0.7931 -1.2218  0.5983
13514TIP3   OH261956   1.493   3.404  12.822 -0.2970  0.2110 -0.0480
13514TIP3    H161957   1.546   3.370  12.750  0.8298  1.6944  0.0201
13514TIP3    H261958   1.530   3.362  12.900 -0.9407 -0.7261 -0.2385
13515TIP3   OH261959   6.713   1.830  15.024  0.0596 -0.6541 -0.6577
13515TIP3    H161960   6.672   1.903  15.069 -1.4275 -1.4283 -0.7136
13515TIP3    H261961   6.788   1.807  15.080 -0.4043 -0.1330  0.2031
13516TIP3   OH261962   6.400   4.751   4.609  0.2398  0.1795  0.2467
13516TIP3    H161963   6.467   4.774   4.674  0.1122 -0.8777  0.7831
13516TIP3    H261964   6.326   4.720   4.661 -0.1126 -0.0459 -0.3814
13517TIP3   OH261965   5.087   0.563   3.055 -0.5803  1.4894  0.1398
13517TIP3    H161966   5.158   0.559   3.119 -2.0735 -0.3267  1.8452
13517TIP3    H261967   5.074   0.656   3.039  1.0074  1.9255  1.1336
13518TIP3   OH261968   5.359   6.490   4.189 -0.4616  0.1888 -0.2158
13518TIP3    H161969   5.317   6.503   4.274 -0.8209  0.1626 -0.3864
13518TIP3    H261970   5.400   6.404   4.197 -0.4121  0.2268 -0.0372
13519TIP3   OH261971   1.163   1.120   6.326 -0.0165 -0.2229  0.5546
13519TIP3    H161972   1.171   1.207   6.287  0.1333 -0.1984  0.6415
13519TIP3    H261973   1.112   1.134   6.405 -1.2678 -0.4347 -0.1918
13520TIP3   OH261974   3.655   1.117  11.218  0.0065 -0.0424  0.7791
13520TIP3    H161975   3.609   1.076  11.144 -0.6101 -0.1676  1.2173
13520TIP3    H261976   3.695   1.195  11.182  0.6975 -0.7178  0.0554
13521TIP3   OH261977   0.889   5.155  10.970  0.1079 -0.2279  0.0664
13521TIP3    H161978   0.797   5.133  10.984  0.5766 -1.6840  1.1210
13521TIP3    H261979   0.916   5.099  10.897 -0.8503  3.2649 -3.3106
13522TIP3   OH261980   2.054   6.211  15.297 -0.0524 -0.1566 -0.7499
13522TIP3    H161981   2.041   6.299  15.261 -0.3688  0.4622  0.8154
13522TIP3    H261982   2.057   6.155  15.219 -1.0070  1.0791 -1.7474
13523TIP3   OH261983   2.326   5.831   2.333 -0.0126 -0.4996  0.3714
13523TIP3    H161984   2.260   5.869   2.275 -0.2486 -1.1643  0.2045
13523TIP3    H261985   2.301   5.861   2.421  0.9009  1.3372  0.0659
13524TIP3   OH261986   2.455   5.759  11.943  0.5665 -0.3058  0.1032
13524TIP3    H161987   2.369   5.750  11.900  1.4232 -1.5014 -1.4786
13524TIP3    H261988   2.437   5.741  12.035 -1.3464  2.2843  0.3602
13525TIP3   OH261989   1.346   3.081   5.489 -0.0543  0.4176  0.2289
13525TIP3    H161990   1.324   2.988   5.483 -1.4038  0.7454 -0.1324
13525TIP3    H261991   1.277   3.126   5.440  1.4206  1.5088 -0.9456
13526TIP3   OH261992   1.101   5.647  11.120  0.1206 -0.0221 -0.0009
13526TIP3    H161993   1.037   5.583  11.152 -0.6512 -0.0348 -1.4662
13526TIP3    H261994   1.097   5.638  11.024  0.7777  1.4686 -0.1950
13527TIP3   OH261995   6.096   4.041   1.796 -0.4182  0.0474 -0.1339
13527TIP3    H161996   6.004   4.057   1.776 -0.5806 -1.6340 -0.8740
13527TIP3    H261997   6.099   4.033   1.891 -1.1967 -0.7433 -0.1665
13528TIP3   OH261998   5.705   1.572   2.768 -0.5169  0.0583  0.1115
13528TIP3    H161999   5.700   1.480   2.742 -1.7057  0.1657 -0.1003
13528TIP3    H262000   5.767   1.611   2.706 -0.5667 -0.4469 -0.2641
13529TIP3   OH262001   3.728   5.924  11.794  0.1873 -0.2569  0.0566
13529TIP3    H162002   3.647   5.974  11.802  0.8754  0.9035  0.0320
13529TIP3    H262003   3.797   5.987  11.816  1.1870 -0.7889 -1.4318
13530TIP3   OH262004   2.036   1.860  14.135 -0.1671  0.4104 -0.1776
13530TIP3    H162005   2.081   1.906  14.206 -0.2143  1.1705 -0.6307
13530TIP3    H262006   2.095   1.788  14.112  1.3113  1.9140 -1.3815
13531TIP3   OH262007   5.437   4.446  16.141  0.0397  0.0883  0.0708
13531TIP3    H162008   5.382   4.483  16.072 -0.7149 -0.5869  0.2909
13531TIP3    H262009   5.392   4.470  16.223  1.5828  1.9740  0.4281
13532TIP3   OH262010   0.793   4.900  11.572 -0.3440 -0.0067  0.2514
13532TIP3    H162011   0.712   4.872  11.530  0.1750 -0.4376 -0.5011
13532TIP3    H262012   0.816   4.828  11.630 -0.1856 -0.1601  0.0024
13533TIP3   OH262013   4.196   0.261  14.909  0.2169  0.6224  0.4708
13533TIP3    H162014   4.247   0.216  14.842 -0.3964 -0.9771  1.0333
13533TIP3    H262015   4.232   0.350  14.911  1.3015  0.2449 -0.8534
13534TIP3   OH262016   4.371   5.570  10.581  0.9541 -0.1984  0.4046
13534TIP3    H162017   4.397   5.495  10.634  0.0516 -0.8991 -0.1068
13534TIP3    H262018   4.452   5.598  10.538  1.5323 -0.1200  1.5144
13535TIP3   OH262019   0.509   0.447   4.789 -0.3627 -0.4316  0.0082
13535TIP3    H162020   0.528   0.367   4.741 -0.5521 -0.5491  0.1268
13535TIP3    H262021   0.459   0.418   4.866  0.0373 -0.2594  0.3403
13536TIP3   OH262022   0.003   1.182   6.353 -0.0401  0.0276 -0.3250
13536TIP3    H162023  -0.008   1.101   6.402  0.7736 -0.4863 -0.9530
13536TIP3    H262024   0.053   1.156   6.276 -0.7653  0.9202 -1.1258
13537TIP3   OH262025   0.082   0.442   0.779 -0.0401 -0.1268 -0.3044
13537TIP3    H162026   0.009   0.499   0.801 -0.0212 -0.3851  0.4630
13537TIP3    H262027   0.160   0.492   0.801 -0.0080 -0.1716 -0.3151
13538TIP3   OH262028   2.029   3.811   5.868  0.8272 -0.0325  0.1741
13538TIP3    H162029   2.075   3.800   5.951  1.2434 -0.1181 -0.0662
13538TIP3    H262030   1.954   3.752   5.873  1.8438 -1.4065 -0.2348
13539TIP3   OH262031   1.011   2.399  14.123 -0.0227 -0.0143 -0.6760
13539TIP3    H162032   0.942   2.426  14.063 -0.1567  0.9533 -0.1107
13539TIP3    H262033   1.085   2.454  14.100 -0.0215  0.2366 -0.0768
13540TIP3   OH262034   6.153   5.472   1.160 -0.1773 -0.1268 -0.6152
13540TIP3    H162035   6.157   5.503   1.069 -1.9068  0.9362 -0.3689
13540TIP3    H262036   6.112   5.543   1.208  1.2182 -0.4482  1.1486
13541TIP3   OH262037   6.089   2.256   4.994 -0.3794  0.5785 -0.6319
13541TIP3    H162038   6.170   2.231   4.948  0.6357  2.1109  0.2188
13541TIP3    H262039   6.039   2.305   4.928 -0.8187 -0.7122 -1.2817
13542TIP3   OH262040   4.308   6.444  15.371 -0.3401 -0.0976  0.4050
13542TIP3    H162041   4.315   6.499  15.449  1.4071  0.3060  0.0237
13542TIP3    H262042   4.392   6.397  15.368 -0.3066  0.0004 -1.2962
13543TIP3   OH262043   0.842   1.852   0.109 -0.1139 -0.1178 -1.0106
13543TIP3    H162044   0.881   1.817   0.029  1.7813  1.0214 -0.6398
13543TIP3    H262045   0.837   1.777   0.168 -0.7533 -0.7838 -1.8809
13544TIP3   OH262046   0.933   1.358   0.985 -0.3202  0.1530  0.0006
13544TIP3    H162047   0.839   1.340   0.976 -0.7889  2.6142 -0.6093
13544TIP3    H262048   0.955   1.410   0.908  1.3939  0.2994  0.5545
13545TIP3   OH262049   2.116   2.818  12.822  0.0561 -0.2410  0.2559
13545TIP3    H162050   2.184   2.778  12.876 -0.6488  1.3613  2.5109
13545TIP3    H262051   2.138   2.911  12.822 -0.5907 -0.0667 -1.3628
13546TIP3   OH262052   6.477   0.548   3.560  0.2105 -0.2138 -0.8428
13546TIP3    H162053   6.410   0.574   3.496  1.4637 -0.8393 -2.4892
13546TIP3    H262054   6.547   0.612   3.548  0.2682 -0.0505  0.2858
13547TIP3   OH262055   0.078   0.967  12.529 -0.4925  0.1002 -0.4717
13547TIP3    H162056   0.140   0.956  12.601  0.6382 -0.7785 -1.5395
13547TIP3    H262057   0.129   0.946  12.450 -1.5277  1.6087 -1.5905
13548TIP3   OH262058   3.134   2.269   1.537  0.1088  0.0362 -0.1982
13548TIP3    H162059   3.148   2.357   1.572 -1.3558 -0.4935  1.8763
13548TIP3    H262060   3.046   2.246   1.564  0.1140 -1.7429 -1.5103
13549TIP3   OH262061   5.149   4.313  12.314  0.7291 -0.4382 -0.5003
13549TIP3    H162062   5.157   4.227  12.272 -0.5725 -0.5279 -0.5855
13549TIP3    H262063   5.057   4.318  12.341  1.4281 -0.3331  2.2009
13550TIP3   OH262064   2.614   3.284  16.924  0.0114  0.3952 -0.2779
13550TIP3    H162065   2.543   3.220  16.930 -0.7892  1.3132  0.4029
13550TIP3    H262066   2.692   3.235  16.950 -0.7832 -0.0081  1.5552
13551TIP3   OH262067   4.123   0.402   1.666  0.1769 -0.0066 -0.3800
13551TIP3    H162068   4.189   0.378   1.732  0.0948 -0.4209 -0.4490
13551TIP3    H262069   4.056   0.334   1.672  0.6080 -0.5644 -1.5125
13552TIP3   OH262070   5.764   2.960  16.091 -0.3089  0.7098 -0.9298
13552TIP3    H162071   5.686   2.947  16.145  0.5970 -0.3591  0.1822
13552TIP3    H262072   5.768   3.055  16.078 -3.3196  0.6498 -3.4380
13553TIP3   OH262073   4.284   3.867  15.606  0.3232  0.2824 -0.1911
13553TIP3    H162074   4.214   3.807  15.581  0.2775  0.3507 -0.2269
13553TIP3    H262075   4.269   3.883  15.700  1.6932 -1.5963  0.4158
13554TIP3   OH262076   4.009   6.598  17.011 -0.1952 -0.5109  0.2191
13554TIP3    H162077   3.988   6.623  16.921  1.1422 -1.1042 -0.2758
13554TIP3    H262078   3.936   6.633  17.063 -2.1816 -2.1217 -1.3236
13555TIP3   OH262079   4.320   6.477  12.807 -0.2274  0.1142 -0.7075
13555TIP3    H162080   4.316   6.432  12.723  0.5389  0.8431 -1.1486
13555TIP3    H262081   4.244   6.445  12.855 -0.9724  0.0800 -1.8703
13556TIP3   OH262082   1.913   5.442  12.091 -0.1903 -0.0829  0.5702
13556TIP3    H162083   1.832   5.392  12.096  0.1358 -0.5591  1.1162
13556TIP3    H262084   1.885   5.527  12.057 -0.9247 -0.2293  0.7731
13557TIP3   OH262085   2.613   2.207  13.587  0.0740  0.0951 -0.3648
13557TIP3    H162086   2.685   2.169  13.638 -0.2314 -0.0771 -0.0534
13557TIP3    H262087   2.564   2.131  13.555 -1.2005  0.2140  1.2070
13558TIP3   OH262088   0.788   1.671   5.001 -0.5593  0.0466  0.3038
13558TIP3    H162089   0.748   1.597   5.046 -1.5407  0.9800  1.0143
13558TIP3    H262090   0.848   1.631   4.937 -2.0352 -1.3883 -0.2522
13559TIP3   OH262091   3.324   1.402   3.603 -0.0474 -0.2997 -0.7226
13559TIP3    H162092   3.256   1.467   3.620  1.4632  0.6044  2.8680
13559TIP3    H262093   3.388   1.447   3.548 -0.1917  0.4322 -0.3012
13560TIP3   OH262094   6.535   1.704  14.873 -0.4412  0.0927  0.1013
13560TIP3    H162095   6.459   1.761  14.882 -0.4074  0.0236  0.8250
13560TIP3    H262096   6.598   1.735  14.938 -0.0248 -0.1334 -0.1865
13561TIP3   OH262097   4.407   1.640   6.450  0.1821  0.2783  0.3217
13561TIP3    H162098   4.364   1.554   6.452 -0.4585  0.5612 -0.6315
13561TIP3    H262099   4.500   1.620   6.451  0.0335 -0.4114  0.7193
13562TIP3   OH262100   4.007   3.498   5.786 -0.6748  0.1751 -0.4635
13562TIP3    H162101   4.037   3.424   5.733  0.1834  1.7436 -2.2667
13562TIP3    H262102   3.933   3.534   5.738 -0.2828  1.2439 -0.3072
13563TIP3   OH262103   0.051   6.118   0.394 -0.4222 -0.0614  0.5754
13563TIP3    H162104   0.028   6.032   0.428  1.6947 -1.3632 -1.0129
13563TIP3    H262105   0.102   6.159   0.464  0.0613 -0.8394  0.6932
13564TIP3   OH262106   0.587   3.333  16.923 -0.2033  0.0834 -0.1618
13564TIP3    H162107   0.531   3.302  16.852  1.0578  1.6324 -1.9527
13564TIP3    H262108   0.557   3.422  16.939  0.1025  0.0449  0.6391
13565TIP3   OH262109   1.090   2.246  15.734  0.0455  0.0360 -0.3949
13565TIP3    H162110   1.134   2.181  15.680 -0.9582 -1.4784  0.5384
13565TIP3    H262111   1.010   2.202  15.764 -0.7133  1.7396  0.1848
13566TIP3   OH262112   6.093   1.752  10.640 -0.0305  0.1710  0.1374
13566TIP3    H162113   6.147   1.688  10.686  1.0650  0.5574 -0.5530
13566TIP3    H262114   6.065   1.707  10.560  0.3909  0.4038 -0.1453
13567TIP3   OH262115   1.160   4.384   1.290  0.4859  0.2990 -0.2631
13567TIP3    H162116   1.099   4.394   1.217  0.6655 -1.7015 -0.7236
13567TIP3    H262117   1.240   4.350   1.251 -0.0002 -2.5653  1.0199
13568TIP3   OH262118   0.261   4.130   3.587 -0.0256  0.6794 -0.2004
13568TIP3    H162119   0.287   4.074   3.513  0.8542  2.8034 -1.6044
13568TIP3    H262120   0.334   4.191   3.597 -0.2631  0.6467  2.2855
13569TIP3   OH262121   3.965   1.860   2.195 -0.4859  0.3083  0.1145
13569TIP3    H162122   4.035   1.916   2.229 -0.0565 -0.3644  0.3589
13569TIP3    H262123   3.912   1.839   2.273  0.1261 -0.7046  0.2814
13570TIP3   OH262124   0.251   0.016   1.212  0.3103  0.4222  0.4677
13570TIP3    H162125   0.270   0.110   1.215 -1.7689  0.8840  0.3672
13570TIP3    H262126   0.297  -0.020   1.288  2.4792  1.2016 -0.3769
13571TIP3   OH262127   5.944   1.915   0.003  0.3882 -0.0432 -0.2860
13571TIP3    H162128   5.918   1.936   0.092  0.1905 -2.8040  0.3826
13571TIP3    H262129   5.863   1.920  -0.048  0.3154  0.5285 -0.1203
13572TIP3   OH262130   1.475   2.452  14.829 -0.5904  0.3683  0.6406
13572TIP3    H162131   1.529   2.476  14.754  0.5656 -0.9207  1.0077
13572TIP3    H262132   1.462   2.357  14.820 -0.2576  0.1419  2.1353
13573TIP3   OH262133   4.611   5.923   5.503  0.4046 -0.3879  0.3334
13573TIP3    H162134   4.531   5.971   5.484 -0.3627 -1.4367  0.8076
13573TIP3    H262135   4.619   5.859   5.433  0.6518 -0.5027  0.4631
13574TIP3   OH262136   1.860   2.633   0.679 -0.1212 -0.1540 -0.2517
13574TIP3    H162137   1.931   2.675   0.729  0.7391 -1.8558  0.0455
13574TIP3    H262138   1.823   2.703   0.627  0.7150  1.1376  0.8099
13575TIP3   OH262139   4.784   5.568  12.293 -0.7054  0.6710  0.8438
13575TIP3    H162140   4.837   5.520  12.357 -0.6752 -0.2270  0.1689
13575TIP3    H262141   4.836   5.564  12.212 -1.6425  0.0487  0.2477
13576TIP3   OH262142   0.248   6.530  13.941  0.1630  0.2351 -0.0005
13576TIP3    H162143   0.163   6.505  13.977 -1.2738  1.9447 -1.9621
13576TIP3    H262144   0.256   6.480  13.860  0.3994  1.0233 -0.4827
13577TIP3   OH262145   4.246   2.617  12.715 -0.3723  0.4132 -0.1838
13577TIP3    H162146   4.170   2.595  12.661 -0.8440 -0.1208  0.6681
13577TIP3    H262147   4.211   2.621  12.805 -0.0747  3.4871 -0.1160
13578TIP3   OH262148   4.015   3.627  12.579 -0.0898  0.0545  0.2005
13578TIP3    H162149   4.071   3.702  12.599  0.6107 -0.5714  0.6410
13578TIP3    H262150   3.926   3.663  12.581  0.1969  0.7684  0.9230
13579TIP3   OH262151   4.483   0.299   5.269 -0.5138  0.4390  0.0080
13579TIP3    H162152   4.440   0.259   5.344 -2.7551  1.0561 -0.8501
13579TIP3    H262153   4.484   0.393   5.288  1.9888  0.3473  0.6899
13580TIP3   OH262154   5.321   5.775   3.180  0.6822 -0.1124 -0.0914
13580TIP3    H162155   5.288   5.863   3.162  1.8224  0.9327  2.4838
13580TIP3    H262156   5.243   5.719   3.178 -0.6062  1.5206  1.4296
13581TIP3   OH262157   4.684   5.777   0.260 -0.1402 -0.0739  0.0556
13581TIP3    H162158   4.759   5.721   0.242 -0.5478 -0.2929 -1.0443
13581TIP3    H262159   4.721   5.865   0.270  0.3155 -0.2723  0.1189
13582TIP3   OH262160   5.101   4.211   3.969  0.4416 -0.0436 -0.2674
13582TIP3    H162161   5.106   4.277   3.900  1.1017 -1.1777 -1.3386
13582TIP3    H262162   5.008   4.186   3.971  0.3648  0.2098 -0.5415
13583TIP3   OH262163   3.698   3.306   2.360 -0.6710  0.4502  0.5083
13583TIP3    H162164   3.774   3.314   2.303 -0.6971  0.3967  0.4671
13583TIP3    H262165   3.623   3.315   2.302 -0.7530 -2.0557  0.1479
13584TIP3   OH262166   3.166   2.429  12.970 -0.5279 -0.2910 -0.1047
13584TIP3    H162167   3.226   2.395  13.035  0.0799  0.0860 -0.4600
13584TIP3    H262168   3.079   2.399  12.999 -1.0925  3.9313  3.7502
13585TIP3   OH262169   5.071   4.378   0.907 -0.2536 -0.1614 -0.0540
13585TIP3    H162170   5.108   4.406   0.991  1.2092 -0.7157 -0.4850
13585TIP3    H262171   4.988   4.337   0.930  0.0384 -0.1366  1.1048
13586TIP3   OH262172   3.182   2.708  14.005 -0.0082  0.1342  0.0739
13586TIP3    H162173   3.145   2.790  14.037 -1.8660 -0.0964 -1.2733
13586TIP3    H262174   3.276   2.724  13.999 -0.0267  1.2917  2.2010
13587TIP3   OH262175   3.963   4.090   2.174  0.5708 -0.3328 -0.4359
13587TIP3    H162176   4.026   4.132   2.115  1.4582  3.2397  2.6673
13587TIP3    H262177   3.878   4.125   2.147  0.7226 -0.2381 -0.7952
13588TIP3   OH262178   3.305   4.807   1.517 -0.1312  0.0640 -0.2979
13588TIP3    H162179   3.266   4.743   1.576  0.1179  1.3582  1.3482
13588TIP3    H262180   3.399   4.790   1.521 -0.1189  0.1081 -0.3826
13589TIP3   OH262181   1.778   1.994   4.019  0.8857 -0.2471 -0.2611
13589TIP3    H162182   1.711   1.999   4.087  1.0389  2.0611 -0.2003
13589TIP3    H262183   1.857   1.966   4.066  0.7933  0.5234  0.3745
13590TIP3   OH262184   5.294   3.530  12.944  0.1200  0.1865  0.1778
13590TIP3    H162185   5.263   3.609  12.899  0.4805 -0.8102 -1.9520
13590TIP3    H262186   5.355   3.562  13.010  1.0496  1.6633 -1.3257
13591TIP3   OH262187   5.301   2.073  12.789  0.1965  0.0926  0.1943
13591TIP3    H162188   5.374   2.115  12.836 -0.8084 -0.0596  1.9980
13591TIP3    H262189   5.249   2.146  12.756  0.3203  0.2235  0.2865
13592TIP3   OH262190   4.647   2.854   1.621  0.0200 -0.3146 -0.1412
13592TIP3    H162191   4.609   2.779   1.667  2.2382 -0.1097  2.2161
13592TIP3    H262192   4.727   2.874   1.669 -0.0927  3.1403 -1.1491
13593TIP3   OH262193   4.412   3.032  12.401 -0.2610  0.4632 -0.4162
13593TIP3    H162194   4.466   3.068  12.472  2.5476 -1.3729 -1.4300
13593TIP3    H262195   4.381   2.948  12.435 -1.4949  0.9470 -0.3057
13594TIP3   OH262196   1.629   5.648   0.996  1.0774  0.0438  0.5772
13594TIP3    H162197   1.696   5.626   1.062  0.5513 -1.9582  0.4961
13594TIP3    H262198   1.630   5.744   0.993  0.5122  0.3333  4.1830
13595TIP3   OH262199   5.235   4.915  13.063  0.4280 -0.3045 -0.1339
13595TIP3    H162200   5.205   4.995  13.106  1.8874  1.5943 -2.3915
13595TIP3    H262201   5.156   4.875  13.027 -0.4522 -0.5108  1.9021
13596TIP3   OH262202   1.378   3.249   0.036  0.1321  0.4513 -0.2821
13596TIP3    H162203   1.430   3.169   0.037 -2.0755 -1.1162  2.3470
13596TIP3    H262204   1.368   3.270  -0.057  2.1599 -1.3063 -0.9906
13597TIP3   OH262205   0.497   5.975   1.229 -0.1688  0.1636  0.4555
13597TIP3    H162206   0.449   5.991   1.147 -0.0041  0.9561  0.5031
13597TIP3    H262207   0.535   5.888   1.218 -0.1548  0.2561 -0.3085
13598TIP3   OH262208   0.655   1.772  11.916 -0.6529  0.4920 -0.2700
13598TIP3    H162209   0.727   1.758  11.855 -1.4918  0.4768 -1.3049
13598TIP3    H262210   0.647   1.867  11.923 -1.8561  0.5696 -1.8754
13599TIP3   OH262211   0.670   0.355   5.345  0.4160 -0.2065  0.2991
13599TIP3    H162212   0.637   0.444   5.362 -0.0348 -0.2337 -0.4001
13599TIP3    H262213   0.765   0.363   5.351  0.3745  0.3030  0.3418
13600TIP3   OH262214   2.572   0.486  13.372  0.5173  0.6890 -0.0937
13600TIP3    H162215   2.508   0.487  13.301  0.6497 -0.8096 -0.2718
13600TIP3    H262216   2.639   0.423  13.343  0.3102 -0.3653  1.5559
13601TIP3   OH262217   2.990   4.665   2.937  0.2551 -0.1420  0.3732
13601TIP3    H162218   2.915   4.698   2.986 -0.8573 -1.1207 -0.6196
13601TIP3    H262219   2.988   4.714   2.855  1.7101  1.0107  0.9809
13602TIP3   OH262220   2.775   5.107  15.476 -0.6624  0.1219 -0.3704
13602TIP3    H162221   2.728   5.148  15.403 -2.5663  1.3108  1.4117
13602TIP3    H262222   2.706   5.075  15.534  0.7963 -1.9324  0.3488
13603TIP3   OH262223   5.573   1.203   0.071  0.4822 -0.2252  0.1526
13603TIP3    H162224   5.568   1.130   0.009  0.6651  2.7401 -3.7013
13603TIP3    H262225   5.666   1.208   0.094  0.8358  0.0408 -1.2582
13604TIP3   OH262226   3.280   2.216  13.192  0.0388  0.0815 -0.0181
13604TIP3    H162227   3.238   2.204  13.277 -0.9202  1.1774 -0.3168
13604TIP3    H262228   3.221   2.173  13.129  0.9170 -1.0347 -0.1180
13605TIP3   OH262229   3.472   0.863   1.151  0.3718 -0.2658  0.0038
13605TIP3    H162230   3.530   0.861   1.227  2.0514  0.1574 -1.2274
13605TIP3    H262231   3.470   0.773   1.120  1.8664  0.0345 -1.0233
13606TIP3   OH262232   6.013   0.900   5.424 -0.1014 -0.5598 -0.0330
13606TIP3    H162233   5.978   0.824   5.472 -0.0200 -0.1382  0.7123
13606TIP3    H262234   6.031   0.965   5.492 -0.5360  0.2752 -0.6996
13607TIP3   OH262235   5.333   0.822   0.066 -0.3041  0.2168 -0.0780
13607TIP3    H162236   5.388   0.744   0.058  1.2025  1.1881  0.4564
13607TIP3    H262237   5.261   0.794   0.122 -0.2073 -0.9890 -0.5073
13608TIP3   OH262238   3.051   1.259   4.230  0.0442  0.2647 -0.4137
13608TIP3    H162239   3.003   1.238   4.310  1.2641 -0.0771  0.2547
13608TIP3    H262240   3.115   1.325   4.257  2.3917 -1.8851 -0.4027
13609TIP3   OH262241   2.751   1.949  14.106 -0.5161 -0.1828  0.2892
13609TIP3    H162242   2.735   1.976  14.196  0.5795 -0.9871  0.7551
13609TIP3    H262243   2.721   1.858  14.103 -1.2811  0.0843 -0.3851
13610TIP3   OH262244   1.799   6.663   3.096  0.5534  0.0162 -0.5459
13610TIP3    H162245   1.875   6.605   3.094  0.4376 -0.1190 -1.0993
13610TIP3    H262246   1.822   6.735   3.038  1.1081  1.0643  0.9032
13611TIP3   OH262247   0.657   0.729  11.421 -0.4056  0.3263 -0.5345
13611TIP3    H162248   0.751   0.713  11.415 -0.4386  0.3978 -1.4147
13611TIP3    H262249   0.618   0.671  11.355 -1.0921 -0.5934  0.6506
13612TIP3   OH262250   2.829   3.933  15.825  0.5986  0.1856 -0.0856
13612TIP3    H162251   2.838   3.864  15.759 -0.6369 -0.2725  0.1887
13612TIP3    H262252   2.781   3.891  15.897 -0.0365  1.2794  0.1501
13613TIP3   OH262253   0.980   0.168   1.585 -0.1235  0.6160 -0.5873
13613TIP3    H162254   0.976   0.139   1.676 -0.3874  3.6788  0.5043
13613TIP3    H262255   0.888   0.172   1.557  0.0010 -1.5145 -1.5017
13614TIP3   OH262256   3.049   6.616  14.166 -0.4160 -0.2349  0.0740
13614TIP3    H162257   3.080   6.637  14.078  2.7537  0.6935  1.2464
13614TIP3    H262258   3.068   6.695  14.217 -0.5756 -1.3230  1.9180
13615TIP3   OH262259   2.328   5.083  17.155  0.0012 -0.5352  0.0447
13615TIP3    H162260   2.393   5.153  17.165 -0.4404 -0.1174 -0.0096
13615TIP3    H262261   2.325   5.041  17.241  0.2725 -0.4920  0.0764
13616TIP3   OH262262   0.757   1.826  13.708  0.0183  0.0351  0.0961
13616TIP3    H162263   0.816   1.776  13.764  0.0768  1.2360  1.1447
13616TIP3    H262264   0.685   1.766  13.689  0.5694 -0.7713  0.4745
13617TIP3   OH262265   0.257   3.186   2.129  0.2449  0.2900 -0.6620
13617TIP3    H162266   0.168   3.191   2.093 -0.1106  1.3780  0.3328
13617TIP3    H262267   0.294   3.273   2.112  0.8093  0.1292 -0.2571
13618TIP3   OH262268   4.225   0.173   3.574 -1.1125 -0.3327  0.8043
13618TIP3    H162269   4.193   0.136   3.657 -1.2091  0.3035  1.0577
13618TIP3    H262270   4.225   0.267   3.589  0.4580 -0.2861  0.6541
13619TIP3   OH262271   0.669   6.099   3.032 -0.4099 -0.0383  0.2901
13619TIP3    H162272   0.673   6.017   2.982  0.0714 -1.0890  1.9726
13619TIP3    H262273   0.576   6.116   3.042 -0.5577  1.1094 -2.3223
13620TIP3   OH262274   1.407   1.503   0.751 -0.4562 -0.0300  0.5340
13620TIP3    H162275   1.356   1.500   0.670  0.5692 -0.4973 -0.1255
13620TIP3    H262276   1.493   1.468   0.726  0.2704  0.9621  1.5353
13621TIP3   OH262277   5.245   0.547   4.917 -0.0232 -0.0829  0.0765
13621TIP3    H162278   5.279   0.464   4.950 -1.0680 -0.7824 -0.5434
13621TIP3    H262279   5.302   0.613   4.955 -1.3780 -0.7581  3.7236
13622TIP3   OH262280   3.838   5.746   2.815 -0.3984 -0.2192 -0.8175
13622TIP3    H162281   3.851   5.807   2.743  2.2449 -0.1355 -0.3558
13622TIP3    H262282   3.821   5.801   2.891 -0.0883 -0.1601 -0.7916
13623TIP3   OH262283   3.066   0.751   0.121 -0.4700 -0.7870  0.7381
13623TIP3    H162284   3.115   0.694   0.062 -3.0757 -1.2637 -1.1657
13623TIP3    H262285   3.013   0.806   0.063  1.5429  3.4198  2.4762
13624TIP3   OH262286   3.509   1.715   0.171 -0.2553 -0.2631 -0.1268
13624TIP3    H162287   3.532   1.632   0.212 -0.6863 -0.4637 -0.2833
13624TIP3    H262288   3.494   1.775   0.244  1.0353 -0.0399 -0.0202
13625TIP3   OH262289   4.245   5.731   1.389  0.0849  0.7240 -0.7014
13625TIP3    H162290   4.291   5.797   1.441 -1.8625  1.5250  0.1170
13625TIP3    H262291   4.156   5.731   1.424 -0.7593 -0.2074 -2.6812
13626TIP3   OH262292   5.212   1.867  14.596 -0.6434  1.1450  0.0921
13626TIP3    H162293   5.295   1.903  14.628  0.1216 -1.1846  0.9093
13626TIP3    H262294   5.157   1.860  14.674  0.7006 -3.1456  0.9023
13627TIP3   OH262295   5.531   0.933   4.275 -0.1627 -0.4638 -0.6280
13627TIP3    H162296   5.468   0.868   4.306 -0.2402 -0.0841  0.0507
13627TIP3    H262297   5.522   0.933   4.180 -0.5058 -1.0963 -0.5987
13628TIP3   OH262298   0.851   5.450   0.632 -0.6099  0.4612  0.1148
13628TIP3    H162299   0.875   5.359   0.648 -1.4110  0.4991  1.7914
13628TIP3    H262300   0.760   5.446   0.602 -0.1386  0.6310 -1.4335
13629TIP3   OH262301   2.498   1.661  12.983 -0.0197  0.0433 -0.1590
13629TIP3    H162302   2.537   1.695  13.064 -0.2839  2.2719 -0.9183
13629TIP3    H262303   2.407   1.688  12.986 -0.0568  0.0748 -1.1639
13630TIP3   OH262304   2.014   2.135  16.727 -0.5462 -0.1440 -0.0904
13630TIP3    H162305   1.954   2.102  16.659 -0.7129 -0.8475  0.3875
13630TIP3    H262306   1.960   2.136  16.806 -0.3511  0.6757  0.0324
13631TIP3   OH262307   1.855   5.308  11.051 -0.1373  0.7542 -0.0649
13631TIP3    H162308   1.890   5.219  11.050 -0.9380  0.3363  2.5289
13631TIP3    H262309   1.782   5.306  10.989  0.8052  0.0748 -1.1994
13632TIP3   OH262310   1.177   1.056   0.491  0.2676  0.1049  0.8552
13632TIP3    H162311   1.267   1.055   0.522 -0.1452 -2.6928  2.2878
13632TIP3    H262312   1.183   1.028   0.399  0.8877  0.1886  0.8661
13633TIP3   OH262313   4.177   0.160   5.379 -0.1133  0.3808 -0.3179
13633TIP3    H162314   4.150   0.069   5.367  0.9701  0.1551 -1.1423
13633TIP3    H262315   4.238   0.158   5.453 -1.2388  0.6935  0.6643
13634TIP3   OH262316   6.400   0.270   0.640 -0.1489 -0.2167 -0.4891
13634TIP3    H162317   6.363   0.332   0.703  0.2867  0.1621 -0.6009
13634TIP3    H262318   6.395   0.314   0.556 -0.4718 -0.6119 -0.6817
13635TIP3   OH262319   2.622   3.987   4.925 -0.3016 -0.1141  0.6591
13635TIP3    H162320   2.550   4.043   4.897  0.0854  0.5920  1.0393
13635TIP3    H262321   2.659   3.952   4.843 -1.5207 -1.0810  0.4956
13636TIP3   OH262322   4.892   5.475   2.288  0.4247  0.2903 -1.0085
13636TIP3    H162323   4.815   5.430   2.254 -1.5796  1.3441  1.7231
13636TIP3    H262324   4.877   5.567   2.267  1.0546  0.4748 -0.6685
13637TIP3   OH262325   6.042   2.279  16.102 -0.0939 -0.8242  0.2580
13637TIP3    H162326   6.116   2.220  16.085  0.9832  0.6347 -0.2924
13637TIP3    H262327   6.073   2.365  16.074 -1.8248 -0.0769  0.5254
13638TIP3   OH262328   5.823   5.516  15.042  0.1744  0.1678 -0.3892
13638TIP3    H162329   5.909   5.507  15.082  1.1211 -2.7790 -2.6774
13638TIP3    H262330   5.838   5.564  14.961  0.0763 -1.6874 -1.5810
13639TIP3   OH262331   5.556   1.814  14.905  0.1274 -0.4211  0.5171
13639TIP3    H162332   5.554   1.904  14.875 -1.0328 -0.9439 -1.1174
13639TIP3    H262333   5.629   1.774  14.858  0.1860 -0.5124  0.6853
13640TIP3   OH262334   1.578   4.922  17.109 -0.7415 -0.0233  0.2603
13640TIP3    H162335   1.506   4.891  17.054 -1.0612  1.2604 -0.0742
13640TIP3    H262336   1.652   4.929  17.049 -1.6606  3.7052 -0.7384
13641TIP3   OH262337   1.443   1.932  11.631 -0.3207 -0.1093 -0.0122
13641TIP3    H162338   1.521   1.972  11.592 -0.3416 -0.9480 -0.9441
13641TIP3    H262339   1.379   1.930  11.560 -0.1951 -2.1323 -0.1218
13642TIP3   OH262340   3.060   3.396  10.162  0.0760  0.2511 -0.2433
13642TIP3    H162341   3.056   3.382  10.257  0.4021  1.7766  0.0226
13642TIP3    H262342   3.151   3.416  10.144  0.5997 -2.5536 -1.3356
13643TIP3   OH262343   1.357   2.513   0.198 -0.5254 -0.0286  0.5998
13643TIP3    H162344   1.334   2.493   0.288 -1.1814  2.3648  1.0168
13643TIP3    H262345   1.453   2.520   0.198 -0.3421 -1.8321  0.6394
13644TIP3   OH262346   3.961   0.746  11.540 -0.3718  0.0349  0.0533
13644TIP3    H162347   4.032   0.802  11.571 -0.0419 -1.5695  2.4812
13644TIP3    H262348   4.005   0.668  11.506 -0.9283 -0.2872  0.0610
13645TIP3   OH262349   2.059   1.178   3.557  0.3817 -0.4448  0.5467
13645TIP3    H162350   2.003   1.160   3.481  0.8635 -1.6004  0.4525
13645TIP3    H262351   2.147   1.185   3.521  0.5424 -0.4684  0.9299
13646TIP3   OH262352   6.735   3.442  15.404 -0.5962  0.1563  0.0483
13646TIP3    H162353   6.684   3.406  15.331  0.0918 -0.6598 -0.0382
13646TIP3    H262354   6.818   3.467  15.364 -0.5128  0.4583  0.4054
13647TIP3   OH262355   3.232   2.538   1.651  0.1544 -0.1774  0.5170
13647TIP3    H162356   3.152   2.578   1.684 -0.9471 -2.3637  0.6862
13647TIP3    H262357   3.283   2.517   1.729 -1.2173 -2.8539  0.8158
13648TIP3   OH262358   3.995   2.439   2.561  0.1187  0.1913  0.5772
13648TIP3    H162359   3.911   2.400   2.587 -0.1227  0.0862 -0.3332
13648TIP3    H262360   3.972   2.506   2.497  0.7894 -0.6071 -0.5493
13649TIP3   OH262361   2.324   1.052   2.926  0.0272 -0.7646  0.1783
13649TIP3    H162362   2.230   1.045   2.939  0.0315 -1.1891 -0.0187
13649TIP3    H262363   2.344   0.992   2.853  0.5041 -0.9734  0.4729
13650TIP3   OH262364   6.460   3.998  12.061 -0.1670 -0.3961  0.0245
13650TIP3    H162365   6.465   3.964  11.972  0.2262 -0.2533 -0.0087
13650TIP3    H262366   6.369   4.025  12.071 -0.5072 -1.5421  0.0826
13651TIP3   OH262367   5.182   1.878   1.894  0.3294 -0.4411 -0.0106
13651TIP3    H162368   5.138   1.957   1.928 -3.7607 -2.0689 -0.9282
13651TIP3    H262369   5.215   1.905   1.808  0.7144  0.7315  0.4781
13652TIP3   OH262370   6.739   2.394  11.521  0.7007 -1.0189  0.8323
13652TIP3    H162371   6.687   2.329  11.567 -0.4922  1.0126  2.5051
13652TIP3    H262372   6.808   2.418  11.582  0.6633 -0.1648  0.5561
13653TIP3   OH262373   2.583   4.405  12.270  0.4424  0.5670 -0.0456
13653TIP3    H162374   2.594   4.492  12.233  0.8524  0.4751 -0.1428
13653TIP3    H262375   2.638   4.348  12.215 -0.6171  0.0766 -0.6230
13654TIP3   OH262376   6.082   2.400  14.254 -0.1536  0.7794  0.8401
13654TIP3    H162377   6.092   2.422  14.347  0.2854 -1.2449  1.3346
13654TIP3    H262378   6.155   2.342  14.235 -0.9065  0.2061 -0.4499
13655TIP3   OH262379   6.195   2.810  11.548  0.4852 -0.0596 -0.0529
13655TIP3    H162380   6.157   2.831  11.463 -1.7643  2.4105  1.4013
13655TIP3    H262381   6.289   2.827  11.538  0.2557  0.1909 -2.0352
13656TIP3   OH262382   0.046   5.920   2.294 -0.4164 -0.3450  0.3973
13656TIP3    H162383   0.083   5.921   2.206 -1.9678 -0.0274 -0.2936
13656TIP3    H262384   0.024   6.011   2.312 -0.8870 -0.5216  0.7519
13657TIP3   OH262385   4.865   1.775   6.515  1.1866 -0.2507  0.3160
13657TIP3    H162386   4.807   1.700   6.522  1.4199 -0.3752  1.0873
13657TIP3    H262387   4.820   1.845   6.561  0.9251  0.1174 -0.4874
13658TIP3   OH262388   1.500   0.289   4.865 -0.6506  0.0484 -0.5759
13658TIP3    H162389   1.490   0.218   4.802 -1.9023 -0.1805 -0.1446
13658TIP3    H262390   1.423   0.282   4.922  0.0229  0.7701  0.4590
13659TIP3   OH262391   1.592   3.609   1.057  0.4349  0.1440  0.7841
13659TIP3    H162392   1.628   3.689   1.020  3.2415 -0.8363  1.1169
13659TIP3    H262393   1.508   3.634   1.095 -0.3614  2.1607 -2.0466
13660TIP3   OH262394   4.058   1.198   1.104 -0.3313  0.2167 -0.1077
13660TIP3    H162395   4.075   1.198   1.010  1.0937 -0.7671  0.1261
13660TIP3    H262396   4.005   1.120   1.119  1.4660 -1.0060  0.1977
13661TIP3   OH262397   2.665   1.501   2.341 -0.0772  0.0736 -0.5519
13661TIP3    H162398   2.743   1.548   2.311  0.4320 -0.0379  0.5561
13661TIP3    H262399   2.629   1.462   2.261  0.9897  0.1474 -1.0911
13662TIP3   OH262400   1.651   3.172   4.244  0.2105 -0.7906  0.1579
13662TIP3    H162401   1.590   3.205   4.310  2.1434 -0.1834  1.7213
13662TIP3    H262402   1.715   3.242   4.233  0.4698 -1.2689 -1.6978
13663TIP3   OH262403   0.274   2.226  15.132  0.3860 -0.1383  0.2176
13663TIP3    H162404   0.321   2.145  15.148  2.4360  1.0349  0.4842
13663TIP3    H262405   0.287   2.243  15.038 -2.2745 -1.3732 -0.4861
13664TIP3   OH262406   5.332   0.067  13.964  0.1761 -0.3465 -0.0823
13664TIP3    H162407   5.250   0.024  13.942  0.3368 -0.1364 -1.1388
13664TIP3    H262408   5.349   0.041  14.055 -1.6503  0.5666  0.5723
13665TIP3   OH262409   3.197   2.241  14.196 -0.0749  0.0404 -0.0151
13665TIP3    H162410   3.166   2.208  14.281 -1.6797  2.1432  0.3049
13665TIP3    H262411   3.267   2.303  14.219 -0.0911  0.1533 -0.2634
13666TIP3   OH262412   5.894   0.003   3.351 -0.2184  0.3584 -0.0964
13666TIP3    H162413   5.984   0.024   3.374  0.2821 -0.1062 -1.5272
13666TIP3    H262414   5.841   0.045   3.419  1.0269  1.2579  0.3476
13667TIP3   OH262415   1.352   5.283   5.385  0.3298 -0.1474 -0.1035
13667TIP3    H162416   1.366   5.255   5.295  0.4163 -1.8664  0.4092
13667TIP3    H262417   1.390   5.213   5.438 -0.2269  0.5531  1.2768
13668TIP3   OH262418   4.117   3.035   3.298 -0.2995  0.2249  0.0262
13668TIP3    H162419   4.174   2.960   3.314 -0.6274  0.2029  1.1709
13668TIP3    H262420   4.096   3.068   3.385  0.1706  1.9124 -0.4620
13669TIP3   OH262421   2.353   1.915  12.311 -0.2099  0.5855  0.3096
13669TIP3    H162422   2.269   1.879  12.280 -0.9740 -0.0554  2.9009
13669TIP3    H262423   2.410   1.839  12.316  0.3132  0.8932 -0.6354
13670TIP3   OH262424   1.894   1.907   2.592  0.2051 -0.2361 -0.9903
13670TIP3    H162425   1.828   1.920   2.524 -0.4619  0.2478 -0.2743
13670TIP3    H262426   1.903   1.812   2.599 -0.1081 -0.2967 -1.3774
13671TIP3   OH262427   4.313   4.654   4.956 -0.3292  0.4170 -0.1848
13671TIP3    H162428   4.227   4.621   4.932  0.4412 -2.0564  0.1347
13671TIP3    H262429   4.371   4.625   4.885  0.8743 -1.5773  1.4770
13672TIP3   OH262430   4.103   3.638   4.705 -0.8680  0.0493 -0.3552
13672TIP3    H162431   4.057   3.559   4.679  0.9417 -1.5085  0.9043
13672TIP3    H262432   4.163   3.657   4.632 -0.9987  0.0017 -0.4736
13673TIP3   OH262433   0.200   1.692  10.571  0.6977 -0.2462 -0.6813
13673TIP3    H162434   0.110   1.662  10.560  0.3125  1.0619 -1.2144
13673TIP3    H262435   0.233   1.640  10.644 -0.4575 -0.8033 -0.5295
13674TIP3   OH262436   2.130   4.859  14.769  0.2243 -0.2882 -0.4174
13674TIP3    H162437   2.147   4.805  14.847 -0.5499 -2.6498 -1.7946
13674TIP3    H262438   2.216   4.890  14.743  0.7156 -0.9199  0.3852
13675TIP3   OH262439   4.224   5.538  17.063 -0.2190  0.3096  0.2997
13675TIP3    H162440   4.196   5.614  17.013 -1.6384 -0.3894 -0.0093
13675TIP3    H262441   4.196   5.557  17.153 -0.9258 -0.0135  0.1499
13676TIP3   OH262442   3.276   1.126   5.891 -0.4126  0.0371  0.3641
13676TIP3    H162443   3.349   1.184   5.870  0.1060 -0.1444  1.5906
13676TIP3    H262444   3.210   1.183   5.930  0.1193 -0.1792  1.6209
13677TIP3   OH262445   4.728   0.460  16.922 -0.1513 -0.2445  0.5313
13677TIP3    H162446   4.712   0.385  16.865 -0.2085 -0.0451  0.2868
13677TIP3    H262447   4.689   0.435  17.006 -3.7059  1.0783 -0.5876
13678TIP3   OH262448   6.160   3.469  17.203  0.2665 -0.1728  0.4069
13678TIP3    H162449   6.166   3.378  17.232  0.9151 -0.2395  0.0641
13678TIP3    H262450   6.175   3.465  17.109  0.5477  0.3163  0.4283
13679TIP3   OH262451   1.707   2.189   2.963 -0.0134  0.0404  1.1944
13679TIP3    H162452   1.757   2.131   3.021 -1.1929 -2.3236  0.0321
13679TIP3    H262453   1.760   2.268   2.955  3.7333 -2.3381 -0.1554
13680TIP3   OH262454   3.309   6.509   0.349  0.4001  0.4869 -0.3851
13680TIP3    H162455   3.228   6.528   0.396  0.3616  0.3798 -0.4092
13680TIP3    H262456   3.372   6.487   0.418  0.2741  0.0750 -0.4026
13681TIP3   OH262457   0.471   6.734   2.303  0.1962  0.2367 -0.1945
13681TIP3    H162458   0.535   6.765   2.239  2.3688 -2.6445  0.3711
13681TIP3    H262459   0.477   6.796   2.376 -1.2333  2.7028 -2.0138
13682TIP3   OH262460   4.997   5.218   3.693  0.1128  0.0104  0.4350
13682TIP3    H162461   4.929   5.188   3.754  1.7641 -2.6261  1.0993
13682TIP3    H262462   5.075   5.229   3.748  1.1257 -0.4836 -0.8635
13683TIP3   OH262463   6.024   0.119   2.517  0.3201  0.3461  0.1805
13683TIP3    H162464   6.059   0.047   2.569 -0.2832 -0.0962 -0.0181
13683TIP3    H262465   6.030   0.195   2.575  1.1842  0.1987  0.3064
13684TIP3   OH262466   0.079   2.353   0.414  0.4840  0.0831  0.1869
13684TIP3    H162467   0.101   2.331   0.323  0.1461  0.9050 -0.1063
13684TIP3    H262468   0.151   2.409   0.442  0.5911 -0.1772  0.4327
13685TIP3   OH262469   6.699   1.873   0.478 -0.1082 -0.0753 -0.0753
13685TIP3    H162470   6.705   1.961   0.515 -0.1011  0.0040 -0.2642
13685TIP3    H262471   6.692   1.816   0.554  1.5829 -0.0560  0.1399
13686TIP3   OH262472   4.839   0.274  16.716 -0.6775  0.4598  0.4150
13686TIP3    H162473   4.825   0.204  16.652 -0.6256 -0.6333  1.5485
13686TIP3    H262474   4.909   0.327  16.680 -1.2276  0.3725 -0.8259
13687TIP3   OH262475   0.484   1.285   5.422  0.1608  0.3933  0.3228
13687TIP3    H162476   0.459   1.308   5.333  1.5797 -0.8970 -0.4631
13687TIP3    H262477   0.434   1.205   5.441 -0.0024  0.5648  0.6244
13688TIP3   OH262478   1.961   3.300  13.953 -0.0323 -0.1346  0.1136
13688TIP3    H162479   1.936   3.343  13.871  0.1205 -2.1905 -1.0889
13688TIP3    H262480   1.892   3.323  14.015 -0.7343  0.5663 -0.9115
13689TIP3   OH262481   4.394   3.572  15.592 -0.0563 -0.2589 -0.4796
13689TIP3    H162482   4.339   3.543  15.520 -1.5797 -1.7332  1.1683
13689TIP3    H262483   4.362   3.660  15.612  0.4649  0.2073 -1.6590
13690TIP3   OH262484   3.893   1.162  12.555 -0.2368  0.1764 -0.1627
13690TIP3    H162485   3.850   1.080  12.576  0.6483 -0.2641 -0.0303
13690TIP3    H262486   3.940   1.186  12.635 -1.4272  1.4372  0.2015
13691TIP3   OH262487   0.794   2.787   4.199  0.2747 -0.1750  0.5124
13691TIP3    H162488   0.790   2.880   4.222  1.1307 -0.2722  1.0960
13691TIP3    H262489   0.752   2.742   4.273  1.8822 -0.3989  1.3242
13692TIP3   OH262490   1.215   6.125   4.710  0.1817  0.2202  0.3253
13692TIP3    H162491   1.229   6.065   4.637 -2.7698 -1.5358  1.0706
13692TIP3    H262492   1.275   6.095   4.779 -0.4000 -1.1213  0.2581
13693TIP3   OH262493   3.543   2.839  12.789 -0.5945  0.1067 -0.5182
13693TIP3    H162494   3.479   2.902  12.756 -0.8316 -1.2600 -2.8852
13693TIP3    H262495   3.492   2.758  12.800  0.3064 -0.4581 -0.4510
13694TIP3   OH262496   5.476   5.229   3.713 -0.0675 -0.8468  0.1420
13694TIP3    H162497   5.439   5.206   3.628 -0.9561 -2.2343  0.8584
13694TIP3    H262498   5.461   5.323   3.722 -0.0062 -0.6930 -1.1938
13695TIP3   OH262499   1.907   0.511   4.951  0.5278 -0.3856  0.2600
13695TIP3    H162500   1.861   0.427   4.943 -1.9009  0.7692  0.9573
13695TIP3    H262501   1.928   0.536   4.861 -0.5498 -0.8162 -0.1270
13696TIP3   OH262502   3.710   0.818  12.472  0.0999 -0.5947 -0.0747
13696TIP3    H162503   3.652   0.841  12.399  0.7706  0.0662 -0.4205
13696TIP3    H262504   3.751   0.736  12.444 -0.5104 -0.9587  0.0840
13697TIP3   OH262505   6.168   4.236  11.835  0.2227  0.2329  0.0009
13697TIP3    H162506   6.179   4.196  11.921 -0.6797 -0.1326 -0.0426
13697TIP3    H262507   6.209   4.174  11.774  0.6499  0.3778  0.1351
13698TIP3   OH262508   2.820   3.155   3.539 -0.0228 -0.4832  0.1939
13698TIP3    H162509   2.736   3.127   3.502 -0.0667 -0.4459  0.2660
13698TIP3    H262510   2.879   3.160   3.464  0.1710 -1.4473  0.2677
13699TIP3   OH262511   2.422   4.571   2.606 -0.7098  0.5422 -0.5319
13699TIP3    H162512   2.391   4.533   2.524  1.1451  0.1539 -1.0967
13699TIP3    H262513   2.421   4.498   2.668 -0.8922  0.5305 -0.5468
13700TIP3   OH262514   1.959   2.081  13.354 -0.1038  0.0830 -0.1501
13700TIP3    H162515   1.892   2.013  13.358 -0.6664  0.4945 -1.6280
13700TIP3    H262516   1.917   2.159  13.390  0.3034 -0.1686  0.8874
13701TIP3   OH262517   2.664   4.053  15.544  0.3006 -0.1507  0.4038
13701TIP3    H162518   2.599   4.086  15.606 -1.4123 -0.6070 -1.0674
13701TIP3    H262519   2.743   4.040  15.597 -1.4218 -1.7703  2.7972
13702TIP3   OH262520   5.171   0.002   3.564 -0.2850 -0.2290 -0.7120
13702TIP3    H162521   5.225  -0.003   3.643 -0.3031 -0.4361 -0.7128
13702TIP3    H262522   5.167  -0.088   3.532 -0.7571 -0.2439 -0.6267
13703TIP3   OH262523   0.726   3.195   1.305 -0.2612 -0.0893 -0.1486
13703TIP3    H162524   0.663   3.147   1.251  0.5785 -1.3378 -0.0625
13703TIP3    H262525   0.776   3.247   1.243 -2.3810  2.1919 -0.0700
13704TIP3   OH262526   5.247   3.198   4.558  0.2749 -0.4300 -0.0806
13704TIP3    H162527   5.290   3.180   4.642 -0.4273 -2.3247 -0.0667
13704TIP3    H262528   5.305   3.156   4.493 -0.9689 -2.1476 -0.1536
13705TIP3   OH262529   6.334   6.310   3.335 -0.1559  0.6859  0.1343
13705TIP3    H162530   6.349   6.323   3.241  0.6905 -1.6130 -0.1053
13705TIP3    H262531   6.267   6.242   3.339 -0.0042  0.5871  1.1852
13706TIP3   OH262532   5.571   1.827   2.448 -0.0077  0.2578  0.0511
13706TIP3    H162533   5.522   1.862   2.374 -2.4597  0.2746  1.5817
13706TIP3    H262534   5.534   1.740   2.463 -1.6683  1.3232  2.9354
13707TIP3   OH262535   1.315   5.388  17.016 -0.2606  0.0011  0.2215
13707TIP3    H162536   1.286   5.480  17.018 -0.2786 -0.0171  1.4560
13707TIP3    H262537   1.289   5.357  16.929  1.2874  1.6351 -0.8912
13708TIP3   OH262538   2.912   2.279   1.692  0.2624 -0.2418  0.1879
13708TIP3    H162539   2.841   2.324   1.646  1.0254  0.8600  0.0576
13708TIP3    H262540   2.868   2.218   1.751 -0.7661 -0.8456 -1.1395
13709TIP3   OH262541   3.679   0.588   0.618 -0.1077 -0.7293  0.7239
13709TIP3    H162542   3.606   0.641   0.587  0.6863 -0.2472 -0.3543
13709TIP3    H262543   3.739   0.650   0.657  1.5197 -0.5562 -1.8515
13710TIP3   OH262544   1.041   4.904   1.674 -0.6175  0.4699 -0.4735
13710TIP3    H162545   1.021   4.997   1.682  0.3893  0.6296  0.4608
13710TIP3    H262546   1.098   4.898   1.598 -2.1389  0.3440 -1.6468
13711TIP3   OH262547   3.803   6.358  12.310 -0.3369 -0.0339 -0.2563
13711TIP3    H162548   3.891   6.323  12.323 -0.3812 -0.3433 -0.7503
13711TIP3    H262549   3.778   6.327  12.223 -0.8067  0.3233 -0.2518
13712TIP3   OH262550   3.599   2.568  11.970  0.2809 -0.3325  0.2335
13712TIP3    H162551   3.678   2.615  11.996 -0.7744  0.7547  1.6056
13712TIP3    H262552   3.609   2.480  12.008  1.5735 -0.7771 -1.0578
13713TIP3   OH262553   4.233   5.545   1.681  0.2063  0.3865 -0.0051
13713TIP3    H162554   4.219   5.500   1.763  1.5789  0.9736  0.5922
13713TIP3    H262555   4.196   5.632   1.694 -0.9325  0.0088 -0.5657
13714TIP3   OH262556   6.694   5.580  14.776  0.1564  0.8009 -0.2360
13714TIP3    H162557   6.673   5.670  14.753  0.3544  0.9873  0.2896
13714TIP3    H262558   6.680   5.575  14.871  2.0667  0.8352  0.0872
13715TIP3   OH262559   3.778   5.052   6.004  0.0284 -0.4880  0.0965
13715TIP3    H162560   3.806   5.008   5.924 -1.2895 -0.9856 -0.1134
13715TIP3    H262561   3.744   4.982   6.059 -0.2508  0.0153  0.5737
13716TIP3   OH262562   0.228   0.934  16.371 -0.6683 -0.3420 -0.2057
13716TIP3    H162563   0.292   0.863  16.370 -0.4752 -0.1992 -2.0265
13716TIP3    H262564   0.195   0.937  16.281 -2.0790  0.6291  0.3106
13717TIP3   OH262565   0.569   1.333  15.898  0.7033  0.1233 -0.4233
13717TIP3    H162566   0.658   1.299  15.911  0.6225  0.3085  0.7788
13717TIP3    H262567   0.533   1.340  15.987 -1.6213 -2.8200 -0.9626
13718TIP3   OH262568   3.831   0.411  15.123 -0.0049 -0.4074 -0.0054
13718TIP3    H162569   3.791   0.356  15.190 -0.5295  0.3209  0.2934
13718TIP3    H262570   3.767   0.481  15.107  0.0423 -0.6443 -1.3743
13719TIP3   OH262571   1.649   5.320   4.587  0.0376  0.5719 -0.2967
13719TIP3    H162572   1.569   5.352   4.629  0.6114 -0.4949  1.7457
13719TIP3    H262573   1.712   5.391   4.597  0.2229  0.2588  0.8794
13720TIP3   OH262574   1.724   6.547  13.961  0.0076  0.0038 -0.0762
13720TIP3    H162575   1.787   6.548  14.033  0.8013 -0.6909 -0.7353
13720TIP3    H262576   1.755   6.477  13.903 -2.0986 -1.2807  0.2290
13721TIP3   OH262577   5.615   6.083   3.508  0.2349 -0.1742  0.6349
13721TIP3    H162578   5.616   6.012   3.572 -2.5117  0.4547  1.5246
13721TIP3    H262579   5.543   6.061   3.449  2.1257 -0.2696 -1.7994
13722TIP3   OH262580   2.978   5.022   2.925 -0.0470 -0.2090 -0.0585
13722TIP3    H162581   2.908   4.962   2.952 -0.2266  0.2467  0.4985
13722TIP3    H262582   2.978   5.091   2.991 -0.1753  0.6739 -0.9573
13723TIP3   OH262583   5.835   4.039   5.572 -0.1531  0.0052 -0.2803
13723TIP3    H162584   5.849   4.072   5.483  0.7357  0.0876 -0.1153
13723TIP3    H262585   5.838   4.118   5.627 -0.8481 -0.0272 -0.1853
13724TIP3   OH262586   3.630   1.606   2.143 -0.5365  0.2036  0.4969
13724TIP3    H162587   3.625   1.557   2.061 -0.7065  0.0800  0.5811
13724TIP3    H262588   3.640   1.697   2.116  0.5619  0.0483  0.3354
13725TIP3   OH262589   0.110   1.076   3.622 -0.3003 -0.2939 -0.2959
13725TIP3    H162590   0.129   1.097   3.713  3.3546 -2.0888 -0.4892
13725TIP3    H262591   0.107   1.161   3.578  1.0334  0.4653  1.0098
13726TIP3   OH262592   0.076   2.264  15.996  0.6557 -0.4283  0.0046
13726TIP3    H162593   0.148   2.205  15.973  0.1948 -0.5596 -1.1642
13726TIP3    H262594   0.116   2.350  16.005  0.7030 -0.1033 -2.6544
13727TIP3   OH262595   3.093   2.919  14.187 -0.2918 -0.4307 -1.1663
13727TIP3    H162596   3.105   2.987  14.254  2.3190 -0.6282 -1.3223
13727TIP3    H262597   3.024   2.953  14.131  0.5573  1.9038 -0.9427
13728TIP3   OH262598   1.235   0.903   6.167  0.3771  0.3189 -0.1734
13728TIP3    H162599   1.221   0.961   6.243 -0.3917 -1.1819  0.8908
13728TIP3    H262600   1.328   0.883   6.169  0.8586  2.1848 -1.1102
13729TIP3   OH262601   1.549   3.254  15.345  0.1045  0.1749  0.9975
13729TIP3    H162602   1.549   3.248  15.441 -2.6073  4.5876  1.5261
13729TIP3    H262603   1.604   3.330  15.326 -0.6638  0.3187 -0.8022
13730TIP3   OH262604   5.104   0.914  15.369  0.3793 -0.1487 -0.7363
13730TIP3    H162605   5.117   0.989  15.311  1.2818 -0.3213 -0.7804
13730TIP3    H262606   5.133   0.946  15.455  0.0756 -0.2234 -0.6072
13731TIP3   OH262607   0.669   6.721  11.955  0.6737 -0.1342  0.5138
13731TIP3    H162608   0.747   6.705  11.903  0.3835  0.6603 -0.2093
13731TIP3    H262609   0.638   6.807  11.925 -0.6377 -0.5634  0.5614
13732TIP3   OH262610   1.349   3.351   4.842 -0.0881  0.7241  0.0192
13732TIP3    H162611   1.309   3.307   4.918  0.6711 -0.0704 -0.0309
13732TIP3    H262612   1.422   3.400   4.879 -1.4189  2.6765  0.2008
13733TIP3   OH262613   0.247   2.222  14.161  0.4893 -0.1199  0.2348
13733TIP3    H162614   0.171   2.175  14.196  0.7143 -1.3532 -0.8712
13733TIP3    H262615   0.314   2.214  14.229  0.4853 -1.3310  0.1114
13734TIP3   OH262616   6.773   5.140   0.593 -0.1282  0.6210 -0.0107
13734TIP3    H162617   6.771   5.047   0.617 -1.6125  0.8969  1.0938
13734TIP3    H262618   6.694   5.177   0.633  0.2527  2.2996 -0.7140
13735TIP3   OH262619   5.478   5.409  11.586  0.1729  0.3461 -0.3080
13735TIP3    H162620   5.496   5.342  11.652  1.3925  2.9064  2.1631
13735TIP3    H262621   5.386   5.396  11.562  0.1431 -1.6442  0.7140
13736TIP3   OH262622   4.564   2.735  11.625  0.2191  0.4356  0.2235
13736TIP3    H162623   4.593   2.646  11.606 -0.0133  0.0121  1.7684
13736TIP3    H262624   4.527   2.765  11.542  1.4244 -0.4413 -0.6657
13737TIP3   OH262625   2.634   4.377  11.748  0.1141 -0.4034 -0.1228
13737TIP3    H162626   2.670   4.425  11.674  0.1328  0.1334  0.2328
13737TIP3    H262627   2.710   4.351  11.800  0.0684 -0.3953 -0.0527
13738TIP3   OH262628   5.814   5.400  10.714 -0.1608 -0.3174 -0.3788
13738TIP3    H162629   5.833   5.482  10.667  3.2410 -0.2692  0.8268
13738TIP3    H262630   5.750   5.425  10.780  0.4478  1.2873 -0.3506
13739TIP3   OH262631   1.130   6.192  10.395  0.3440  0.0817 -0.0795
13739TIP3    H162632   1.073   6.117  10.411  1.4883 -0.6014  0.9523
13739TIP3    H262633   1.219   6.157  10.401  0.8953  1.4479  0.0552
13740TIP3   OH262634   5.958   2.699  16.662 -0.0991 -0.5593  0.3174
13740TIP3    H162635   6.002   2.676  16.579  1.1596  2.2383  0.0895
13740TIP3    H262636   5.895   2.766  16.637  0.4302  0.4553  1.6155
13741TIP3   OH262637   0.439   2.293   1.750  0.0934  0.0445 -0.5468
13741TIP3    H162638   0.482   2.375   1.730 -0.7856  0.7394  0.3188
13741TIP3    H262639   0.345   2.313   1.745 -0.2063 -0.0811  2.5781
13742TIP3   OH262640   2.112   5.026   1.860 -0.1004  0.0074  0.4515
13742TIP3    H162641   2.052   4.981   1.920 -0.6282 -0.9534 -0.7547
13742TIP3    H262642   2.095   4.986   1.775  1.4940  0.4806 -0.1278
13743TIP3   OH262643   4.817   5.208  12.347 -0.3803  0.4280 -0.8401
13743TIP3    H162644   4.791   5.273  12.412  1.1152  0.5141 -0.2842
13743TIP3    H262645   4.842   5.131  12.399  2.5371  1.0763 -1.1039
13744TIP3   OH262646   6.427   6.776   3.995 -0.0504 -0.1535  0.1726
13744TIP3    H162647   6.407   6.860   4.037  0.4617  0.4699 -0.8068
13744TIP3    H262648   6.395   6.786   3.906  0.9207 -0.6395 -0.2360
13745TIP3   OH262649   5.495   1.838  16.283 -0.6568  0.3005 -0.2603
13745TIP3    H162650   5.575   1.795  16.314  0.0613  2.1123  0.5513
13745TIP3    H262651   5.424   1.785  16.318  0.1798 -0.6600  0.0328
13746TIP3   OH262652   2.306   4.046   0.217  0.1111 -0.4236  0.0806
13746TIP3    H162653   2.308   3.959   0.258  0.7529 -0.3634  0.1838
13746TIP3    H262654   2.396   4.077   0.221 -0.2781  0.6738  0.9260
13747TIP3   OH262655   0.282   0.442   3.823  0.6594 -0.3069 -0.0138
13747TIP3    H162656   0.327   0.364   3.856 -0.4169 -1.0182 -0.1726
13747TIP3    H262657   0.214   0.407   3.765  0.6622  0.7944 -0.7068
13748TIP3   OH262658   1.432   4.573  14.503 -0.5061  0.3253 -0.0512
13748TIP3    H162659   1.417   4.633  14.430  0.0433  1.1634  0.5193
13748TIP3    H262660   1.526   4.577  14.518 -0.6136  0.1342  0.6882
13749TIP3   OH262661   5.742   4.311  14.732 -0.0475  0.2416 -0.4760
13749TIP3    H162662   5.803   4.299  14.805  0.7094 -1.2084 -1.3109
13749TIP3    H262663   5.667   4.255  14.753  1.0120 -1.7241 -1.6751
13750TIP3   OH262664   5.368   5.409  17.211 -0.2877 -0.6340  0.8029
13750TIP3    H162665   5.420   5.328  17.217  1.8205  0.5363 -0.2386
13750TIP3    H262666   5.284   5.381  17.174  1.1607 -2.1282 -1.6641
13751TIP3   OH262667   6.721   2.587   5.325  0.8172 -0.0169  0.0724
13751TIP3    H162668   6.725   2.555   5.416 -0.7726  0.1692  0.2324
13751TIP3    H262669   6.633   2.565   5.296  1.2226  0.1761 -1.3488
13752TIP3   OH262670   2.181   4.523   2.472 -0.0035 -0.2281  0.3605
13752TIP3    H162671   2.160   4.615   2.461  0.3306 -0.3510 -1.7357
13752TIP3    H262672   2.115   4.477   2.421  0.9283 -1.0343 -0.1503
13753TIP3   OH262673   3.731   0.850  15.636  0.4651  0.4365 -0.3718
13753TIP3    H162674   3.736   0.921  15.571 -1.0037  0.5617 -0.3744
13753TIP3    H262675   3.652   0.802  15.613  1.9194 -1.8149 -0.9483
13754TIP3   OH262676   5.020   4.018   0.058  0.2612  1.1946 -0.2646
13754TIP3    H162677   5.016   3.939   0.004 -0.5871  1.5609 -0.7503
13754TIP3    H262678   4.934   4.024   0.098  0.1759  2.1097 -0.5692
13755TIP3   OH262679   0.962   0.871   1.024 -0.5539  0.1029 -0.2395
13755TIP3    H162680   0.967   0.776   1.030  1.7375  0.1432 -0.3235
13755TIP3    H262681   0.903   0.897   1.094 -1.2712 -1.3774 -0.2640
13756TIP3   OH262682   0.068   4.743  12.167  0.2419  0.4103  0.1346
13756TIP3    H162683   0.010   4.807  12.209  0.2998 -0.4512  1.5865
13756TIP3    H262684   0.151   4.789  12.158  0.4679  0.3579  1.7605
13757TIP3   OH262685   0.765   6.211   1.624  0.6631  0.4991 -0.0705
13757TIP3    H162686   0.706   6.153   1.672  1.2324 -1.0940 -1.2108
13757TIP3    H262687   0.820   6.152   1.573  2.4875  1.9723  0.0723
13758TIP3   OH262688   6.461   3.970   3.355 -0.0476  0.2523  0.3884
13758TIP3    H162689   6.545   3.978   3.310 -0.7996  3.0351 -0.7417
13758TIP3    H262690   6.484   3.957   3.447  1.5468 -1.5083 -0.1789
13759TIP3   OH262691   6.447   6.648  15.291 -0.4070  0.2423 -0.2754
13759TIP3    H162692   6.525   6.624  15.341  0.3811  0.7944 -1.2350
13759TIP3    H262693   6.427   6.570  15.239 -1.0322 -0.2122  0.6060
13760TIP3   OH262694   6.488   0.335  12.003 -0.8077  1.0885  0.1398
13760TIP3    H162695   6.408   0.383  11.985 -1.9113 -1.1703 -1.5316
13760TIP3    H262696   6.543   0.348  11.926 -0.0300  1.6969  0.7797
13761TIP3   OH262697   5.901   6.270   1.510 -0.4378  0.0474  0.0260
13761TIP3    H162698   5.923   6.182   1.543  0.9725 -0.6952 -2.6420
13761TIP3    H262699   5.806   6.268   1.500 -0.2880 -1.8045 -1.5027
13762TIP3   OH262700   5.161   6.239   2.068 -0.2577 -0.2853  0.3263
13762TIP3    H162701   5.074   6.264   2.034 -0.4556 -1.8727 -0.4051
13762TIP3    H262702   5.146   6.157   2.114  1.1789 -1.7071 -1.6212
13763TIP3   OH262703   6.633   0.393   1.711  0.6846 -0.3752 -0.2829
13763TIP3    H162704   6.654   0.301   1.729 -1.7059 -0.5107  2.5362
13763TIP3    H262705   6.691   0.442   1.770 -0.8391 -0.3635  1.2930
13764TIP3   OH262706   5.569   3.182  12.834  0.2226 -0.4894 -0.3472
13764TIP3    H162707   5.475   3.199  12.841  0.2737 -0.7062  1.4409
13764TIP3    H262708   5.609   3.241  12.899  1.2493 -0.9398 -0.5416
13765TIP3   OH262709   2.712   3.458  11.195 -0.1781 -0.2665  0.1403
13765TIP3    H162710   2.740   3.403  11.121 -0.5323  0.8866 -0.9002
13765TIP3    H262711   2.756   3.542  11.179 -1.7906  0.6215  0.1419
13766TIP3   OH262712   4.690   5.999   3.119  0.4745 -0.5707 -0.0677
13766TIP3    H162713   4.601   5.980   3.090  0.5782  1.3092 -1.8572
13766TIP3    H262714   4.708   5.932   3.185 -1.5014 -2.2689 -1.1084
13767TIP3   OH262715   0.830   0.582   2.687  0.6890  0.1043  0.2150
13767TIP3    H162716   0.906   0.587   2.745 -0.0096  1.4754  1.0511
13767TIP3    H262717   0.769   0.647   2.721 -0.4313 -0.2190 -1.0845
13768TIP3   OH262718   0.941   0.677   5.051  0.0452 -0.3307 -0.0574
13768TIP3    H162719   0.919   0.730   5.128 -0.2465 -1.8364  0.9338
13768TIP3    H262720   0.865   0.684   4.994 -0.0563  0.1856  0.1352
13769TIP3   OH262721   5.268   3.363   3.115 -0.1378 -0.5414  0.2429
13769TIP3    H162722   5.241   3.445   3.156 -0.5268  1.1635 -3.0954
13769TIP3    H262723   5.362   3.358   3.132 -0.4439 -0.5166  2.1633
13770TIP3   OH262724   3.596   3.142   3.076 -0.2122  0.3493  0.0351
13770TIP3    H162725   3.532   3.204   3.111  1.1870  1.3122  0.9986
13770TIP3    H262726   3.655   3.196   3.024  0.4976 -0.3237  0.1326
13771TIP3   OH262727   2.018   0.816   5.326 -0.0889 -0.3775 -0.5594
13771TIP3    H162728   1.940   0.764   5.344 -0.0710  0.6665  3.4400
13771TIP3    H262729   1.985   0.906   5.315  0.4245 -0.1125  0.0096
13772TIP3   OH262730   6.043   5.847   3.458 -0.3753  0.2709  0.2440
13772TIP3    H162731   6.115   5.889   3.505 -0.4992 -0.6541  1.3084
13772TIP3    H262732   6.024   5.768   3.509 -1.0948 -0.3226 -0.9076
13773TIP3   OH262733   1.822   2.712  16.031  0.4649 -1.0664 -0.5401
13773TIP3    H162734   1.736   2.716  15.989 -0.0902 -2.7085  0.3685
13773TIP3    H262735   1.804   2.690  16.122  1.8429 -1.2164 -0.2792
13774TIP3   OH262736   6.219   2.907  14.878 -0.2441  0.3263  0.1938
13774TIP3    H162737   6.127   2.932  14.876 -0.3886 -0.2424 -1.6688
13774TIP3    H262738   6.247   2.929  14.967 -1.9035  1.4296  0.5019
13775TIP3   OH262739   0.881   2.473  16.482  0.3320  0.8098  0.2303
13775TIP3    H162740   0.915   2.481  16.571  0.9265  2.2821 -0.0920
13775TIP3    H262741   0.899   2.383  16.457  1.1695  0.6899  1.2059
13776TIP3   OH262742   4.215   6.621  16.557 -0.5433 -0.6391 -0.3670
13776TIP3    H162743   4.257   6.552  16.609 -2.6705 -1.5366  0.2842
13776TIP3    H262744   4.283   6.650  16.496  0.9844 -1.9857  0.6086
13777TIP3   OH262745   5.681   1.698  16.394 -0.1676 -0.4629 -0.1561
13777TIP3    H162746   5.773   1.720  16.381  0.0496 -1.7161 -0.9475
13777TIP3    H262747   5.669   1.699  16.489  0.7828 -0.7875 -0.0221
13778TIP3   OH262748   2.710   0.324   6.130  0.6815  0.2119  0.2032
13778TIP3    H162749   2.729   0.257   6.196  0.4148  0.3616  0.4332
13778TIP3    H262750   2.662   0.276   6.062 -1.1659  0.5152  1.2179
13779TIP3   OH262751   4.782   2.094  12.048  0.5071  0.3417 -0.0160
13779TIP3    H162752   4.743   2.178  12.073  0.4627 -0.0566  1.3382
13779TIP3    H262753   4.847   2.116  11.982 -0.4548  1.2755 -0.7000
13780TIP3   OH262754   3.446   4.407  14.027  0.5321 -0.6551  0.4230
13780TIP3    H162755   3.511   4.472  14.053 -0.9766  0.7808  0.8038
13780TIP3    H262756   3.437   4.418  13.933  2.2435 -2.2674  0.0118
13781TIP3   OH262757   2.303   2.882   5.317  0.0489 -0.5070 -0.3394
13781TIP3    H162758   2.325   2.854   5.406 -0.3645  0.0973 -0.0418
13781TIP3    H262759   2.220   2.929   5.326 -0.3360 -1.0023 -1.1446
13782TIP3   OH262760   1.297   5.989  14.273  0.0481 -0.3930 -0.1681
13782TIP3    H162761   1.322   6.023  14.359 -2.8611 -0.5853  0.8914
13782TIP3    H262762   1.370   5.934  14.246  1.1580 -0.1434  2.0708
13783TIP3   OH262763   4.264   3.579  14.973  0.2495 -0.6758 -0.3130
13783TIP3    H162764   4.331   3.539  15.029 -0.4214 -0.1369  0.9359
13783TIP3    H262765   4.210   3.630  15.034  1.0415  2.1352 -1.7941
13784TIP3   OH262766   1.467   0.124  12.890 -0.0057  0.7502 -0.2633
13784TIP3    H162767   1.479   0.099  12.799 -2.0947 -1.1822 -0.0743
13784TIP3    H262768   1.379   0.162  12.894 -0.1796  0.2766  1.0349
13785TIP3   OH262769   1.407   2.251  13.791 -0.2230  0.1698 -0.1917
13785TIP3    H162770   1.432   2.301  13.714 -0.0260  0.4994  0.0837
13785TIP3    H262771   1.333   2.198  13.762  0.8663 -0.9452 -1.0720
13786TIP3   OH262772   0.846   3.116   3.278  0.2700  0.0938  0.1128
13786TIP3    H162773   0.836   3.049   3.346 -0.9728 -1.0646 -1.1473
13786TIP3    H262774   0.758   3.153   3.268  0.5662  0.6531 -0.4582
13787TIP3   OH262775   2.212   2.756   5.046  0.3695 -0.2165 -0.1319
13787TIP3    H162776   2.292   2.711   5.019  1.4815  1.4102  0.3145
13787TIP3    H262777   2.242   2.823   5.107 -1.3292  0.5763 -0.1261
13788TIP3   OH262778   4.983   1.123  11.386 -0.1328  0.8265 -0.2204
13788TIP3    H162779   4.960   1.059  11.454 -0.1291 -0.1795 -1.1396
13788TIP3    H262780   4.961   1.079  11.304  0.9011  1.5892 -0.9227
13789TIP3   OH262781   4.084   6.445   5.303  0.1831 -0.7491  0.2102
13789TIP3    H162782   4.167   6.456   5.256  0.8456 -0.6348  1.3722
13789TIP3    H262783   4.073   6.528   5.350 -0.0939 -1.1324  0.8230
13790TIP3   OH262784   1.780   3.647  14.289  0.4333 -0.4661  0.6426
13790TIP3    H162785   1.740   3.608  14.212  0.1294  0.7104  0.1884
13790TIP3    H262786   1.840   3.713  14.254 -1.4267  1.7570  1.4125
13791TIP3   OH262787   6.776   3.415   4.964  0.0641 -0.2548  0.0273
13791TIP3    H162788   6.798   3.339   4.911 -0.0152 -0.1137 -0.2080
13791TIP3    H262789   6.755   3.379   5.051  1.0313 -0.4031  0.2068
13792TIP3   OH262790   2.475   3.111  15.718  0.4546  0.3012  0.0218
13792TIP3    H162791   2.433   3.144  15.639 -1.0275 -1.3305  0.0566
13792TIP3    H262792   2.475   3.016  15.708  4.2926  0.1386  0.0468
13793TIP3   OH262793   4.867   2.932   3.175  0.4534 -0.4277  0.4430
13793TIP3    H162794   4.872   2.922   3.080  0.8291 -0.0184  0.4129
13793TIP3    H262795   4.783   2.894   3.199 -1.0303  2.0929 -0.4176
13794TIP3   OH262796   1.070   1.997   5.803  0.6328  0.7346 -1.1599
13794TIP3    H162797   1.125   1.930   5.844  1.4206  1.3535 -1.1974
13794TIP3    H262798   1.113   2.080   5.824 -0.6017  1.2829 -0.6906
13795TIP3   OH262799   5.245   5.632  13.652 -0.7815  0.3120  0.3857
13795TIP3    H162800   5.209   5.651  13.739 -0.7525 -0.1043  0.4908
13795TIP3    H262801   5.297   5.709  13.631 -1.3389  0.7109  0.4429
13796TIP3   OH262802   3.102   5.067   1.777  0.0868  0.4763 -0.2170
13796TIP3    H162803   3.111   5.068   1.682 -1.4948 -1.6409 -0.4833
13796TIP3    H262804   3.008   5.082   1.792 -0.5545 -3.3336  0.6437
13797TIP3   OH262805   6.166   3.276   4.168 -0.6465 -0.2772 -0.2333
13797TIP3    H162806   6.222   3.202   4.190 -0.2293 -0.1732 -0.9162
13797TIP3    H262807   6.149   3.320   4.252 -0.8792 -1.1219  0.1689
13798TIP3   OH262808   1.016   4.571  12.750 -0.0822 -0.2984 -0.1905
13798TIP3    H162809   1.048   4.482  12.769  1.0205  0.2299  0.5016
13798TIP3    H262810   1.021   4.617  12.833 -1.1557  0.2772 -0.4330
13799TIP3   OH262811   1.657   0.355  12.660 -0.7668  0.2312 -0.3371
13799TIP3    H162812   1.598   0.379  12.588 -0.0836  0.5357 -0.8016
13799TIP3    H262813   1.633   0.414  12.731 -0.8112  0.5659 -0.6301
13800TIP3   OH262814   0.947   5.090  12.571  0.4727 -0.2691 -0.1312
13800TIP3    H162815   0.901   5.173  12.585  0.3877  0.3304 -3.2371
13800TIP3    H262816   0.889   5.024  12.606 -2.0625  0.6145 -2.3501
13801TIP3   OH262817   5.159   4.918  16.922  0.7177  0.5748 -0.1700
13801TIP3    H162818   5.073   4.883  16.944  1.2204 -0.4553  0.2360
13801TIP3    H262819   5.142   5.005  16.887 -0.4748  0.4269  0.0182
13802TIP3   OH262820   4.386   1.544  12.239 -0.1790  0.1032  0.2709
13802TIP3    H162821   4.417   1.535  12.149  0.9920  0.1614  0.6492
13802TIP3    H262822   4.465   1.539  12.292 -0.6751  1.5772  1.2074
13803TIP3   OH262823   3.800   4.949   4.351  0.0893 -0.1435  0.2655
13803TIP3    H162824   3.798   5.045   4.358 -1.2505 -0.1403  0.2676
13803TIP3    H262825   3.880   4.929   4.303 -0.5327  1.1056 -1.3671
13804TIP3   OH262826   4.267   6.237   4.379  0.0922  0.1243  0.0477
13804TIP3    H162827   4.349   6.287   4.380  0.1508  0.0246  1.0318
13804TIP3    H262828   4.199   6.304   4.370  0.2794  0.1766 -1.2570
13805TIP3   OH262829   2.953   1.859   1.063 -0.0018 -0.6768  0.4898
13805TIP3    H162830   2.915   1.918   0.998 -0.1571  0.1013  1.2701
13805TIP3    H262831   3.047   1.874   1.059 -0.0688 -0.1144  0.9258
13806TIP3   OH262832   2.257   0.348   5.401  0.1058 -0.2459 -0.2282
13806TIP3    H162833   2.314   0.271   5.400  0.8098  0.1889  2.0819
13806TIP3    H262834   2.181   0.322   5.453  0.0736  0.4353  0.0804
13807TIP3   OH262835   0.234   1.935   4.211  0.2569 -0.3618 -0.9768
13807TIP3    H162836   0.239   1.943   4.306 -3.2651  0.9877 -0.7873
13807TIP3    H262837   0.297   1.866   4.190  1.2084 -0.6481  2.2824
13808TIP3   OH262838   3.352   1.752  11.704 -0.1932 -0.1231  0.0131
13808TIP3    H162839   3.424   1.766  11.642 -0.2973 -1.0938 -0.3400
13808TIP3    H262840   3.273   1.772  11.655 -0.1712  1.5497  0.5762
13809TIP3   OH262841   3.244   3.783   4.430  0.3370  0.2544 -0.1925
13809TIP3    H162842   3.336   3.789   4.405  0.1717  1.7718 -0.5826
13809TIP3    H262843   3.211   3.873   4.419 -0.6151  0.2613  2.1024
13810TIP3   OH262844   6.076   6.475   6.142  0.3116  0.3705 -0.0181
13810TIP3    H162845   6.112   6.561   6.123 -0.5588  0.3155 -2.2014
13810TIP3    H262846   6.046   6.481   6.233  3.3641  1.1988  1.0383
13811TIP3   OH262847   5.541   3.450  10.505 -0.4650 -0.6482 -0.1696
13811TIP3    H162848   5.487   3.495  10.570 -0.2642  0.9891 -1.1055
13811TIP3    H262849   5.570   3.370  10.550 -1.1288 -0.0477  1.3996
13812TIP3   OH262850   2.834   2.168  16.492  0.0928  0.0197  0.0493
13812TIP3    H162851   2.796   2.254  16.510 -1.0791 -0.1766 -1.3407
13812TIP3    H262852   2.832   2.123  16.577 -1.2062  0.6320  0.3663
13813TIP3   OH262853   0.797   3.197   3.900  0.5441 -0.3649  0.3242
13813TIP3    H162854   0.793   3.102   3.890  2.7425 -0.4444 -0.5349
13813TIP3    H262855   0.830   3.228   3.816 -0.0375  1.1681  0.6292
13814TIP3   OH262856   2.547   1.683   1.114 -0.4428 -0.2187 -0.1691
13814TIP3    H162857   2.595   1.711   1.036  0.2926  1.1426  0.7318
13814TIP3    H262858   2.485   1.754   1.131 -1.0031 -0.7764  0.1585
13815TIP3   OH262859   2.190   0.922   6.016 -0.0939 -0.3898  1.1371
13815TIP3    H162860   2.223   0.840   6.052 -0.0831 -0.8261  0.1810
13815TIP3    H262861   2.227   0.926   5.928 -1.1959 -0.0345  0.6736
13816TIP3   OH262862   0.640   1.680   1.955 -0.1267 -0.3961 -0.1294
13816TIP3    H162863   0.670   1.589   1.948 -0.0844 -0.3137 -1.2708
13816TIP3    H262864   0.717   1.728   1.985 -0.0148 -0.6737  0.0315
13817TIP3   OH262865   4.099   4.798  11.638  0.2222  0.0454 -0.0408
13817TIP3    H162866   4.041   4.857  11.589 -0.0389  0.1786  0.4232
13817TIP3    H262867   4.187   4.835  11.624 -0.0131  1.0052  0.8611
13818TIP3   OH262868   1.008   3.262  11.193  0.2328 -0.5120 -0.2126
13818TIP3    H162869   0.921   3.251  11.154  0.8519 -0.3471 -1.7144
13818TIP3    H262870   1.009   3.200  11.266 -0.1974 -2.5890 -1.8477
13819TIP3   OH262871   2.589   3.483  15.478  0.1753 -0.1115 -0.9056
13819TIP3    H162872   2.521   3.551  15.477 -0.6401 -0.8802  0.0412
13819TIP3    H262873   2.549   3.408  15.433 -0.4225 -1.2656  1.3859
13820TIP3   OH262874   4.339   5.601  13.441 -0.5214  0.1128  0.5675
13820TIP3    H162875   4.393   5.588  13.363 -1.2351  4.3794 -0.9093
13820TIP3    H262876   4.288   5.520  13.448  1.3855 -1.4661 -1.8047
13821TIP3   OH262877   4.773   0.248  14.025 -0.3580 -0.0459 -0.2281
13821TIP3    H162878   4.681   0.241  13.999 -0.1692 -0.1073 -0.8866
13821TIP3    H262879   4.821   0.254  13.943  0.3062 -0.9296  0.0834
13822TIP3   OH262880   2.974   5.309   5.688 -0.3050 -0.0727  0.2234
13822TIP3    H162881   3.024   5.341   5.763 -0.5775 -1.1075  0.8710
13822TIP3    H262882   2.918   5.382   5.662  1.5788  1.1613 -0.5885
13823TIP3   OH262883   3.024   4.595   6.077  0.5661 -0.3207 -0.3284
13823TIP3    H162884   2.944   4.645   6.094  0.3007 -0.3612 -1.4210
13823TIP3    H262885   3.025   4.527   6.145  0.2727  0.3699  0.3901
13824TIP3   OH262886   1.460   1.720  13.386 -0.2660 -0.1895  0.5285
13824TIP3    H162887   1.440   1.752  13.474 -2.4838 -0.8574  0.3095
13824TIP3    H262888   1.455   1.799  13.331 -2.3611 -0.2835  0.5091
13825TIP3   OH262889   3.845   0.712   1.220 -0.1678  0.6999 -0.1663
13825TIP3    H162890   3.936   0.709   1.251 -0.5153 -1.5663  0.8654
13825TIP3    H262891   3.834   0.629   1.173 -1.4262  1.4068 -1.1324
13826TIP3   OH262892   2.881   6.186  16.760  0.0820 -0.5236 -0.4655
13826TIP3    H162893   2.791   6.216  16.749 -0.4345 -1.8562 -0.0751
13826TIP3    H262894   2.919   6.246  16.824 -0.6859 -0.2674 -0.2491
13827TIP3   OH262895   5.179   5.359   3.879 -0.1925 -0.8014  0.2660
13827TIP3    H162896   5.227   5.284   3.914 -0.8224 -0.2104  2.5740
13827TIP3    H262897   5.172   5.420   3.953 -4.0098 -0.6428  0.0025
13828TIP3   OH262898   0.583   5.293  14.839  0.2416  0.1927 -0.4085
13828TIP3    H162899   0.563   5.298  14.746 -1.2176  3.6992 -0.0439
13828TIP3    H262900   0.501   5.269  14.881  0.4239  0.4735  0.1223
13829TIP3   OH262901   4.431   3.246   3.084 -0.0550 -0.0733 -0.0586
13829TIP3    H162902   4.373   3.314   3.119 -1.2141 -0.8925 -0.3243
13829TIP3    H262903   4.501   3.239   3.148  0.1011  1.3917 -0.0434
13830TIP3   OH262904   6.414   6.307  15.837 -0.0405 -0.8144  0.0942
13830TIP3    H162905   6.351   6.357  15.889 -0.9435 -1.3559 -0.4552
13830TIP3    H262906   6.491   6.363  15.833 -0.4623 -0.1541  0.8183
13831TIP3   OH262907   6.697   1.116   2.682 -0.0337  0.3675  0.2153
13831TIP3    H162908   6.765   1.181   2.697  1.4390 -0.9845 -0.3162
13831TIP3    H262909   6.629   1.137   2.746  1.6708  0.7089  2.0102
13832TIP3   OH262910   6.487   3.517  13.718 -0.2283  0.0888  0.5593
13832TIP3    H162911   6.572   3.472  13.725 -0.2049  0.3197  2.1749
13832TIP3    H262912   6.482   3.569  13.798 -0.0484  3.3680 -1.3952
13833TIP3   OH262913   4.373   3.495   3.278  0.3480 -0.3375 -0.1261
13833TIP3    H162914   4.367   3.577   3.327 -0.3877 -0.9482  0.8481
13833TIP3    H262915   4.282   3.465   3.272  0.5265 -0.7041 -1.1448
13834TIP3   OH262916   4.696   6.493  15.201  0.0419  0.7265 -0.4843
13834TIP3    H162917   4.759   6.420  15.205 -0.0579  0.6409 -0.4497
13834TIP3    H262918   4.630   6.464  15.138 -2.1030 -0.9243  2.2779
13835TIP3   OH262919   6.408   4.158  13.655  0.1179 -0.5539  0.2995
13835TIP3    H162920   6.316   4.139  13.635  0.4506 -1.5649 -0.3323
13835TIP3    H262921   6.412   4.156  13.751 -0.8925  1.4209  0.4256
13836TIP3   OH262922   2.046   4.966   4.669  0.5713 -0.4041  0.3311
13836TIP3    H162923   2.130   4.918   4.667  0.2758 -0.9263  0.1923
13836TIP3    H262924   2.070   5.057   4.655  1.0391 -0.6645 -0.6062
13837TIP3   OH262925   1.595   0.835   5.548 -0.0260  0.4212 -0.4422
13837TIP3    H162926   1.508   0.812   5.514  0.2811  0.3829 -1.2268
13837TIP3    H262927   1.590   0.816   5.641 -0.9394  0.6502 -0.4338
13838TIP3   OH262928   1.021   3.500   5.779  0.0484 -0.2595 -0.7393
13838TIP3    H162929   1.112   3.527   5.791  0.3083 -1.0195 -0.9835
13838TIP3    H262930   0.978   3.577   5.742  0.0558  0.9181  1.4882
13839TIP3   OH262931   1.190   5.670  11.999 -0.1749  0.3463  0.1536
13839TIP3    H162932   1.145   5.727  12.062  1.5491 -0.2661  2.0304
13839TIP3    H262933   1.233   5.730  11.939 -0.3137  0.9757  0.6709
13840TIP3   OH262934   6.480   6.190  16.757  0.6061 -0.4437  0.2003
13840TIP3    H162935   6.482   6.167  16.849 -0.4865  0.5398  0.4879
13840TIP3    H262936   6.408   6.140  16.720 -1.0644  1.5272  0.6003
13841TIP3   OH262937   5.495   4.007   4.240  0.1442  0.1388  0.9068
13841TIP3    H162938   5.454   3.969   4.318  0.2237  0.4994  1.1249
13841TIP3    H262939   5.541   3.933   4.200  0.1517 -0.0370  1.2345
13842TIP3   OH262940   1.445   3.344   5.125  0.2183  1.0949  0.6458
13842TIP3    H162941   1.499   3.304   5.193  0.5485  1.7054  0.7540
13842TIP3    H262942   1.506   3.400   5.076 -0.3554  1.9554  0.9047
13843TIP3   OH262943   5.997   1.311   5.120 -0.1258  0.2235  0.3350
13843TIP3    H162944   5.907   1.309   5.152  0.3688 -1.1847  1.7167
13843TIP3    H262945   5.989   1.344   5.030 -1.8344  1.6074  0.9329
13844TIP3   OH262946   3.285   4.594   0.855  0.0380  0.2442 -0.2076
13844TIP3    H162947   3.376   4.566   0.865 -0.7008 -1.9028  0.9722
13844TIP3    H262948   3.263   4.572   0.764  1.0624  2.1515 -0.9925
13845TIP3   OH262949   1.254   3.853  15.089 -0.3852 -0.4240  0.0528
13845TIP3    H162950   1.261   3.865  14.994 -0.8468 -2.7054 -0.3358
13845TIP3    H262951   1.160   3.846  15.105 -0.2534 -1.6245  0.4085
13846TIP3   OH262952   3.765   6.199   2.024 -0.8717 -0.3089 -0.3661
13846TIP3    H162953   3.794   6.273   1.972  0.5551 -0.2307  0.5041
13846TIP3    H262954   3.693   6.233   2.077 -0.7055  0.2514 -0.4978
13847TIP3   OH262955   6.264   3.012  14.402  0.1201 -0.1357 -0.2014
13847TIP3    H162956   6.345   3.039  14.360  0.2351 -1.0253 -0.5590
13847TIP3    H262957   6.290   2.952  14.472 -0.2643 -0.9181 -0.7198
13848TIP3   OH262958   0.587   5.555   2.347 -0.3691  0.3035  0.1458
13848TIP3    H162959   0.664   5.524   2.298 -1.7350  0.2597 -2.1463
13848TIP3    H262960   0.590   5.507   2.429  0.9165 -1.3187 -0.7850
13849TIP3   OH262961   5.486   5.926  12.024 -0.7897  0.6541  0.2562
13849TIP3    H162962   5.548   5.990  11.988  0.4669 -0.7154 -0.1208
13849TIP3    H262963   5.409   5.934  11.968 -0.1134  0.8529 -0.6821
13850TIP3   OH262964   5.237   3.909   0.792 -0.3431  0.8932 -0.1602
13850TIP3    H162965   5.190   3.963   0.856  0.9619  0.7958  0.9244
13850TIP3    H262966   5.304   3.967   0.756  0.1946  0.3845  0.0122
13851TIP3   OH262967   0.833   3.795   2.060 -0.0998 -0.3737  0.0572
13851TIP3    H162968   0.924   3.778   2.087 -0.2168  0.2928  0.8772
13851TIP3    H262969   0.836   3.880   2.016 -0.5600  0.3160  1.3279
13852TIP3   OH262970   4.038   1.701   2.699 -0.9071  0.1285  0.2794
13852TIP3    H162971   4.002   1.783   2.732  1.7337  2.0424 -1.2303
13852TIP3    H262972   4.120   1.690   2.747  0.1442 -0.0724 -1.4740
13853TIP3   OH262973   2.417   4.959   1.552  0.4725 -0.5880 -0.0874
13853TIP3    H162974   2.502   5.001   1.563  0.4623 -0.5254 -0.2476
13853TIP3    H262975   2.353   5.026   1.573  0.4186 -0.0969 -1.6469
13854TIP3   OH262976   2.171   3.110  11.242 -0.6401 -0.0303  0.0405
13854TIP3    H162977   2.198   3.049  11.172 -0.6487 -0.5152  0.4537
13854TIP3    H262978   2.234   3.182  11.235 -1.9714  1.0242 -1.8954
13855TIP3   OH262979   2.418   1.806  16.531  0.0107  0.5379 -0.0136
13855TIP3    H162980   2.384   1.762  16.453 -0.5911  1.2685 -0.1773
13855TIP3    H262981   2.502   1.842  16.503  0.4208 -0.3276  0.0723
13856TIP3   OH262982   2.347   5.241  14.091 -0.1774 -0.5205  0.5098
13856TIP3    H162983   2.333   5.164  14.036 -2.1349  1.0303 -1.3478
13856TIP3    H262984   2.274   5.241  14.153 -0.0391 -0.2936  0.6742
13857TIP3   OH262985   5.771   0.233  16.405  0.1426 -0.2564 -0.1875
13857TIP3    H162986   5.699   0.249  16.465  1.1422 -0.4184  1.1058
13857TIP3    H262987   5.736   0.256  16.319 -0.3904  3.1300  0.7743
13858TIP3   OH262988   5.924   3.583  11.444 -0.5394  0.6216  0.4938
13858TIP3    H162989   5.857   3.577  11.513 -1.6473 -0.4657 -0.6168
13858TIP3    H262990   5.987   3.514  11.466  1.1492  2.6098  2.3924
13859TIP3   OH262991   6.360   6.460   4.854 -0.0418  0.3410  0.0556
13859TIP3    H162992   6.373   6.494   4.766 -0.9793 -0.2339 -0.3173
13859TIP3    H262993   6.343   6.367   4.842 -0.0208  0.2226  0.8535
13860TIP3   OH262994   1.162   0.310  13.510  0.4739 -0.4325 -0.4165
13860TIP3    H162995   1.112   0.365  13.450  0.3290 -0.7045 -0.5479
13860TIP3    H262996   1.157   0.355  13.594  1.0335  0.1706 -0.6985
13861TIP3   OH262997   0.113   2.847  12.838  0.1100  0.4869  0.4396
13861TIP3    H162998   0.160   2.870  12.758 -0.4325 -0.4021 -0.1517
13861TIP3    H262999   0.122   2.752  12.845  1.4914  0.7110  2.3145
13862TIP3   OH263000   1.815   1.253  11.702  0.0836  0.2947  0.0415
13862TIP3    H163001   1.761   1.267  11.780  1.2443  2.8472  0.4754
13862TIP3    H263002   1.754   1.259  11.629 -0.6981 -0.1113  0.6444
13863TIP3   OH263003   2.970   6.166   3.786  0.1877  0.8369 -0.0576
13863TIP3    H163004   2.958   6.075   3.759  0.3087  0.2673  1.6861
13863TIP3    H263005   3.064   6.179   3.787  0.1784  0.9042 -0.1052
13864TIP3   OH263006   3.496   3.571  16.156  0.7007 -0.6730 -0.6101
13864TIP3    H163007   3.540   3.553  16.239  0.3596 -1.1862 -0.5343
13864TIP3    H263008   3.533   3.508  16.094  0.2739 -0.9229 -0.6139
13865TIP3   OH263009   3.243   2.087   1.712 -0.8273 -0.5095  0.4135
13865TIP3    H163010   3.229   2.166   1.660  3.0080  0.4658  0.5030
13865TIP3    H263011   3.305   2.036   1.659 -1.6077 -2.4556  1.3217
13866TIP3   OH263012   3.769   6.779  15.497 -0.3017  0.8500  0.3763
13866TIP3    H163013   3.748   6.700  15.546  3.5274 -0.5871 -0.0002
13866TIP3    H263014   3.804   6.840  15.562 -0.0853  0.9329  0.1861
13867TIP3   OH263015   6.210   3.635   6.748 -0.2840 -0.0133  0.4337
13867TIP3    H163016   6.252   3.549   6.745 -0.1523  0.0659 -0.9865
13867TIP3    H263017   6.279   3.697   6.724 -1.2298  0.0625 -2.5884
13868TIP3   OH263018   1.114   1.525  16.223  0.1950 -0.2851 -0.0623
13868TIP3    H163019   1.053   1.456  16.249 -0.3352  1.2330  3.1525
13868TIP3    H263020   1.073   1.566  16.147 -3.2017  1.0068  2.2339
13869TIP3   OH263021   6.257   3.195   2.093 -0.4753  0.2962 -0.0367
13869TIP3    H163022   6.264   3.132   2.022  0.8322  0.5000 -0.1178
13869TIP3    H263023   6.310   3.157   2.164  1.2348  1.7674 -0.4578
13870TIP3   OH263024   2.297   4.528  11.207  0.3794  0.1063  0.7462
13870TIP3    H163025   2.360   4.601  11.208  1.3585 -0.6409  3.2322
13870TIP3    H263026   2.254   4.533  11.292 -2.5233  0.1607 -0.6269
13871TIP3   OH263027   0.142   2.633  15.284 -0.6571  0.1005 -0.2795
13871TIP3    H163028   0.170   2.715  15.245 -0.2643  0.1761  0.1482
13871TIP3    H263029   0.147   2.648  15.379  1.4368 -1.0408 -0.1315
13872TIP3   OH263030   5.473   3.693  11.806  0.0755  0.4273 -0.0593
13872TIP3    H163031   5.543   3.722  11.748  1.1862  0.2677  1.1378
13872TIP3    H263032   5.501   3.606  11.836 -0.0953  0.7963  1.2405
13873TIP3   OH263033   4.216   3.712  16.305 -0.3921  0.5817  0.1125
13873TIP3    H163034   4.185   3.750  16.387 -0.9060 -0.4917  0.4443
13873TIP3    H263035   4.304   3.680  16.324 -0.5701  0.1939  0.3049
13874TIP3   OH263036   3.961   1.755  11.785  0.7359  0.0398  0.2421
13874TIP3    H163037   3.955   1.755  11.880 -0.4696  1.0313  0.2003
13874TIP3    H263038   3.870   1.757  11.756  1.0972  0.1361 -0.9321
13875TIP3   OH263039   1.053   6.051   5.866  0.3807  0.5309 -0.1428
13875TIP3    H163040   0.964   6.077   5.890  0.1321 -1.1915  0.9495
13875TIP3    H263041   1.041   5.973   5.811  1.2075 -0.7913  1.4483
13876TIP3   OH263042   6.693   2.820  11.870 -0.4651 -0.0508 -0.2084
13876TIP3    H163043   6.696   2.852  11.780 -1.2848  1.1681  0.1758
13876TIP3    H263044   6.780   2.836  11.905  0.2529 -1.6931 -1.1398
13877TIP3   OH263045   5.345   4.089  12.767 -0.1402  0.0374 -1.0250
13877TIP3    H163046   5.315   4.108  12.856 -1.2033 -2.2849 -0.8029
13877TIP3    H263047   5.398   4.165  12.742 -2.0648  2.0067  0.5236
13878TIP3   OH263048   5.415   1.480   0.024  0.5545 -0.6152  0.1480
13878TIP3    H163049   5.496   1.527   0.042  0.7075 -1.3153  1.3943
13878TIP3    H263050   5.439   1.388   0.025  0.0414 -0.7731 -1.1227
13879TIP3   OH263051   2.050   6.175   0.931  0.1316  0.2043 -0.3955
13879TIP3    H163052   1.957   6.157   0.917 -0.0650  0.9736 -0.1289
13879TIP3    H263053   2.079   6.214   0.848  0.2512 -0.1362 -0.5181
13880TIP3   OH263054   6.037   2.563  14.724  0.4432 -0.6758 -0.5091
13880TIP3    H163055   5.995   2.568  14.809 -0.8378 -2.9263 -0.9462
13880TIP3    H263056   6.130   2.576  14.743  0.0083  0.6279  0.9563
13881TIP3   OH263057   1.054   4.296  17.167 -0.4823  0.1586 -0.2730
13881TIP3    H163058   1.066   4.348  17.087  0.6713  0.1264 -0.1365
13881TIP3    H263059   1.121   4.329  17.227 -1.6010  0.4761  0.8471
13882TIP3   OH263060   4.455   4.263   0.742  0.7276  0.3236 -0.0775
13882TIP3    H163061   4.403   4.272   0.662  0.8591 -1.3387 -0.3869
13882TIP3    H263062   4.424   4.333   0.799 -0.7290  0.3470 -0.8510
13883TIP3   OH263063   5.856   0.074   5.529  0.1543 -0.4212  0.4225
13883TIP3    H163064   5.893   0.153   5.569 -0.5634 -0.7411  1.8008
13883TIP3    H263065   5.770   0.103   5.496  0.1991 -0.4595  0.2733
13884TIP3   OH263066   3.469   0.364   5.148 -0.2106 -0.3255 -0.2178
13884TIP3    H163067   3.475   0.360   5.244  0.6317 -0.0451 -0.2528
13884TIP3    H263068   3.498   0.277   5.119 -2.3066 -1.1068 -0.1683
13885TIP3   OH263069   2.938   0.868  15.867  0.1318 -0.3005  0.6893
13885TIP3    H163070   2.932   0.842  15.775 -1.8717  1.0928  0.3682
13885TIP3    H263071   2.946   0.785  15.914  3.7716 -0.9953 -0.7673
13886TIP3   OH263072   2.483   0.893   3.302  0.2402 -0.5838  0.2718
13886TIP3    H163073   2.487   0.801   3.274  0.2875 -0.3222 -0.6085
13886TIP3    H263074   2.543   0.939   3.244 -0.0357  0.0631  0.4886
13887TIP3   OH263075   6.234   3.797  14.756 -0.0744  0.8603 -0.8387
13887TIP3    H163076   6.139   3.800  14.743 -0.0670 -0.9605 -1.6539
13887TIP3    H263077   6.262   3.719  14.709  1.7163  0.8552  0.1443
13888TIP3   OH263078   2.182   5.330   4.353  0.3925  0.1467 -0.6600
13888TIP3    H163079   2.087   5.341   4.351  0.2049 -1.0986  0.1604
13888TIP3    H263080   2.214   5.405   4.403 -0.4165 -0.6576  1.1746
13889TIP3   OH263081   1.570   1.738  16.811 -0.3848  0.0151  1.0779
13889TIP3    H163082   1.477   1.746  16.790 -0.7203 -1.3972  1.8318
13889TIP3    H263083   1.606   1.825  16.797 -0.9729 -0.2172 -3.0075
13890TIP3   OH263084   1.096   5.805   4.726 -0.7649  0.6419 -0.0943
13890TIP3    H163085   1.039   5.877   4.753 -0.0340  0.8323  1.0143
13890TIP3    H263086   1.164   5.847   4.673 -1.2889  0.5022 -0.8973
13891TIP3   OH263087   3.709   5.032  11.007 -0.1751  0.0977  0.0464
13891TIP3    H163088   3.771   5.000  10.941 -0.2243  0.5563 -0.2245
13891TIP3    H263089   3.656   4.955  11.028 -1.5677  0.4031 -2.0320
13892TIP3   OH263090   1.529   2.024  13.426 -0.3622 -0.1031 -0.0652
13892TIP3    H163091   1.560   2.016  13.337  0.4629 -0.8930  0.2812
13892TIP3    H263092   1.476   2.104  13.426  0.2383  0.3058 -1.0686
13893TIP3   OH263093   4.944   1.299   0.919 -0.2828 -0.0059  0.0306
13893TIP3    H163094   4.977   1.250   0.994 -2.1183 -2.1462 -0.4610
13893TIP3    H263095   4.979   1.254   0.842  0.4073  1.2960 -0.4580
13894TIP3   OH263096   5.583   5.277  12.865 -0.2671  0.0277  0.5103
13894TIP3    H163097   5.517   5.338  12.898  1.7748  0.6423  3.8446
13894TIP3    H263098   5.588   5.297  12.771 -3.3784  1.2494  0.4725
13895TIP3   OH263099   0.251   3.227   1.817  0.6512  0.5071 -0.4711
13895TIP3    H163100   0.343   3.253   1.810  0.6966  0.5056  0.0846
13895TIP3    H263101   0.212   3.256   1.734  0.4882  3.1511  0.4457
13896TIP3   OH263102   6.066   0.760  15.733  0.1821 -0.6069 -0.4558
13896TIP3    H163103   6.020   0.829  15.782  3.2556  1.3798 -0.0315
13896TIP3    H263104   6.031   0.766  15.644 -0.5241  0.6516 -0.1222
13897TIP3   OH263105   5.856   1.759  13.374 -0.3696  0.3269 -0.0649
13897TIP3    H163106   5.848   1.852  13.398 -0.0967  0.1400  0.7937
13897TIP3    H263107   5.788   1.716  13.426  0.2465 -0.0990  0.3881
13898TIP3   OH263108   5.046   0.912   3.829  0.2387  0.5865  0.4923
13898TIP3    H163109   4.955   0.892   3.849  0.1120  0.6315 -0.0278
13898TIP3    H263110   5.087   0.925   3.914 -0.8180  3.1962  0.6968
13899TIP3   OH263111   1.630   3.104  14.043 -0.7059  0.0849  0.7351
13899TIP3    H163112   1.590   3.023  14.073 -0.7924 -0.2959 -0.3563
13899TIP3    H263113   1.679   3.137  14.118  0.4959 -1.7207  0.7871
13900TIP3   OH263114   0.752   6.384  12.020  0.2926 -0.2125  0.0348
13900TIP3    H163115   0.793   6.431  12.093  1.4294  1.9778 -1.8651
13900TIP3    H263116   0.671   6.432  12.004 -0.7356 -1.6311  0.7625
13901TIP3   OH263117   6.401   5.754   3.831  0.2175 -0.3493  0.1031
13901TIP3    H163118   6.350   5.757   3.912 -0.1721  2.6358 -0.1167
13901TIP3    H263119   6.338   5.724   3.765 -0.9228  1.7757  0.1260
13902TIP3   OH263120   2.665   2.957   3.382 -0.0372  0.3461 -0.2925
13902TIP3    H163121   2.602   3.021   3.349 -0.3014  0.3312  0.1784
13902TIP3    H263122   2.627   2.926   3.464  0.3646  0.0022 -0.2334
13903TIP3   OH263123   4.246   3.992  12.007 -0.1184 -0.3254 -0.3160
13903TIP3    H163124   4.237   3.897  11.995 -0.9877 -0.1740 -0.9998
13903TIP3    H263125   4.160   4.026  11.986  0.5584  0.7461 -1.4701
13904TIP3   OH263126   0.463   4.493  14.203  0.4409  0.4661 -0.1206
13904TIP3    H163127   0.394   4.556  14.221  0.1820  0.0330  0.4223
13904TIP3    H263128   0.452   4.425  14.270  0.1146 -0.6527 -1.2753
13905TIP3   OH263129   6.281   4.515   4.058  0.1156 -0.1155  0.5225
13905TIP3    H163130   6.240   4.576   4.119 -0.4573  0.1333 -0.0868
13905TIP3    H263131   6.207   4.473   4.014  0.4833  0.5945 -0.8415
13906TIP3   OH263132   0.557   2.030  13.522  0.4081 -0.1900 -0.4992
13906TIP3    H163133   0.599   1.973  13.586 -1.0695 -0.0831  0.6227
13906TIP3    H263134   0.489   1.975  13.482 -0.1184  0.3689 -0.3921
13907TIP3   OH263135   5.503   2.327  11.963 -0.4339  0.1938  0.8829
13907TIP3    H163136   5.562   2.312  11.889  0.1285  3.0951  0.6244
13907TIP3    H263137   5.416   2.334  11.924 -0.5357 -0.9374  0.8722
13908TIP3   OH263138   0.632   3.956   4.033  0.4363 -0.3643  0.4717
13908TIP3    H163139   0.690   3.882   4.017  0.7188 -0.2633  1.0018
13908TIP3    H263140   0.608   3.988   3.946  0.4160 -0.9979  0.2426
13909TIP3   OH263141   1.454   2.938   1.970  0.2982 -0.3666  0.5285
13909TIP3    H163142   1.528   2.928   2.030 -0.3483 -2.2904  1.0994
13909TIP3    H263143   1.376   2.926   2.026 -0.3930  0.0766 -0.3161
13910TIP3   OH263144   2.067   2.497   4.073  0.0894  0.3264  0.1841
13910TIP3    H163145   2.068   2.555   3.996 -2.6702 -2.0900 -1.8978
13910TIP3    H263146   1.982   2.514   4.114 -1.7797 -3.4099 -1.6845
13911TIP3   OH263147   6.307   1.988  10.914  0.1725 -0.3144 -0.4649
13911TIP3    H163148   6.242   2.026  10.854  0.6641  0.8413 -0.2876
13911TIP3    H263149   6.361   1.933  10.858  0.0533  0.0203 -0.9196
13912TIP3   OH263150   5.581   0.160   2.345 -0.1796 -0.2892 -0.0605
13912TIP3    H163151   5.535   0.138   2.264  1.4000 -1.7280 -0.6306
13912TIP3    H263152   5.668   0.120   2.335 -0.1171 -1.0279  2.5681
13913TIP3   OH263153   5.849   1.132  12.564 -0.1446 -0.0868 -0.0203
13913TIP3    H163154   5.897   1.074  12.506  0.3239  1.9234 -1.7648
13913TIP3    H263155   5.849   1.087  12.649  2.2642 -1.4819 -0.6763
13914TIP3   OH263156   0.460   2.272  13.222  0.4276 -0.3077 -0.2807
13914TIP3    H163157   0.525   2.274  13.292  0.8819  1.0551 -0.7001
13914TIP3    H263158   0.499   2.324  13.152 -0.7475 -0.2028 -0.8766
13915TIP3   OH263159   6.089   5.356   5.297  0.0411 -0.2112  0.4964
13915TIP3    H163160   6.111   5.310   5.378 -0.8666  0.9044  1.4132
13915TIP3    H263161   6.014   5.307   5.262  0.1970 -0.4778  0.5328
13916TIP3   OH263162   0.460   5.587  13.223 -0.2425 -0.1459 -0.3022
13916TIP3    H163163   0.422   5.601  13.310 -1.3859  0.5622 -0.8936
13916TIP3    H263164   0.451   5.671  13.178  1.3197 -0.2009 -0.7508
13917TIP3   OH263165   0.137   3.301   6.877  0.0883 -0.4860  0.0554
13917TIP3    H163166   0.223   3.267   6.901 -0.5761 -1.7206  0.7528
13917TIP3    H263167   0.125   3.274   6.786  1.1076  1.1449 -0.6258
13918TIP3   OH263168   3.044   2.821   0.009 -0.2555  0.1321  0.1672
13918TIP3    H163169   3.034   2.729  -0.016  0.6600  0.0559  0.0497
13918TIP3    H263170   3.098   2.819   0.088 -0.1377  0.5722  0.1034
13919TIP3   OH263171   1.417   0.469  13.606  0.0771 -0.7656 -0.5544
13919TIP3    H163172   1.412   0.403  13.537  0.8491 -2.8215  1.2424
13919TIP3    H263173   1.345   0.529  13.587  0.4880 -1.0220 -3.3063
13920TIP3   OH263174   2.980   5.483   3.470 -0.0201  0.2217 -0.2581
13920TIP3    H163175   2.896   5.526   3.486 -1.1871 -0.7978 -2.9239
13920TIP3    H263176   2.972   5.397   3.511 -0.2991  0.1449 -0.4655
13921TIP3   OH263177   1.683   2.248  15.802  0.1637 -0.2516 -0.1722
13921TIP3    H163178   1.767   2.282  15.832  0.5993 -1.1005 -0.3724
13921TIP3    H263179   1.707   2.181  15.737 -0.6994  0.4116 -1.2096
13922TIP3   OH263180   0.101   2.052   1.088 -0.4468  0.4711 -0.4125
13922TIP3    H163181   0.033   2.055   1.021  0.3545  0.4384 -1.2504
13922TIP3    H263182   0.122   1.959   1.096 -2.0648  0.2083  1.5019
13923TIP3   OH263183   6.011   4.091   2.763  0.1699  0.4213  0.2439
13923TIP3    H163184   5.998   4.186   2.761 -0.3309  0.4183  2.1022
13923TIP3    H263185   5.923   4.055   2.750  0.5079  0.1559 -1.5794
13924TIP3   OH263186   3.834   0.572   0.907 -0.2036 -0.2498  0.2421
13924TIP3    H163187   3.884   0.500   0.869  0.0262  0.2725 -0.4948
13924TIP3    H263188   3.811   0.543   0.994  0.2474 -1.0427  0.1062
13925TIP3   OH263189   5.897   0.307   2.931  0.1659 -0.2937  0.5195
13925TIP3    H163190   5.921   0.222   2.894  0.7502  0.2292 -0.3248
13925TIP3    H263191   5.810   0.292   2.969 -0.5506 -0.8252 -1.2195
13926TIP3   OH263192   4.099   5.975  16.562 -0.2516  0.4389 -0.4125
13926TIP3    H163193   4.063   5.998  16.476 -1.6462  0.8520  0.2427
13926TIP3    H263194   4.022   5.955  16.615  0.6726 -1.2646  0.3426
13927TIP3   OH263195   1.629   5.897  14.209  0.3384 -0.1200  0.1914
13927TIP3    H163196   1.605   5.841  14.282 -0.9104  0.4003  0.2118
13927TIP3    H263197   1.624   5.841  14.132  2.7225 -0.9597  0.5566
13928TIP3   OH263198   5.936   1.468  16.838  0.3631  0.6489 -0.1710
13928TIP3    H163199   5.873   1.422  16.783 -0.4788 -0.9817  1.9759
13928TIP3    H263200   6.015   1.414  16.835 -0.1221 -0.2025  1.1525
13929TIP3   OH263201   3.301   1.028   0.919 -0.1354  0.7145  0.2557
13929TIP3    H163202   3.309   0.933   0.909 -0.3195  0.7401 -0.1525
13929TIP3    H263203   3.347   1.048   1.000 -1.1576  0.1143  0.9999
13930TIP3   OH263204   3.805   4.790  13.823 -0.3083  0.5444  0.3127
13930TIP3    H163205   3.892   4.759  13.849  0.0496  1.6679  0.5261
13930TIP3    H263206   3.819   4.831  13.738 -0.5305  1.1317  0.5536
13931TIP3   OH263207   4.509   4.367   5.055 -0.1365  0.5807 -0.2520
13931TIP3    H163208   4.587   4.408   5.092 -0.6130  0.0589  1.4083
13931TIP3    H263209   4.542   4.313   4.983  0.8523  1.4334 -0.4536
13932TIP3   OH263210   1.055   3.551   0.861 -0.1184 -0.1877  0.3191
13932TIP3    H163211   1.090   3.485   0.800  0.9086  0.9731 -0.3999
13932TIP3    H263212   1.084   3.521   0.947  0.8281 -0.3940 -0.0579
13933TIP3   OH263213   6.211   0.949  14.904  0.4156  0.2117  0.3852
13933TIP3    H163214   6.171   0.894  14.971  0.0426 -0.9599 -0.7704
13933TIP3    H263215   6.137   0.995  14.864  0.3560 -0.7684 -0.6884
13934TIP3   OH263216   4.940   6.721   4.543  0.0244  0.7758  0.2195
13934TIP3    H163217   4.908   6.782   4.609  0.2682  0.5556  0.5503
13934TIP3    H263218   4.863   6.697   4.492  0.0660  1.9872 -0.4456
13935TIP3   OH263219   6.086   6.459   3.146  0.2425  0.4749 -0.4132
13935TIP3    H163220   6.146   6.478   3.218 -0.0352 -1.5367  0.3940
13935TIP3    H263221   5.999   6.472   3.183  0.1001  2.1333 -1.2241
13936TIP3   OH263222   2.155   4.110  13.408 -0.0446  0.3050 -0.0581
13936TIP3    H163223   2.195   4.197  13.413 -1.4367  0.9191  1.1659
13936TIP3    H263224   2.106   4.102  13.490  1.2559 -2.2766  0.5662
13937TIP3   OH263225   4.492   3.936  14.950 -0.4307 -0.2446 -0.2134
13937TIP3    H163226   4.519   3.914  15.039 -0.9268 -1.9288 -0.4561
13937TIP3    H263227   4.573   3.932  14.899 -0.1335  0.7949  0.1367
13938TIP3   OH263228   0.758   3.533  13.974 -0.2299 -0.3679 -0.1451
13938TIP3    H163229   0.823   3.478  13.931 -0.6082 -0.2659 -0.8552
13938TIP3    H263230   0.689   3.473  14.002  0.2932 -0.5185  0.8765
13939TIP3   OH263231   2.442   6.216   2.941 -0.0919 -0.0735  0.0513
13939TIP3    H163232   2.428   6.167   3.022  0.8741  1.1674  1.0171
13939TIP3    H263233   2.515   6.171   2.898 -0.3025 -0.4592  0.0929
13940TIP3   OH263234   4.897   4.360   0.402  0.5782 -0.3256 -0.2173
13940TIP3    H163235   4.861   4.287   0.452 -1.5520  0.8339  0.0524
13940TIP3    H263236   4.946   4.318   0.331 -1.0945 -2.0448 -0.4369
13941TIP3   OH263237   3.209   6.095  12.867  0.3743  0.6424 -0.5638
13941TIP3    H163238   3.222   6.074  12.959 -1.2332  1.6942 -0.0398
13941TIP3    H263239   3.195   6.011  12.824  1.5911  0.1059  0.0494
13942TIP3   OH263240   1.620   5.827   2.752 -0.3208  0.0410  0.4072
13942TIP3    H163241   1.583   5.898   2.805 -1.9732 -0.5427  0.0702
13942TIP3    H263242   1.573   5.749   2.780  1.5546 -0.9841  0.8522
13943TIP3   OH263243   1.418   2.049  15.365  0.3048 -0.6600  0.0467
13943TIP3    H163244   1.409   1.954  15.369  2.3347 -0.8992  0.1268
13943TIP3    H263245   1.493   2.064  15.308 -0.1562  0.9215 -0.2022
13944TIP3   OH263246   4.488   3.931  10.770  0.2520 -0.1703  0.2324
13944TIP3    H163247   4.470   3.967  10.857  1.6713  0.2289  0.3716
13944TIP3    H263248   4.422   3.861  10.760  0.2009 -0.3746  1.7072
13945TIP3   OH263249   5.231   5.385  14.036  0.8255  0.4849  0.4222
13945TIP3    H163250   5.196   5.459  13.986 -0.2041  0.6002  1.2674
13945TIP3    H263251   5.291   5.425  14.099  1.2526  0.4559  0.0396
13946TIP3   OH263252   4.641   1.875  10.173 -0.0680 -0.0150  0.0527
13946TIP3    H163253   4.721   1.866  10.225 -0.2564  0.4846  0.4334
13946TIP3    H263254   4.570   1.859  10.234 -0.3428  1.9200  0.3171
13947TIP3   OH263255   3.869   1.278   4.334 -0.4900  0.0549  0.4618
13947TIP3    H163256   3.819   1.311   4.260 -0.7669  0.1338  0.6811
13947TIP3    H263257   3.819   1.306   4.411  0.2170  0.6678  0.7064
13948TIP3   OH263258   5.469   1.164   4.396  0.5751  0.7585 -0.7998
13948TIP3    H163259   5.465   1.070   4.377  0.6789  0.7836 -0.9526
13948TIP3    H263260   5.518   1.171   4.478  1.8846  0.7696 -1.5629
13949TIP3   OH263261   2.957   0.973  12.892 -0.0397  0.2081 -0.1794
13949TIP3    H163262   2.955   0.984  12.987  1.8802  1.6994 -0.2609
13949TIP3    H263263   2.896   1.039  12.859  1.2251  1.4689 -0.0614
13950TIP3   OH263264   3.106   1.320  13.225 -0.4226 -0.2771  0.4702
13950TIP3    H163265   3.044   1.383  13.188 -1.1333 -0.8797  0.6119
13950TIP3    H263266   3.186   1.331  13.173 -0.9314 -0.1006 -0.2874
13951TIP3   OH263267   4.363   4.789   4.341  1.0408 -0.3240 -0.1419
13951TIP3    H163268   4.440   4.776   4.285  2.3834  0.6768  1.3700
13951TIP3    H263269   4.397   4.782   4.430 -0.4658  0.9215  0.5780
13952TIP3   OH263270   1.144   4.550   3.017  0.3443 -0.6856 -0.0646
13952TIP3    H163271   1.133   4.534   2.923  1.0812 -0.1393 -0.2600
13952TIP3    H263272   1.090   4.628   3.034 -0.6916 -1.4422  0.2157
13953TIP3   OH263273   3.520   0.713  15.965  0.0213  0.7773  0.3353
13953TIP3    H163274   3.470   0.686  16.042 -0.6076 -0.7451 -0.5458
13953TIP3    H263275   3.454   0.724  15.897  0.7815 -0.5225 -0.6605
13954TIP3   OH263276   5.183   1.958   2.372 -0.3988  0.3942 -0.1292
13954TIP3    H163277   5.178   1.875   2.420  0.3172 -0.1419 -0.9534
13954TIP3    H263278   5.257   2.004   2.411  1.4135 -0.8656 -1.9186
13955TIP3   OH263279   0.577   0.939   4.592 -0.1935 -0.3873 -0.3191
13955TIP3    H163280   0.568   0.857   4.544 -1.3625  0.1911 -1.1163
13955TIP3    H263281   0.538   1.005   4.535 -0.4815  0.5183  0.8917
13956TIP3   OH263282   4.402   1.186  11.724 -0.2405  0.0618 -0.4812
13956TIP3    H163283   4.342   1.213  11.793 -0.1891 -0.1972 -0.3324
13956TIP3    H263284   4.453   1.265  11.704 -0.1830  0.1107 -0.1468
13957TIP3   OH263285   2.135   6.139   4.980 -0.0315 -0.3158 -0.7765
13957TIP3    H163286   2.072   6.154   4.909  0.0357  1.5755 -0.4916
13957TIP3    H263287   2.082   6.102   5.051 -0.8308  1.0256 -0.6249
13958TIP3   OH263288   2.933   4.141  12.701 -0.4688  1.1048  0.9120
13958TIP3    H163289   2.999   4.146  12.770 -1.1015  0.6918  1.5713
13958TIP3    H263290   2.907   4.232  12.686 -1.9921  1.0871  2.9137
13959TIP3   OH263291   4.214   2.161  12.227 -0.4708  0.2641  0.3013
13959TIP3    H163292   4.287   2.155  12.288 -2.0238 -0.1673  2.2023
13959TIP3    H263293   4.164   2.237  12.257 -2.7884 -1.5901  1.4215
13960TIP3   OH263294   4.765   5.565   5.659  0.2405 -0.2094 -0.6484
13960TIP3    H163295   4.779   5.473   5.638  2.3646  0.3448 -1.9798
13960TIP3    H263296   4.732   5.603   5.577  1.5096  0.5931 -0.8191
13961TIP3   OH263297   0.415   2.932   1.747 -0.5138 -0.4292  0.1627
13961TIP3    H163298   0.408   2.934   1.843 -2.4888  2.3221  0.0625
13961TIP3    H263299   0.328   2.906   1.717 -0.4016  0.3270 -0.8804
13962TIP3   OH263300   4.823   2.492   1.581  0.4648 -0.4958 -0.4239
13962TIP3    H163301   4.869   2.572   1.605 -1.2253 -0.1327  2.0346
13962TIP3    H263302   4.889   2.438   1.537  2.0128  1.6580 -0.8911
13963TIP3   OH263303   5.710   0.567   5.170 -0.0622 -0.3170  0.4162
13963TIP3    H163304   5.785   0.622   5.150 -1.9147  2.5962  0.9174
13963TIP3    H263305   5.703   0.506   5.097  1.1288  1.2302 -1.0394
13964TIP3   OH263306   0.197   5.363   6.126 -0.3382 -0.3280  0.7313
13964TIP3    H163307   0.141   5.435   6.097 -0.2415 -0.2400  0.7625
13964TIP3    H263308   0.184   5.360   6.221 -0.0081 -0.0710  0.7831
13965TIP3   OH263309   4.017   4.467   5.259  0.5631 -0.0574  0.3939
13965TIP3    H163310   3.964   4.400   5.303 -0.2809  0.4651  0.2008
13965TIP3    H263311   4.092   4.481   5.318  1.3471 -1.9340 -0.0726
13966TIP3   OH263312   6.743   5.294   2.113  0.2166 -0.2213  0.0788
13966TIP3    H163313   6.727   5.237   2.189 -1.0076  0.2936  0.2306
13966TIP3    H263314   6.837   5.286   2.097  1.2336  2.1161  3.6715
13967TIP3   OH263315   5.028   5.660  10.897  0.4382 -0.2295 -0.2153
13967TIP3    H163316   4.996   5.587  10.844  0.1863  0.7962 -1.5433
13967TIP3    H263317   4.962   5.672  10.964  0.3462 -1.0385 -0.1453
13968TIP3   OH263318   2.023   6.492  13.328 -0.2536 -0.5713 -0.6919
13968TIP3    H163319   1.978   6.570  13.295  1.3617  1.0106  0.6323
13968TIP3    H263320   1.952   6.430  13.347 -1.7513  1.1823 -0.2277
13969TIP3   OH263321   5.385   5.746  15.084  0.1013  0.2236 -0.6083
13969TIP3    H163322   5.317   5.679  15.095 -0.2163  0.7660  1.1032
13969TIP3    H263323   5.337   5.827  15.068  0.3239  0.6006  0.5548
13970TIP3   OH263324   3.023   5.511   3.824 -0.7110  0.1150 -1.2351
13970TIP3    H163325   3.116   5.531   3.812 -0.9723  1.1354 -1.7289
13970TIP3    H263326   3.010   5.427   3.780  0.5702 -1.6005  1.3959
13971TIP3   OH263327   3.761   1.991  16.057  0.1835 -0.3293 -0.1912
13971TIP3    H163328   3.839   1.975  16.110  1.1565  0.5857 -1.2958
13971TIP3    H263329   3.694   2.017  16.120  0.5422 -1.7953  0.8511
13972TIP3   OH263330   0.112   5.222  12.167 -0.1139  0.0840 -0.1648
13972TIP3    H163331   0.066   5.270  12.235 -0.9017 -0.6332 -0.1738
13972TIP3    H263332   0.177   5.283  12.133 -1.7470  1.4706 -0.8803
13973TIP3   OH263333   6.092   4.820  12.050  0.0182  0.3800 -0.1977
13973TIP3    H163334   6.053   4.907  12.050  0.3262  0.5434  0.9202
13973TIP3    H263335   6.020   4.761  12.071  0.2312  0.6233  1.3205
13974TIP3   OH263336   3.110   4.398   4.113  0.3316 -0.0305  0.2939
13974TIP3    H163337   3.113   4.438   4.199 -2.0659 -0.1769  0.5290
13974TIP3    H263338   3.017   4.397   4.090  0.5059 -3.0724 -0.8238
13975TIP3   OH263339   5.457   4.984   2.502 -0.0282 -0.6741 -0.5982
13975TIP3    H163340   5.375   4.953   2.464  0.6127 -2.4831 -0.5936
13975TIP3    H263341   5.449   4.962   2.595 -0.4745  1.3006 -0.1119
13976TIP3   OH263342   3.369   2.818  15.850 -0.6117 -0.2311  0.9968
13976TIP3    H163343   3.434   2.818  15.779  0.1362  0.4619  1.6618
13976TIP3    H263344   3.420   2.798  15.929 -1.5897 -2.0138  1.2297
13977TIP3   OH263345   1.916   3.779  14.900 -0.4648 -0.1904  0.2787
13977TIP3    H163346   1.914   3.850  14.965  1.1238  0.2972 -0.1700
13977TIP3    H263347   1.920   3.699  14.951 -3.2372 -0.0979  0.8260
13978TIP3   OH263348   4.446   3.074   3.840 -0.2296 -0.0210 -0.0284
13978TIP3    H163349   4.446   3.071   3.936 -1.4421 -1.9565 -0.0395
13978TIP3    H263350   4.516   3.014   3.814 -0.0937  0.2799 -0.3632
13979TIP3   OH263351   4.273   0.646   3.936  0.4246  0.6057  0.2905
13979TIP3    H163352   4.255   0.698   3.858 -0.4308 -1.5216 -1.0279
13979TIP3    H263353   4.353   0.684   3.972  1.4298  1.0525 -2.2083
13980TIP3   OH263354   5.086   3.294   3.459 -0.0998 -0.1256 -0.3508
13980TIP3    H163355   5.015   3.256   3.407  0.4201  1.2835 -2.2086
13980TIP3    H263356   5.061   3.386   3.471 -0.1388 -0.3686  1.8869
13981TIP3   OH263357   1.465   3.445  13.990 -0.0292 -0.0569  0.3463
13981TIP3    H163358   1.392   3.409  14.039  0.2071 -1.2891 -0.1746
13981TIP3    H263359   1.446   3.423  13.898  0.3416  0.7854  0.0505
13982TIP3   OH263360   6.512   1.026   3.598  0.0861  0.5980 -0.2728
13982TIP3    H163361   6.441   0.986   3.649 -1.2966  2.2880 -0.7817
13982TIP3    H263362   6.589   1.019   3.654 -1.0448  1.0015  1.3896
13983TIP3   OH263363   5.705   1.285   2.825  0.1511 -0.3341 -0.0037
13983TIP3    H163364   5.647   1.270   2.900 -0.3733 -0.6355 -0.4597
13983TIP3    H263365   5.774   1.219   2.835  0.5497  0.1670  0.6604
13984TIP3   OH263366   0.112   5.155  11.496  0.0749  0.2352 -0.0556
13984TIP3    H163367   0.107   5.081  11.557 -2.0036  0.4630  0.1054
13984TIP3    H263368   0.122   5.232  11.552 -0.6693  0.3368 -0.0586
13985TIP3   OH263369   2.474   5.653  11.679 -0.7428  0.2339  0.6046
13985TIP3    H163370   2.477   5.561  11.705  2.8583 -0.2681 -1.0262
13985TIP3    H263371   2.505   5.701  11.755  2.3417 -0.5100 -0.0478
13986TIP3   OH263372   6.752   6.192   4.290 -0.3471 -0.4955  0.3221
13986TIP3    H163373   6.697   6.194   4.369  0.6856 -0.2430  1.0476
13986TIP3    H263374   6.794   6.106   4.292  1.0547  0.1730  1.0311
13987TIP3   OH263375   0.200   6.254   0.165  0.1694 -0.3801  0.4214
13987TIP3    H163376   0.165   6.308   0.236  0.6183 -0.7155  0.9091
13987TIP3    H263377   0.178   6.164   0.191  3.5831 -0.8917  2.1130
13988TIP3   OH263378   1.129   6.734  16.921 -0.6595  0.3482  0.2647
13988TIP3    H163379   1.224   6.723  16.912 -0.5671  1.3664 -0.1492
13988TIP3    H263380   1.118   6.778  17.005 -0.8240 -0.3845  0.6327
13989TIP3   OH263381   2.357   1.703  15.759 -0.4497 -0.6560  0.4206
13989TIP3    H163382   2.319   1.790  15.771  0.2476 -0.3551  0.4941
13989TIP3    H263383   2.347   1.685  15.666  4.1552  1.8414 -0.8662
13990TIP3   OH263384   2.944   1.438   5.560 -0.1331 -0.4261  0.3065
13990TIP3    H163385   2.853   1.433   5.589 -1.1743 -0.4380 -2.5757
13990TIP3    H263386   2.977   1.349   5.566 -0.6200 -0.5965  0.4922
13991TIP3   OH263387   5.182   2.473   0.746 -0.3011 -0.6747  0.0184
13991TIP3    H163388   5.103   2.461   0.694 -0.7803 -2.5331  1.0865
13991TIP3    H263389   5.234   2.395   0.730  0.0725 -0.7321  1.3939
13992TIP3   OH263390   3.242   1.589  12.184 -0.1483  0.3737 -0.0567
13992TIP3    H163391   3.267   1.508  12.229  0.2731  1.1809  1.2272
13992TIP3    H263392   3.253   1.569  12.091 -1.7881 -1.5993  0.1080
13993TIP3   OH263393   3.539   6.502   4.289  0.3591  0.7681 -0.0712
13993TIP3    H163394   3.541   6.408   4.271  2.7486  0.4093  1.4658
13993TIP3    H263395   3.471   6.512   4.356 -0.3230  0.2350 -0.6780
13994TIP3   OH263396   2.161   2.520  15.499 -0.6675  0.1472 -0.1309
13994TIP3    H163397   2.140   2.611  15.522 -1.3148  0.3891 -1.5491
13994TIP3    H263398   2.173   2.522  15.405  0.7577 -0.9954  0.0051
13995TIP3   OH263399   1.126   0.022  16.536  0.2142 -0.0415  0.2392
13995TIP3    H163400   1.159   0.069  16.460  0.3592 -0.1900  0.2072
13995TIP3    H263401   1.046   0.068  16.561 -0.6771 -0.8917 -0.9252
13996TIP3   OH263402   2.263   5.801  13.635  0.4443 -0.3373 -0.0467
13996TIP3    H163403   2.212   5.730  13.674  2.9923 -0.6215  3.2470
13996TIP3    H263404   2.353   5.767  13.630  1.0447  1.3029 -2.2622
13997TIP3   OH263405   3.513   6.161   0.658  0.2802  0.0533 -0.0494
13997TIP3    H163406   3.585   6.190   0.602  0.2284  1.7072  0.6733
13997TIP3    H263407   3.548   6.084   0.704  1.9459  1.3330  0.9442
13998TIP3   OH263408   4.476   1.214   4.608 -0.1337  0.2935  0.2249
13998TIP3    H163409   4.547   1.233   4.547 -0.1385  0.0992  0.1558
13998TIP3    H263410   4.408   1.279   4.587 -1.3992 -1.6180 -2.0915
13999TIP3   OH263411   5.449   0.512  16.259  0.7769  0.2418 -0.4108
13999TIP3    H163412   5.491   0.434  16.223  2.0057  0.7367 -0.0933
13999TIP3    H263413   5.456   0.502  16.354  1.1185  0.8087 -0.3673
14000TIP3   OH263414   4.526   0.383  14.879 -0.4410  0.6771  0.1839
14000TIP3    H163415   4.569   0.354  14.960 -1.4954  2.5553  1.4930
14000TIP3    H263416   4.458   0.443  14.909 -2.1374 -0.0542 -2.0166
14001TIP3   OH263417   3.658   0.737  13.868  0.3203 -0.1510  0.1930
14001TIP3    H163418   3.713   0.664  13.842  0.3505  0.5887 -2.0427
14001TIP3    H263419   3.601   0.753  13.792 -0.8535  1.0598  1.2651
14002TIP3   OH263420   1.079   1.547  13.361  0.3950 -0.0512 -0.3475
14002TIP3    H163421   1.163   1.504  13.344  0.3213  0.2333 -1.5714
14002TIP3    H263422   1.015   1.491  13.317 -0.5043 -1.8352  2.8752
14003TIP3   OH263423   1.390   5.635   1.619 -0.3017  0.2945 -0.4305
14003TIP3    H163424   1.479   5.669   1.607  0.3280 -0.7107  1.1542
14003TIP3    H263425   1.376   5.576   1.545  0.3975  0.3615 -0.6190
14004TIP3   OH263426   2.378   5.322  11.202 -0.7913  0.1536 -0.0508
14004TIP3    H163427   2.391   5.374  11.123 -1.7930  0.4512 -0.0427
14004TIP3    H263428   2.413   5.236  11.181  1.3514  0.9365  0.1033
14005TIP3   OH263429   4.255   2.657   4.240 -0.4492  0.5216 -0.0840
14005TIP3    H163430   4.281   2.609   4.318 -1.5323  2.4307  1.5620
14005TIP3    H263431   4.193   2.600   4.195  1.4793 -1.3187 -0.5305
14006TIP3   OH263432   3.025   6.018   0.181  0.1631 -0.1651 -0.3970
14006TIP3    H163433   3.009   6.049   0.270  2.3903  1.2554 -0.4132
14006TIP3    H263434   2.976   6.077   0.125  1.5297  1.2022 -0.2323
14007TIP3   OH263435   6.205   3.087  16.714 -0.1458 -0.4235  0.3564
14007TIP3    H163436   6.238   3.003  16.681  1.0126 -0.4810  1.5406
14007TIP3    H263437   6.201   3.144  16.637 -3.1561 -2.1561 -0.9095
14008TIP3   OH263438   2.201   6.601   0.652 -0.3767 -0.1466 -0.1269
14008TIP3    H163439   2.248   6.672   0.609  1.2630 -0.6637  0.7034
14008TIP3    H263440   2.111   6.631   0.657 -0.1023  1.0187 -1.5392
14009TIP3   OH263441   1.198   0.212   4.703  0.0494 -0.4559 -0.1820
14009TIP3    H163442   1.182   0.299   4.740  1.3016 -0.0362 -0.5810
14009TIP3    H263443   1.292   0.199   4.712 -0.0455 -1.5546 -0.6163
14010TIP3   OH263444   3.197   0.947   5.593  0.3665  0.1412 -0.8707
14010TIP3    H163445   3.206   1.038   5.563 -0.8078 -0.1988 -2.3511
14010TIP3    H263446   3.111   0.943   5.633  2.0677  0.7091  3.3344
14011TIP3   OH263447   0.424   5.139   5.450  0.6344 -0.2718  0.3899
14011TIP3    H163448   0.348   5.091   5.416 -0.7023 -0.0807  2.8777
14011TIP3    H263449   0.471   5.168   5.372  0.0400 -3.2735 -1.2478
14012TIP3   OH263450   2.207   4.692   2.759  0.1702 -0.0876  0.4884
14012TIP3    H163451   2.263   4.629   2.715 -1.5331 -1.6202  0.3634
14012TIP3    H263452   2.211   4.771   2.705  1.9435 -0.2366  0.3532
14013TIP3   OH263453   3.003   2.210  15.719  0.9372 -0.3159  0.5022
14013TIP3    H163454   3.018   2.269  15.645 -0.2493 -0.2704  0.2713
14013TIP3    H263455   2.913   2.230  15.747  1.3962 -0.2761  2.0163
14014TIP3   OH263456   2.062   2.102   3.501 -0.9026 -0.6403  0.3771
14014TIP3    H163457   2.040   2.061   3.584 -0.5617  0.2585  0.9256
14014TIP3    H263458   2.125   2.171   3.524 -1.3955  0.1384 -0.5122
14015TIP3   OH263459   0.189   3.894   4.815 -0.2287 -0.1186  0.0000
14015TIP3    H163460   0.149   3.852   4.739 -2.5665  1.9001 -0.0187
14015TIP3    H263461   0.202   3.822   4.877  0.6960 -1.6261 -1.8198
14016TIP3   OH263462   4.423   2.427  12.579 -0.2703  0.0971 -0.0304
14016TIP3    H163463   4.512   2.455  12.597  0.4448 -1.2084 -1.3152
14016TIP3    H263464   4.368   2.480  12.638  1.2565  1.5032  0.1830
14017TIP3   OH263465   5.038   1.448  13.344 -0.7275  0.0750  0.2067
14017TIP3    H163466   5.101   1.423  13.411 -0.4211  0.5386  0.1015
14017TIP3    H263467   5.056   1.541  13.328 -0.5753 -0.1046 -0.7393
14018TIP3   OH263468   6.649   4.343   1.203  0.2499 -0.0701 -0.4962
14018TIP3    H163469   6.644   4.262   1.253  1.1677  1.7151  2.8878
14018TIP3    H263470   6.581   4.399   1.241 -0.5331  0.7190 -2.8836
14019TIP3   OH263471   2.409   2.700   5.857 -0.4388  0.0507 -0.7104
14019TIP3    H163472   2.458   2.742   5.786 -1.4147  1.9121 -0.3680
14019TIP3    H263473   2.336   2.760   5.874 -0.8236 -0.8687  1.1656
14020TIP3   OH263474   5.199   6.475  16.183 -0.8181  0.1964  0.4461
14020TIP3    H163475   5.190   6.424  16.263  0.9664  0.3412  0.7757
14020TIP3    H263476   5.241   6.556  16.211  2.2403 -0.7642 -0.8881
14021TIP3   OH263477   3.247   5.666  12.130 -0.0219 -0.0855 -0.0491
14021TIP3    H163478   3.189   5.628  12.064  0.1431 -0.6237  0.1123
14021TIP3    H263479   3.274   5.592  12.184 -0.9284  0.4663  1.2455
14022TIP3   OH263480   4.999   6.218   5.108  0.0276  0.4004 -0.0713
14022TIP3    H163481   4.955   6.225   5.193 -0.4281  0.2699 -0.2939
14022TIP3    H263482   4.930   6.233   5.044  0.2345 -0.1842 -0.4339
14023TIP3   OH263483   6.110   2.164   3.637  0.1480  0.2434 -0.8742
14023TIP3    H163484   6.029   2.187   3.592 -0.3104 -0.9008 -0.6491
14023TIP3    H263485   6.118   2.230   3.707 -0.9338 -0.0106 -0.4859
14024TIP3   OH263486   0.714   2.967   0.404  0.4918 -0.5686  0.2480
14024TIP3    H163487   0.657   2.916   0.462 -0.3580 -0.3726 -0.3908
14024TIP3    H263488   0.671   2.963   0.318  1.3001 -0.1786 -0.1875
14025TIP3   OH263489   5.261   1.945  13.769  0.0104 -0.2360  0.4374
14025TIP3    H163490   5.339   1.969  13.720  0.3536 -1.2395  0.4698
14025TIP3    H263491   5.279   1.972  13.859  0.3033 -0.4280  0.4371
14026TIP3   OH263492   2.342   0.079  11.758  0.1203 -0.7260 -0.1127
14026TIP3    H163493   2.395   0.109  11.685 -3.0961  0.8549 -2.0630
14026TIP3    H263494   2.285   0.154  11.779  0.4930 -1.2890  3.7283
14027TIP3   OH263495   4.240   2.826   6.585  0.4889 -0.4269 -0.3653
14027TIP3    H163496   4.308   2.765   6.557  0.9125 -0.1665  0.0827
14027TIP3    H263497   4.269   2.911   6.553  0.5903 -0.2489  0.1825
14028TIP3   OH263498   4.871   1.963  14.353  0.5444  0.2856  0.0033
14028TIP3    H163499   4.959   1.943  14.321  0.5507  1.8828 -1.1040
14028TIP3    H263500   4.883   1.978  14.447  0.6808 -3.5488  0.7375
14029TIP3   OH263501   5.276   2.542   5.424  0.1041 -0.0395  0.8320
14029TIP3    H163502   5.212   2.487   5.379  1.1442 -0.4816 -0.1294
14029TIP3    H263503   5.230   2.625   5.439 -0.5188 -0.1566 -0.3458
14030TIP3   OH263504   0.347   0.145  13.924  0.4784 -0.0048  0.4637
14030TIP3    H163505   0.305   0.220  13.965  0.2720 -0.2670  0.7337
14030TIP3    H263506   0.371   0.176  13.836 -2.1202 -0.4498 -0.4790
14031TIP3   OH263507   4.597   1.547  15.340  0.0749  0.2831  0.6694
14031TIP3    H163508   4.606   1.455  15.318  1.8986  0.5134  0.2585
14031TIP3    H263509   4.505   1.568  15.323 -0.3498 -1.4294  0.7396
14032TIP3   OH263510   5.476   2.000  16.916 -0.0414 -0.0852  0.6006
14032TIP3    H163511   5.428   1.943  16.977  0.7024  0.5803  1.8282
14032TIP3    H263512   5.444   2.088  16.936 -3.1930 -0.1187 -3.0572
14033TIP3   OH263513   1.776   6.080  16.041  0.6741  0.7320 -0.3189
14033TIP3    H163514   1.824   6.051  15.964  1.0516 -0.6822  0.3989
14033TIP3    H263515   1.835   6.062  16.114  0.2605  1.8791  0.3261
14034TIP3   OH263516   2.028   0.064  11.430  0.4663 -0.5712 -0.6751
14034TIP3    H163517   2.082   0.142  11.415  0.4166 -0.5232 -0.6109
14034TIP3    H263518   1.949   0.079  11.379 -0.4378  0.3672  0.9027
14035TIP3   OH263519   6.103   5.106   4.806  0.2213  0.3622 -0.1320
14035TIP3    H163520   6.181   5.129   4.857 -0.6493  2.1056  0.4870
14035TIP3    H263521   6.128   5.027   4.758  1.7786 -0.1143  1.3745
14036TIP3   OH263522   6.239   0.481   1.393  0.2008  0.1688  0.1815
14036TIP3    H163523   6.274   0.501   1.480  0.4856 -0.1622  0.1421
14036TIP3    H263524   6.188   0.401   1.405  0.3427  0.0532  0.0196
14037TIP3   OH263525   5.945   1.961   4.533  0.7727 -0.2943  0.5084
14037TIP3    H163526   5.899   1.991   4.611  1.2114  1.0526  0.2666
14037TIP3    H263527   6.037   1.982   4.551  0.6613  1.9107 -1.1780
14038TIP3   OH263528   0.332   6.167  13.478 -0.0549  0.0471 -0.0002
14038TIP3    H163529   0.299   6.255  13.459 -0.6152  0.2085  1.5959
14038TIP3    H263530   0.406   6.181  13.536  0.9312 -0.4760 -1.1020
14039TIP3   OH263531   1.556   1.318  12.973  0.1906  0.0620  0.7377
14039TIP3    H163532   1.612   1.341  12.899  3.3951 -3.2791  1.8378
14039TIP3    H263533   1.488   1.263  12.936  0.7604 -0.1642  0.0085
14040TIP3   OH263534   2.605   3.131   0.652 -0.1562  0.5963 -0.0187
14040TIP3    H163535   2.680   3.160   0.600  1.1026  0.9650  1.9177
14040TIP3    H263536   2.638   3.061   0.707 -1.5176  0.0293  0.1256
14041TIP3   OH263537   2.454   0.995   1.404  0.1970  0.1979  0.2471
14041TIP3    H163538   2.426   1.040   1.324  2.0038  1.2584  0.1475
14041TIP3    H263539   2.527   0.940   1.376 -0.7829 -1.4131  0.7305
14042TIP3   OH263540   6.330   1.805  14.311  0.4896 -0.1799  0.2512
14042TIP3    H163541   6.267   1.737  14.288 -0.2610 -0.1071  1.9569
14042TIP3    H263542   6.401   1.794  14.248 -0.4074 -1.4211 -0.5846
14043TIP3   OH263543   3.493   0.641   4.733 -0.1200 -0.2335  0.3155
14043TIP3    H163544   3.433   0.591   4.788 -1.1637  0.0010 -0.5708
14043TIP3    H263545   3.446   0.722   4.713  0.6379  0.1148 -0.1089
14044TIP3   OH263546   2.740   2.516   1.846  0.0048  0.0885 -0.0414
14044TIP3    H163547   2.771   2.519   1.936 -0.5119  1.2724  0.1135
14044TIP3    H263548   2.659   2.465   1.850 -0.2491  0.5116  0.2402
14045TIP3   OH263549   3.442   5.233   2.101  0.4972  0.7549 -0.3162
14045TIP3    H163550   3.356   5.197   2.078  1.9282 -2.9111 -0.4972
14045TIP3    H263551   3.459   5.199   2.189  1.9885  0.9969 -0.5000
14046TIP3   OH263552   1.755   3.770   4.098  0.0565 -0.1787 -0.5668
14046TIP3    H163553   1.660   3.758   4.093 -0.1101  1.0311 -0.5503
14046TIP3    H263554   1.769   3.816   4.181  0.4496  1.4400 -1.4930
14047TIP3   OH263555   2.281   2.082  11.829 -0.0315  0.0696 -0.3542
14047TIP3    H163556   2.339   2.126  11.890 -0.4186 -1.4510  1.2197
14047TIP3    H263557   2.200   2.067  11.879  0.1694 -2.5676 -0.6640
14048TIP3   OH263558   4.338   1.994  14.276 -1.0392 -0.2550 -0.3755
14048TIP3    H163559   4.365   2.078  14.312 -2.5181  0.1192 -0.0924
14048TIP3    H263560   4.391   1.984  14.197  0.5438  0.0111  0.6025
14049TIP3   OH263561   4.245   0.931   4.587 -0.0545  0.1599 -0.1230
14049TIP3    H163562   4.316   0.889   4.539 -0.7260 -1.4813  0.2245
14049TIP3    H263563   4.176   0.944   4.522 -0.1017  0.0671 -0.0925
14050TIP3   OH263564   0.963   2.307   3.406 -0.0076 -0.1577  0.1460
14050TIP3    H163565   0.969   2.215   3.431 -0.9990 -0.0022  1.0303
14050TIP3    H263566   0.872   2.317   3.377 -0.4000  0.9096  1.6395
14051TIP3   OH263567   5.014   2.221   1.214  0.4854 -0.2268 -0.2055
14051TIP3    H163568   4.921   2.196   1.218  0.6217 -0.7507 -0.1864
14051TIP3    H263569   5.047   2.176   1.136  0.1987  1.8109 -1.5909
14052TIP3   OH263570   3.582   6.507   0.421 -0.0261 -0.8726  0.0378
14052TIP3    H163571   3.632   6.426   0.420  0.5815 -0.5097 -0.9187
14052TIP3    H263572   3.598   6.546   0.335  1.4063  1.2940  1.1889
14053TIP3   OH263573   0.657   4.713   1.782  0.3388 -0.0327  0.4252
14053TIP3    H163574   0.655   4.636   1.726  2.5162  0.8576 -1.0031
14053TIP3    H263575   0.750   4.728   1.800  0.0542  2.6794  0.0001
14054TIP3   OH263576   0.249   1.328   3.797 -0.1029  0.2548  0.6481
14054TIP3    H163577   0.340   1.306   3.818 -0.2929  0.2347  1.4832
14054TIP3    H263578   0.222   1.387   3.868 -0.2045  1.6476 -0.5085
14055TIP3   OH263579   3.985   5.000   0.153  0.1477 -0.2381  0.1450
14055TIP3    H163580   4.012   4.936   0.087 -0.6178 -0.9118  0.4718
14055TIP3    H263581   3.920   4.954   0.206  0.8855  0.2206  1.5044
14056TIP3   OH263582   6.272   2.054   1.657 -0.3792 -0.1984  0.3421
14056TIP3    H163583   6.306   2.144   1.655  0.0274 -0.3520  0.1129
14056TIP3    H263584   6.333   2.005   1.602  0.9261 -1.1430  2.4963
14057TIP3   OH263585   2.643   0.939  12.809  0.4156 -0.1345  0.1706
14057TIP3    H163586   2.600   0.864  12.852  1.7198 -0.0767  1.6468
14057TIP3    H263587   2.723   0.953  12.859  0.9568  1.3078 -1.0279
14058TIP3   OH263588   0.587   2.526  12.721 -0.1121  0.8378 -0.9316
14058TIP3    H163589   0.660   2.468  12.699 -0.4416 -1.1656  2.4575
14058TIP3    H263590   0.509   2.472  12.708 -0.5089  0.8198  1.1760
14059TIP3   OH263591   1.286   1.532   5.267 -0.2555 -0.3109  0.1985
14059TIP3    H163592   1.276   1.450   5.218 -0.3888 -0.7214  0.9042
14059TIP3    H263593   1.200   1.574   5.261 -0.8950 -1.2923  1.7083
14060TIP3   OH263594   4.281   4.492  17.233 -0.3942 -1.1577  0.5654
14060TIP3    H163595   4.363   4.454  17.264  0.7958  1.2699  0.5447
14060TIP3    H263596   4.286   4.584  17.257 -1.9569 -0.3679 -1.8194
14061TIP3   OH263597   5.069   6.388  11.731 -0.6870 -0.3534 -0.0141
14061TIP3    H163598   5.165   6.399  11.731 -0.6044 -0.9963  0.8808
14061TIP3    H263599   5.040   6.441  11.657  0.3549 -0.0723 -0.2503
14062TIP3   OH263600   2.383   6.614  11.090  0.7766 -0.6999 -0.4631
14062TIP3    H163601   2.402   6.520  11.084 -1.5664 -1.3036  0.4020
14062TIP3    H263602   2.287   6.619  11.088  0.8468  1.8726 -2.5957
14063TIP3   OH263603   5.650   3.413   0.443 -0.4673 -0.0380  0.0327
14063TIP3    H163604   5.621   3.493   0.487  0.2123 -0.1826  0.7813
14063TIP3    H263605   5.618   3.421   0.354 -0.0779  1.2539 -0.0106
14064TIP3   OH263606   0.249   4.528   4.337  0.5140  0.4507  0.0032
14064TIP3    H163607   0.234   4.525   4.243 -0.8483  1.0258  0.1940
14064TIP3    H263608   0.266   4.437   4.361 -0.0466  0.1680 -0.6493
14065TIP3   OH263609   0.070   5.451   1.498 -0.3456  0.1074 -0.4284
14065TIP3    H163610   0.140   5.402   1.455  0.3463  1.8096 -1.3171
14065TIP3    H263611   0.022   5.493   1.426  0.0669  2.0046  0.3407
14066TIP3   OH263612   6.470   3.378   5.809  0.1995  0.0144 -0.0758
14066TIP3    H163613   6.543   3.344   5.758 -0.6293 -1.0890 -0.5686
14066TIP3    H263614   6.433   3.301   5.853  0.8367  0.9034  2.1866
14067TIP3   OH263615   4.747   2.120  13.670 -0.2674 -0.0152  0.3480
14067TIP3    H163616   4.831   2.142  13.628 -1.8760  0.4379 -3.0076
14067TIP3    H263617   4.751   2.163  13.755  2.5745  0.6825 -0.0349
14068TIP3   OH263618   2.068   4.883  14.436  0.0687  0.4550  0.4455
14068TIP3    H163619   1.984   4.898  14.394  1.1235  0.5879 -1.7695
14068TIP3    H263620   2.047   4.834  14.516 -2.1556  1.3698  0.4902
14069TIP3   OH263621   4.836   6.032  14.133 -0.5481 -0.0220 -0.5285
14069TIP3    H163622   4.803   6.033  14.223 -0.7167  2.2294 -0.5439
14069TIP3    H263623   4.760   6.012  14.079 -0.4190 -1.5057 -0.1846
14070TIP3   OH263624   2.303   0.851  10.980  0.3354 -0.5582 -0.6436
14070TIP3    H163625   2.308   0.758  11.001  1.5154 -0.6284 -1.1741
14070TIP3    H263626   2.377   0.867  10.921  0.2188  0.7363 -0.4720
14071TIP3   OH263627   4.956   4.791   1.416 -0.4613  0.3078 -0.2438
14071TIP3    H163628   4.932   4.806   1.508  0.8122  0.6776  0.0479
14071TIP3    H263629   4.948   4.696   1.405 -1.0160  0.3029  0.1199
14072TIP3   OH263630   1.070   0.657  12.293 -0.4747 -0.4246  0.1753
14072TIP3    H163631   0.990   0.695  12.256  0.7674  0.1079 -2.2166
14072TIP3    H263632   1.048   0.565  12.310 -1.4362 -0.4376 -1.0094
14073TIP3   OH263633   1.870   3.146   4.626  0.0532  0.2752  0.4299
14073TIP3    H163634   1.824   3.201   4.690  0.0992  2.0107 -0.9505
14073TIP3    H263635   1.921   3.208   4.574  1.6369 -1.3063  0.0042
14074TIP3   OH263636   4.358   3.514  16.838  0.0466  0.6498 -0.3276
14074TIP3    H163637   4.335   3.423  16.818  2.0706 -0.0497  0.3012
14074TIP3    H263638   4.435   3.507  16.894 -1.0500  2.7169  1.5807
14075TIP3   OH263639   2.758   2.851  15.352  0.4071  0.1192 -0.2350
14075TIP3    H163640   2.669   2.882  15.332 -0.0986  0.0652  1.7198
14075TIP3    H263641   2.774   2.781  15.288 -0.4701  0.9051 -1.3672
14076TIP3   OH263642   1.851   3.323  12.106  0.0983  0.6163  0.0518
14076TIP3    H163643   1.934   3.280  12.083  0.4172  1.3104 -0.1250
14076TIP3    H263644   1.820   3.361  12.024 -0.0188  0.9926  0.2689
14077TIP3   OH263645   4.166   4.847   2.744  0.5318  0.3873 -0.5897
14077TIP3    H163646   4.168   4.870   2.651  0.9602  1.0337 -0.4295
14077TIP3    H263647   4.130   4.758   2.746  1.5827 -0.0850 -1.4736
14078TIP3   OH263648   5.695   5.353  13.521 -0.2916  0.3643  0.4321
14078TIP3    H163649   5.617   5.400  13.553 -0.8010  1.0443 -1.6220
14078TIP3    H263650   5.764   5.419  13.520 -0.0354  0.1100  0.9638
14079TIP3   OH263651   0.792   4.350  16.349 -0.1826  0.2331 -0.3007
14079TIP3    H163652   0.831   4.280  16.401 -0.1419  0.3154 -0.2184
14079TIP3    H263653   0.800   4.321  16.259  0.2071  0.3154 -0.2953
14080TIP3   OH263654   4.740   2.108  14.169  0.6626 -0.2658  0.1782
14080TIP3    H163655   4.767   2.183  14.223 -1.5109 -0.0220  1.0469
14080TIP3    H263656   4.776   2.032  14.215  1.4539  0.1222  0.2276
14081TIP3   OH263657   2.702   0.043   0.871  0.0488 -0.0966  0.1113
14081TIP3    H163658   2.697  -0.052   0.873  0.9331 -0.1774 -0.6850
14081TIP3    H263659   2.787   0.062   0.830 -0.5038  1.0345 -0.5662
14082TIP3   OH263660   1.464   4.026  15.770 -0.2485 -0.1439 -0.5636
14082TIP3    H163661   1.380   3.991  15.799 -0.5566  0.6385 -0.4838
14082TIP3    H263662   1.452   4.046  15.677 -0.6227  1.2695 -0.2424
14083TIP3   OH263663   3.992   1.286  14.422 -0.0926  0.0749 -0.3939
14083TIP3    H163664   4.038   1.368  14.403  1.0853 -0.3217  0.6520
14083TIP3    H263665   3.935   1.273  14.346  0.4254  1.3542 -1.0337
14084TIP3   OH263666   5.787   2.354  12.299 -0.4262 -0.6068  0.2679
14084TIP3    H163667   5.831   2.285  12.348 -0.6636 -1.5247 -0.7809
14084TIP3    H263668   5.709   2.312  12.264 -0.0514 -0.0936 -1.2383
14085TIP3   OH263669   3.825   6.688  12.941  0.0070 -0.4618 -0.0193
14085TIP3    H163670   3.827   6.594  12.924 -0.3477 -0.0603 -2.8096
14085TIP3    H263671   3.891   6.725  12.882 -0.0850  1.0766  0.7797
14086TIP3   OH263672   6.204   5.458   2.368  0.3633  0.0586 -1.1616
14086TIP3    H163673   6.199   5.530   2.305 -0.9628  1.6026  0.5601
14086TIP3    H263674   6.150   5.488   2.442  2.7843 -1.0886  1.2472
14087TIP3   OH263675   6.647   4.615  17.116  0.2851 -0.2538  0.5249
14087TIP3    H163676   6.632   4.630  17.023 -0.9124  0.9420  0.8681
14087TIP3    H263677   6.724   4.559  17.120 -0.3996 -1.3792 -1.2160
14088TIP3   OH263678   3.460   5.937  13.598  0.3942  0.2892  0.3819
14088TIP3    H163679   3.386   5.947  13.658 -0.4468  2.6548 -0.9108
14088TIP3    H263680   3.516   6.012  13.615  0.8973  0.1921 -0.7521
14089TIP3   OH263681   3.739   4.637  16.689  0.4586 -0.2930  0.2921
14089TIP3    H163682   3.727   4.547  16.659 -2.1151  0.2743 -0.6525
14089TIP3    H263683   3.722   4.634  16.783 -1.9055 -0.5129 -0.0866
14090TIP3   OH263684   1.571   4.845   1.011  0.1467 -0.0119 -0.4944
14090TIP3    H163685   1.577   4.808   0.923 -1.3221  1.2693 -1.1901
14090TIP3    H263686   1.517   4.782   1.059  1.7375 -1.1957 -0.1918
14091TIP3   OH263687   4.293   6.159   3.748  0.0067  0.1887  0.0430
14091TIP3    H163688   4.371   6.119   3.710  1.1874  1.3247  1.1648
14091TIP3    H263689   4.230   6.087   3.756  1.9838 -1.4397  1.8640
14092TIP3   OH263690   2.752   0.296  13.274  0.2798 -0.0954 -0.4169
14092TIP3    H163691   2.716   0.224  13.222  1.3104  0.8878 -2.6519
14092TIP3    H263692   2.835   0.263  13.309  0.0895 -0.4256 -0.2792
14093TIP3   OH263693   2.811   6.627  11.053 -0.4836  0.3096  0.4755
14093TIP3    H163694   2.744   6.579  11.005  1.2209 -0.3568 -1.4061
14093TIP3    H263695   2.808   6.716  11.017  1.2348 -0.3545 -1.5120
14094TIP3   OH263696   5.140   3.176  12.641  0.5245 -0.1891  0.3029
14094TIP3    H163697   5.219   3.191  12.693  0.6377 -0.4335  0.2037
14094TIP3    H263698   5.124   3.260  12.598  0.0188  0.2346  1.2809
14095TIP3   OH263699   2.786   6.458  16.529  0.1665 -0.5811  0.2186
14095TIP3    H163700   2.758   6.432  16.441 -1.5090  0.4835  0.3669
14095TIP3    H263701   2.752   6.390  16.587 -0.9530 -0.0172  0.2529
14096TIP3   OH263702   6.397   5.865  17.245  0.2894 -0.6487  0.3140
14096TIP3    H163703   6.481   5.912  17.237 -0.1549  0.0221 -0.5542
14096TIP3    H263704   6.346   5.918  17.306 -1.1533  1.5016 -2.5368
14097TIP3   OH263705   2.739   4.029   4.404 -0.2576  0.5124  0.2316
14097TIP3    H163706   2.690   4.098   4.448  0.9687 -0.7844  4.0725
14097TIP3    H263707   2.830   4.058   4.408 -0.0570  0.1664 -1.2508
14098TIP3   OH263708   3.753   2.204  13.597  0.7737  0.1558 -0.1031
14098TIP3    H163709   3.731   2.251  13.678 -1.7235  0.5690 -0.9504
14098TIP3    H263710   3.784   2.118  13.627 -1.4615 -0.2339  1.3212
14099TIP3   OH263711   0.337   5.308  14.951  0.4280  0.0353  0.2593
14099TIP3    H163712   0.303   5.370  15.015  0.9847  1.4070 -0.7082
14099TIP3    H263713   0.266   5.298  14.887  1.1370  1.5758 -0.8468
14100TIP3   OH263714   2.968   0.504  13.151  0.4597  0.3435  0.1489
14100TIP3    H163715   3.055   0.468  13.132  1.3349  2.7250 -0.7852
14100TIP3    H263716   2.907   0.448  13.104  1.7766  0.3319 -1.6216
14101TIP3   OH263717   4.154   1.193  10.896 -0.5611 -0.2823  0.1589
14101TIP3    H163718   4.068   1.151  10.891 -0.0858 -1.3725  0.6850
14101TIP3    H263719   4.178   1.185  10.989  0.0777  0.0609  0.0246
14102TIP3   OH263720   1.297   1.889   3.518  0.4193 -0.1622  0.5047
14102TIP3    H163721   1.258   1.953   3.458  0.2646 -1.4496 -0.8280
14102TIP3    H263722   1.281   1.805   3.476  1.4950 -1.0083  1.7318
14103TIP3   OH263723   1.511   2.506   2.787 -0.1381 -0.0052  0.0772
14103TIP3    H163724   1.448   2.514   2.716 -0.7583 -0.3484  0.5798
14103TIP3    H263725   1.511   2.413   2.809 -0.6241  0.2177  1.1150
14104TIP3   OH263726   1.189   3.377  16.779  0.4475  0.0139  0.8811
14104TIP3    H163727   1.191   3.282  16.789  0.0764 -0.6388 -3.4436
14104TIP3    H263728   1.277   3.399  16.748  0.2294  0.9444  0.9125
14105TIP3   OH263729   2.031   0.991   4.326 -0.0363 -0.3160 -0.5629
14105TIP3    H163730   2.020   1.053   4.399 -0.0069 -0.5370 -0.3681
14105TIP3    H263731   2.077   1.041   4.259 -0.5146  0.0373 -0.6272
14106TIP3   OH263732   3.817   0.112  13.307 -0.2137  0.0076  0.0655
14106TIP3    H163733   3.906   0.081  13.322 -0.5099 -1.2567 -0.6644
14106TIP3    H263734   3.816   0.201  13.343  0.9804 -0.4215  1.2126
14107TIP3   OH263735   5.004   3.500   4.885 -0.5830 -0.2356 -0.1927
14107TIP3    H163736   5.025   3.430   4.824 -1.4231 -1.6895  1.0869
14107TIP3    H263737   4.939   3.461   4.944  0.0063  1.1574  1.4644
14108TIP3   OH263738   3.364   1.827  13.032 -0.0050  0.8775  0.0214
14108TIP3    H163739   3.417   1.895  13.074  2.4704 -1.1115  0.3810
14108TIP3    H263740   3.425   1.781  12.974 -1.1880 -1.8356  0.7448
14109TIP3   OH263741   5.363   3.653   4.061 -0.1373 -0.2925 -0.5946
14109TIP3    H163742   5.420   3.698   4.123  1.5431 -0.5109 -1.8869
14109TIP3    H263743   5.410   3.571   4.041 -1.5000 -1.0526 -0.8110
14110TIP3   OH263744   4.263   5.000  17.028 -0.1649 -0.4879  0.1775
14110TIP3    H163745   4.297   5.084  17.057  0.1444 -1.3412  2.4471
14110TIP3    H263746   4.303   4.987  16.942  0.4488  1.2767  0.1590
14111TIP3   OH263747   4.398   1.102   1.453 -0.6030  1.3053  0.1011
14111TIP3    H163748   4.311   1.064   1.439 -0.4254  0.3130  1.4334
14111TIP3    H263749   4.454   1.058   1.390 -0.4896 -0.4360  1.3334
14112TIP3   OH263750   4.513   0.760   0.996 -0.4532  0.0806 -0.1334
14112TIP3    H163751   4.459   0.834   1.023  0.2467  1.0915 -1.3941
14112TIP3    H263752   4.603   0.788   1.015 -0.2700 -1.3231  1.3510
14113TIP3   OH263753   2.625   5.656  16.292 -0.6646  0.4572  0.1692
14113TIP3    H163754   2.710   5.649  16.248 -0.0649  0.0064  1.3556
14113TIP3    H263755   2.610   5.750  16.301  1.2062  0.6205  2.6551
14114TIP3   OH263756   6.724   4.510   0.422  0.2948  0.7388  0.5052
14114TIP3    H163757   6.668   4.500   0.344  1.3383 -2.2352 -0.0177
14114TIP3    H263758   6.783   4.582   0.400 -0.4916  1.0440 -0.7498
14115TIP3   OH263759   4.211   6.466   3.625  0.5044 -0.1860  0.2929
14115TIP3    H163760   4.229   6.415   3.704  0.7460  0.6000  0.7538
14115TIP3    H263761   4.194   6.400   3.558 -0.0266 -0.8608  1.0705
14116TIP3   OH263762   0.269   4.311  14.635 -0.3569 -0.0331 -0.4191
14116TIP3    H163763   0.253   4.326  14.728  0.8966 -1.7980  0.1317
14116TIP3    H263764   0.182   4.303  14.597 -0.8807 -0.6646  0.8527
14117TIP3   OH263765   2.910   2.322  13.748  0.3333  0.0997  0.1727
14117TIP3    H163766   2.940   2.250  13.804 -0.7212  0.4798  1.2743
14117TIP3    H263767   2.883   2.390  13.810  0.4743  1.0980 -0.8399
14118TIP3   OH263768   5.108   5.492  11.107 -0.3205 -0.1450  0.0080
14118TIP3    H163769   5.140   5.512  11.020  0.1325 -1.1185 -0.0613
14118TIP3    H263770   5.014   5.511  11.104 -0.4545 -0.8930 -0.9229
14119TIP3   OH263771   6.516   6.180  15.069 -0.3483  0.0512 -0.1994
14119TIP3    H163772   6.451   6.132  15.018 -1.0169  0.1776  0.5151
14119TIP3    H263773   6.579   6.113  15.097 -0.3119 -0.1148 -0.6648
14120TIP3   OH263774   4.604   3.829   3.986  0.2365  0.1145  1.2268
14120TIP3    H163775   4.529   3.862   3.935  1.2263  2.7489  1.3108
14120TIP3    H263776   4.652   3.773   3.924 -0.7330 -0.0069  0.5581
14121TIP3   OH263777   5.204   5.512  14.451  0.4832 -0.2225  0.2328
14121TIP3    H163778   5.181   5.517  14.544 -0.0179  1.4177  0.0391
14121TIP3    H263779   5.126   5.541  14.405  1.1662  0.2509 -0.6535
14122TIP3   OH263780   5.428   2.646  16.929  0.4245  0.5352  0.1407
14122TIP3    H163781   5.398   2.597  16.853 -2.2975  0.6570  1.0016
14122TIP3    H263782   5.486   2.713  16.893 -0.0307  0.0135 -1.6898
14123TIP3   OH263783   2.046   6.673  16.437 -0.0468 -0.4867  0.0892
14123TIP3    H163784   2.116   6.679  16.502  0.7433  1.2568 -0.8661
14123TIP3    H263785   2.091   6.647  16.356 -0.4019  1.0146 -0.6232
14124TIP3   OH263786   0.847   6.424  14.517 -1.1207  0.2534 -0.0556
14124TIP3    H163787   0.794   6.420  14.597  0.5372 -0.3631  1.0560
14124TIP3    H263788   0.812   6.353  14.462 -3.3542  1.7026 -0.6500
14125TIP3   OH263789   4.595   2.866   3.207 -0.0458 -0.9283 -0.0238
14125TIP3    H163790   4.553   2.906   3.131  1.0783 -0.7821 -0.5800
14125TIP3    H263791   4.593   2.934   3.274 -1.3426 -1.1692  0.2078
14126TIP3   OH263792   4.922   4.920  16.069  0.0666 -0.1241  0.4296
14126TIP3    H163793   4.956   4.868  16.142  0.0552 -0.4802  0.1786
14126TIP3    H263794   4.841   4.877  16.044 -0.5222  0.6473  0.9366
14127TIP3   OH263795   6.067   6.119   2.179 -0.2878  0.5231 -0.5298
14127TIP3    H163796   6.066   6.212   2.156 -0.1965  1.3057  2.2907
14127TIP3    H263797   6.137   6.111   2.244 -1.7389 -1.0547  0.9237
14128TIP3   OH263798   3.991   2.007  16.664 -0.9376 -0.5225 -0.2300
14128TIP3    H163799   3.897   1.991  16.670 -1.1123  0.9510  3.3504
14128TIP3    H263800   4.029   1.956  16.737  0.9829 -0.5673 -1.1907
14129TIP3   OH263801   1.964   3.741   1.481  0.2029  0.3316 -0.5264
14129TIP3    H163802   1.984   3.660   1.434  0.1724 -1.0394  1.6461
14129TIP3    H263803   2.047   3.788   1.483  0.9481 -0.9331  0.4095
14130TIP3   OH263804   5.157   3.530  14.182 -0.8206  0.2382  0.8543
14130TIP3    H163805   5.208   3.584  14.122  0.1829 -0.6563  0.8602
14130TIP3    H263806   5.219   3.464  14.213 -1.3844  0.4955  2.6485
14131TIP3   OH263807   4.352   5.557  15.531  0.1117  0.1044 -0.1419
14131TIP3    H163808   4.303   5.595  15.604  0.1347  1.6893 -0.9096
14131TIP3    H263809   4.288   5.549  15.461  0.6330  0.8581 -0.7062
14132TIP3   OH263810   3.465   5.121   0.393 -0.2549  0.6898  0.2174
14132TIP3    H163811   3.381   5.103   0.351 -0.6719  1.2198  0.8168
14132TIP3    H263812   3.509   5.182   0.334  0.2846 -0.5837 -0.7652
14133TIP3   OH263813   3.627   5.863   4.128  0.8847  0.2553 -0.1133
14133TIP3    H163814   3.631   5.808   4.207  0.1647 -0.1057 -0.3200
14133TIP3    H263815   3.709   5.845   4.082  1.2863  0.4245  0.5204
14134TIP3   OH263816   1.689   6.252  16.316 -0.4133  0.0554 -0.0810
14134TIP3    H163817   1.655   6.330  16.274 -0.8431 -0.0994 -0.0309
14134TIP3    H263818   1.783   6.255  16.302 -0.2848  1.1621  0.8896
14135TIP3   OH263819   5.209   1.943  16.216  0.2758 -0.6595  0.7188
14135TIP3    H163820   5.221   1.851  16.240  0.3050 -0.3706  1.8851
14135TIP3    H263821   5.117   1.950  16.192  0.1889 -0.9159  0.9780
14136TIP3   OH263822   1.838   5.776  16.395 -0.1846  0.2259 -0.1837
14136TIP3    H163823   1.780   5.707  16.427 -0.1919 -0.4369 -1.5561
14136TIP3    H263824   1.781   5.852  16.384 -0.5524 -0.0763 -0.3829
14137TIP3   OH263825   5.361   6.060  15.104  0.2267 -0.1263  0.2459
14137TIP3    H163826   5.344   6.075  15.011 -0.2399  0.1654  0.3764
14137TIP3    H263827   5.292   6.108  15.150 -0.2562 -1.2356  0.7118
14138TIP3   OH263828   4.777   2.511  11.556 -0.4762 -0.8959  0.5299
14138TIP3    H163829   4.870   2.492  11.552 -0.3489 -0.2569  0.3856
14138TIP3    H263830   4.748   2.476  11.640  0.2435  0.4144  1.3577
14139TIP3   OH263831   1.740   0.942   4.424 -0.3443 -0.1493  0.3176
14139TIP3    H163832   1.806   0.948   4.355 -1.2381 -1.1677 -0.6755
14139TIP3    H263833   1.737   0.849   4.447 -1.8066 -0.2426 -0.0864
14140TIP3   OH263834   5.174   1.232  12.388 -0.0483  0.1369 -0.8039
14140TIP3    H163835   5.156   1.139  12.370 -1.2224  0.2430 -0.2945
14140TIP3    H263836   5.111   1.255  12.456  2.1745  0.5475  1.2444
14141TIP3   OH263837   0.222   2.166   0.167  0.2131  0.0596  0.2713
14141TIP3    H163838   0.144   2.116   0.189  1.0551 -1.6516 -0.4352
14141TIP3    H263839   0.192   2.229   0.101 -0.6998 -0.1269  0.4913
14142TIP3   OH263840   3.859   5.910  17.121  0.0037  0.2808 -0.4000
14142TIP3    H163841   3.903   5.884  17.202  0.0395  0.9991 -0.1810
14142TIP3    H263842   3.822   5.829  17.086 -0.0543 -0.0243  0.3644
14143TIP3   OH263843   2.715   1.425  14.475  0.5464  0.0986  0.2724
14143TIP3    H163844   2.673   1.505  14.443  1.5767  0.4113 -0.3474
14143TIP3    H263845   2.792   1.456  14.523 -0.0113 -0.4548  1.5861
14144TIP3   OH263846   6.035   0.177   4.436 -0.1788 -0.4335 -0.0082
14144TIP3    H163847   6.007   0.122   4.509  2.9623 -0.9714  0.9486
14144TIP3    H263848   6.093   0.121   4.385 -0.1716  0.7795 -1.3864
14145TIP3   OH263849   5.599   0.784  15.973  0.0277 -0.1211  0.0980
14145TIP3    H163850   5.540   0.799  16.047 -2.0934  1.1772 -1.7370
14145TIP3    H263851   5.576   0.697  15.941 -2.2794  1.0425 -1.6709
14146TIP3   OH263852   2.431   1.162   1.156 -0.8989  0.1073 -0.6797
14146TIP3    H163853   2.387   1.195   1.077 -0.9866  1.2284 -0.1794
14146TIP3    H263854   2.518   1.136   1.126 -0.3275  2.0600 -0.8974
14147TIP3   OH263855   6.648   4.128   1.966  0.7092 -0.0625 -0.3996
14147TIP3    H163856   6.680   4.215   1.992  0.5024 -0.2223  0.4267
14147TIP3    H263857   6.718   4.068   1.993  0.8655 -0.1520 -0.9961
14148TIP3   OH263858   3.691   6.485   3.232  0.1384  0.1574  0.9965
14148TIP3    H163859   3.680   6.535   3.151  0.4290 -0.2407  0.7075
14148TIP3    H263860   3.618   6.423   3.232  0.9726 -0.8477  0.2899
14149TIP3   OH263861   1.005   4.956   1.251  0.6006  0.3021  0.5162
14149TIP3    H163862   0.929   4.959   1.193  0.1508 -0.2835  1.0596
14149TIP3    H263863   1.001   4.869   1.291  0.1555  1.1489  2.4156
14150TIP3   OH263864   3.779   1.194   3.541  0.3377  0.4374  0.7707
14150TIP3    H163865   3.725   1.155   3.610 -0.6398  0.2555 -0.0818
14150TIP3    H263866   3.783   1.286   3.564  0.8698  0.2165  1.6209
14151TIP3   OH263867   5.922   0.168   5.181  0.4136  0.0731  0.2024
14151TIP3    H163868   5.859   0.148   5.250 -1.0157 -0.0626 -1.0965
14151TIP3    H263869   5.967   0.085   5.165 -0.7635 -0.4553 -0.4911
14152TIP3   OH263870   3.134   4.264   3.118  0.3843  0.2661  0.0997
14152TIP3    H163871   3.149   4.257   3.212 -0.2404 -0.9190  0.1322
14152TIP3    H263872   3.128   4.173   3.088  2.1761  0.5848 -1.3618
14153TIP3   OH263873   3.031   0.015  16.529 -0.0851  0.6306 -0.5511
14153TIP3    H163874   2.947  -0.021  16.501 -0.4621  0.8514  0.2491
14153TIP3    H263875   3.084   0.018  16.450 -0.8025  0.4081 -1.0487
14154TIP3   OH263876   5.318   2.535   2.278  0.0971  0.3089 -0.1313
14154TIP3    H163877   5.320   2.440   2.267 -2.0873  0.4459 -2.6308
14154TIP3    H263878   5.369   2.569   2.204 -0.3415  1.0879 -0.0884
14155TIP3   OH263879   1.575   2.348  11.965  0.3999  0.0771  0.0804
14155TIP3    H163880   1.660   2.311  11.940  0.8923  0.1829  1.5054
14155TIP3    H263881   1.511   2.286  11.928  1.0980 -0.2905 -0.5529
14156TIP3   OH263882   3.272   1.425   4.299  0.5786 -0.4451  0.6124
14156TIP3    H163883   3.283   1.369   4.376 -1.1659 -1.0227  0.4937
14156TIP3    H263884   3.343   1.489   4.305 -0.4341  0.5794  3.6154
14157TIP3   OH263885   3.572   4.105   2.736 -0.8397  0.7361  0.2752
14157TIP3    H163886   3.636   4.042   2.701 -1.8943  0.1698 -0.6913
14157TIP3    H263887   3.487   4.069   2.713 -1.5343  1.5482  1.4276
14158TIP3   OH263888   5.209   3.058  14.003 -0.0397 -0.0963 -1.0855
14158TIP3    H163889   5.145   3.081  13.936  0.1054 -0.8442 -1.4999
14158TIP3    H263890   5.253   2.981  13.968 -0.3852 -0.8892  0.1369
14159TIP3   OH263891   4.102   3.609   5.508 -0.3899  0.1570  0.2520
14159TIP3    H163892   4.127   3.522   5.539 -0.3159 -0.6376 -1.8200
14159TIP3    H263893   4.144   3.670   5.568 -0.9682 -1.2218  2.1444
14160TIP3   OH263894   2.723   5.245   1.171  0.0221 -0.1547  0.5345
14160TIP3    H163895   2.681   5.307   1.231 -0.5120 -0.6717  0.7084
14160TIP3    H263896   2.816   5.262   1.180 -0.1667  2.2170 -1.1423
14161TIP3   OH263897   2.306   0.291   4.878  0.4332  0.1105  0.0874
14161TIP3    H163898   2.216   0.288   4.843  0.2777 -0.2274  0.5160
14161TIP3    H263899   2.346   0.209   4.849  0.6027  0.2561 -0.0931
14162TIP3   OH263900   4.022   4.346  17.172 -0.1628  0.0402 -0.1699
14162TIP3    H163901   3.941   4.390  17.198  0.3719  0.9184  0.0399
14162TIP3    H263902   4.092   4.406  17.199  0.4899  0.1278 -1.9210
14163TIP3   OH263903   5.313   6.341  11.478 -0.1371  0.1060 -0.2378
14163TIP3    H163904   5.252   6.413  11.458 -0.6739 -0.1764  0.3557
14163TIP3    H263905   5.397   6.372  11.445 -0.6509  0.3810 -1.3482
14164TIP3   OH263906   2.974   2.754   2.304  0.1838 -0.0927 -0.2885
14164TIP3    H163907   2.929   2.832   2.335  2.0121  0.7432  0.4577
14164TIP3    H263908   2.951   2.686   2.367  0.4251  0.4720  0.4272
14165TIP3   OH263909   0.197   0.152  14.298 -0.1985 -0.0622 -0.2132
14165TIP3    H163910   0.155   0.101  14.228 -0.7728  1.7163 -1.2367
14165TIP3    H263911   0.288   0.160  14.270 -0.3315  0.2865 -0.5598
14166TIP3   OH263912   1.335   3.769  12.593  0.0711  0.3618  0.0970
14166TIP3    H163913   1.391   3.804  12.523  2.0416 -0.6807  1.0632
14166TIP3    H263914   1.263   3.832  12.599 -0.2520  0.4379 -2.9168
14167TIP3   OH263915   3.581   4.055  14.084 -0.6938 -0.5736 -0.1146
14167TIP3    H163916   3.604   4.070  14.175 -0.9267 -1.3414  0.0791
14167TIP3    H263917   3.662   4.071  14.035 -0.6676  0.2200  0.1771
14168TIP3   OH263918   2.986   2.862   3.255 -0.7875  0.5096  0.3217
14168TIP3    H163919   2.926   2.798   3.217 -1.7856 -0.2762  3.0401
14168TIP3    H263920   2.931   2.938   3.276 -0.0820  1.2924 -0.5579
14169TIP3   OH263921   2.342   5.407   4.879 -0.0888  0.0505 -0.1597
14169TIP3    H163922   2.370   5.434   4.966 -2.0592  1.1891  0.1781
14169TIP3    H263923   2.405   5.448   4.819  0.7540 -0.0082  0.6748
14170TIP3   OH263924   3.001   3.571   5.610 -0.0412  0.2155 -0.4419
14170TIP3    H163925   2.937   3.526   5.554 -2.1845  3.7059 -1.1894
14170TIP3    H263926   3.050   3.627   5.550 -0.0210  1.5257  0.7336
14171TIP3   OH263927   1.139   3.979   5.903 -0.2246 -0.6095  0.0587
14171TIP3    H163928   1.169   3.895   5.936  0.5225 -0.2442  0.3389
14171TIP3    H263929   1.161   3.976   5.809  0.9285 -0.2665  0.2970
14172TIP3   OH263930   0.141   4.708  14.803 -0.2382  0.2438 -0.0406
14172TIP3    H163931   0.217   4.716  14.745  1.0281 -0.0661  1.5099
14172TIP3    H263932   0.109   4.619  14.787  0.3134  0.0365 -0.0380
14173TIP3   OH263933   3.675   1.347  16.132 -0.5740 -0.0718  0.6467
14173TIP3    H163934   3.719   1.360  16.048 -1.3475  1.7436  0.4540
14173TIP3    H263935   3.618   1.271  16.119  0.0856 -0.4404 -0.1275
14174TIP3   OH263936   1.975   2.678   1.671  0.0908 -0.1643  0.0361
14174TIP3    H163937   2.036   2.605   1.661  1.3481  1.0255 -1.5707
14174TIP3    H263938   1.889   2.637   1.670  0.8027 -1.7780  0.9891
14175TIP3   OH263939   2.983   0.594   3.144 -0.4349  0.3528  0.1998
14175TIP3    H163940   2.934   0.606   3.063 -1.0443 -0.1632  0.4837
14175TIP3    H263941   2.952   0.665   3.201 -1.0822 -0.1309  0.4751
14176TIP3   OH263942   4.076   5.895   3.418 -0.0393  0.1098 -0.6742
14176TIP3    H163943   4.046   5.967   3.474  1.2758  0.9519 -1.0099
14176TIP3    H263944   4.112   5.830   3.479  0.0467  0.3643 -0.4548
14177TIP3   OH263945   2.012   0.247  13.510 -0.6374  0.0263  0.5882
14177TIP3    H163946   1.986   0.209  13.594 -1.1117 -0.3661  0.2749
14177TIP3    H263947   1.933   0.242  13.456 -0.0483 -0.7582 -0.2424
14178TIP3   OH263948   3.186   4.026   3.463 -0.5580  0.1708 -0.3743
14178TIP3    H163949   3.127   4.096   3.434  0.0778  0.1104 -1.9448
14178TIP3    H263950   3.146   3.946   3.430 -0.9057 -0.1534  0.7933
14179TIP3   OH263951   2.141   1.797  14.975  0.5072 -0.9184  0.1843
14179TIP3    H163952   2.229   1.814  15.009 -0.0707  0.0554  1.2421
14179TIP3    H263953   2.143   1.831  14.885  1.4164 -1.5869 -0.0649
14180TIP3   OH263954   6.566   3.640  14.597 -0.0306 -0.0700  0.0802
14180TIP3    H163955   6.540   3.717  14.546  2.0183 -0.3228 -1.4515
14180TIP3    H263956   6.490   3.581  14.591 -1.0254  1.1809 -0.0134
14181TIP3   OH263957   4.915   2.674  12.332 -0.0997  0.0862  0.2427
14181TIP3    H163958   4.940   2.756  12.289  0.5312 -1.1073 -1.8245
14181TIP3    H263959   4.822   2.662  12.309 -0.8112  1.1969  2.3040
14182TIP3   OH263960   4.035   1.204   2.424  0.5055  0.0769  0.3436
14182TIP3    H163961   4.107   1.265   2.440  0.6820 -0.1818  0.5366
14182TIP3    H263962   3.985   1.245   2.354 -0.0290  1.0000  1.2445
14183TIP3   OH263963   0.395   2.775   4.724  0.1526 -0.8055 -0.5196
14183TIP3    H163964   0.308   2.803   4.693  1.0326 -0.9229 -3.3836
14183TIP3    H263965   0.411   2.828   4.802 -1.4271  1.0882 -1.4001
14184TIP3   OH263966   2.802   4.868   3.095 -0.2554 -0.8160  0.1123
14184TIP3    H163967   2.869   4.877   3.162  2.4557  3.2449 -2.6588
14184TIP3    H263968   2.739   4.938   3.114 -0.4737 -0.8356 -0.5076
14185TIP3   OH263969   2.716   0.391   3.172  0.4517  0.4692 -0.2878
14185TIP3    H163970   2.668   0.327   3.224 -1.5323  0.7052 -1.7351
14185TIP3    H263971   2.714   0.471   3.224  2.1354 -0.3005  1.1007
14186TIP3   OH263972   1.484   0.403  15.056  0.2477  0.3550 -0.4571
14186TIP3    H163973   1.453   0.490  15.030 -2.1640 -0.1533  0.4470
14186TIP3    H263974   1.509   0.362  14.974 -0.0437  1.3836 -1.0884
14187TIP3   OH263975   1.703   2.343  12.836 -0.4313 -0.2158  0.3808
14187TIP3    H163976   1.723   2.299  12.919 -1.1097  1.1923  1.3259
14187TIP3    H263977   1.649   2.279  12.788  0.3674 -1.2337  0.7848
14188TIP3   OH263978   4.282   3.109   0.713 -0.2453 -0.3296  0.2385
14188TIP3    H163979   4.312   3.190   0.754  0.6840 -0.9082  0.7193
14188TIP3    H263980   4.281   3.129   0.619  0.6443  0.0415  0.2940
14189TIP3   OH263981   4.886   5.121  15.769  0.1822  0.4648 -0.0107
14189TIP3    H163982   4.956   5.127  15.834  0.5741 -1.2100 -0.2182
14189TIP3    H263983   4.924   5.154  15.688  0.1758  1.1482  0.2631
14190TIP3   OH263984   1.210   3.540   6.522 -0.2261 -0.1736  0.4574
14190TIP3    H163985   1.290   3.578   6.558  0.4247  0.5386 -1.6004
14190TIP3    H263986   1.170   3.611   6.472  0.8880 -1.9296 -3.2981
14191TIP3   OH263987   4.418   3.965   3.804 -0.2431  0.1448  0.1664
14191TIP3    H163988   4.456   3.923   3.727  1.8438 -1.0541  1.7433
14191TIP3    H263989   4.374   4.043   3.770 -0.4931 -0.9999 -2.3409
14192TIP3   OH263990   0.346   1.275  11.071 -0.1511 -0.4501 -0.5670
14192TIP3    H163991   0.369   1.235  10.987  2.2907  0.8723 -0.6368
14192TIP3    H263992   0.298   1.355  11.047  0.7795  0.0694 -0.7706
14193TIP3   OH263993   2.292   0.348   3.561 -0.2377  0.6352 -0.5127
14193TIP3    H163994   2.199   0.347   3.586 -0.8968  0.0523 -2.7588
14193TIP3    H263995   2.303   0.429   3.511  0.7437  1.1937  0.5614
14194TIP3   OH263996   3.326   0.658  14.375  0.0979  0.4771 -0.2119
14194TIP3    H163997   3.246   0.616  14.406  0.7592 -0.0443  0.8692
14194TIP3    H263998   3.372   0.683  14.455  0.1925  2.4090 -0.8146
14195TIP3   OH263999   1.066   5.228  14.744 -0.4809 -0.5847 -0.4000
14195TIP3    H164000   1.038   5.228  14.653 -0.3695 -0.6609 -0.4351
14195TIP3    H264001   1.126   5.302  14.752 -0.0879 -0.8869 -0.5179
14196TIP3   OH264002   0.886   4.593  14.877  0.3411  0.0415  0.0911
14196TIP3    H164003   0.818   4.541  14.835 -0.0187  1.3607 -1.0488
14196TIP3    H264004   0.905   4.548  14.959 -2.2851 -0.0938  0.6865
14197TIP3   OH264005   1.122   2.707   2.603  0.0632 -0.2716 -0.3901
14197TIP3    H164006   1.159   2.694   2.515 -1.4839 -0.8882 -0.9784
14197TIP3    H264007   1.199   2.721   2.658  1.2688 -2.1875 -1.4323
14198TIP3   OH264008   5.487   6.534   2.660 -0.4919  0.0247  0.5188
14198TIP3    H164009   5.562   6.482   2.689  0.3572  1.5674  1.2486
14198TIP3    H264010   5.463   6.587   2.737 -0.7146  1.3608 -0.4296
14199TIP3   OH264011   2.360   3.590  16.640  0.0284  0.7438 -0.3056
14199TIP3    H164012   2.394   3.565  16.554  0.3436 -0.4907  0.1538
14199TIP3    H264013   2.420   3.547  16.703 -0.9881  0.4933  0.5178
14200TIP3   OH264014   2.956   3.837   5.391  0.4083 -0.3395 -0.4937
14200TIP3    H164015   2.926   3.763   5.339  0.9583 -1.2570  0.4546
14200TIP3    H264016   3.051   3.832   5.388  0.5360  1.6318 -2.1927
14201TIP3   OH264017   6.148   3.433  13.071 -0.3890  0.1659  0.0708
14201TIP3    H164018   6.152   3.447  13.165  0.2490  0.8716 -0.0537
14201TIP3    H264019   6.143   3.337  13.061 -0.9455  0.1037  0.8210
14202TIP3   OH264020   2.682   2.857   0.723 -0.4235  0.0656 -0.1560
14202TIP3    H164021   2.676   2.814   0.809 -2.2856  0.1538 -0.2052
14202TIP3    H264022   2.615   2.814   0.670  0.4730  0.2484 -1.4899
14203TIP3   OH264023   0.726   5.249  13.364 -0.1071  0.2248  0.0098
14203TIP3    H164024   0.775   5.285  13.290  3.0918 -2.0322  0.8094
14203TIP3    H264025   0.660   5.192  13.324  0.2041  0.6405 -1.1245
14204TIP3   OH264026   0.593   4.282  12.667  0.7945  0.3734  0.1585
14204TIP3    H164027   0.602   4.287  12.762  1.7297  2.4362  0.0241
14204TIP3    H264028   0.508   4.323  12.649  0.2486 -0.7380  0.1308
14205TIP3   OH264029   3.322   4.233  14.179 -0.0486 -0.0448 -0.3198
14205TIP3    H164030   3.342   4.320  14.146 -2.2380 -0.2775 -2.5756
14205TIP3    H264031   3.384   4.175  14.133  0.6143  0.1739  0.2795
14206TIP3   OH264032   1.277   6.484  14.547  0.0117 -0.3152  0.3768
14206TIP3    H164033   1.229   6.404  14.571 -0.2854 -0.4569 -0.6477
14206TIP3    H264034   1.344   6.492  14.615  0.4113 -1.7492  0.2019
14207TIP3   OH264035   5.750   5.981   4.943 -0.1123  0.0871 -0.2603
14207TIP3    H164036   5.762   5.889   4.920 -0.4106 -0.1957  0.6562
14207TIP3    H264037   5.831   6.004   4.989 -0.4632 -0.0323  0.4375
14208TIP3   OH264038   0.800   1.370   2.640  0.2040  0.3746 -0.2111
14208TIP3    H164039   0.774   1.462   2.633 -0.3208  0.2838  0.4171
14208TIP3    H264040   0.720   1.325   2.670 -0.2629 -0.6574 -2.7381
14209TIP3   OH264041   3.338   0.790  12.653 -0.1693  0.0505  0.5996
14209TIP3    H164042   3.288   0.717  12.616  1.0607 -1.7600  2.2721
14209TIP3    H264043   3.341   0.855  12.583 -2.0752 -1.1156 -0.6656
14210TIP3   OH264044   1.519   3.629   2.463  0.4074  0.2975 -0.5905
14210TIP3    H164045   1.539   3.709   2.415  0.9964 -0.0867 -1.0126
14210TIP3    H264046   1.480   3.658   2.545  0.3770  1.0037 -0.8498
14211TIP3   OH264047   0.816   4.306  11.534 -0.2142 -0.1794 -0.2508
14211TIP3    H164048   0.905   4.296  11.566 -0.2918 -0.9989 -0.2694
14211TIP3    H264049   0.827   4.337  11.444  0.0735 -0.9004 -0.4719
14212TIP3   OH264050   2.677   5.328   1.990 -0.2324  0.1514  0.2310
14212TIP3    H164051   2.604   5.388   1.977 -1.0121 -0.7132  0.5398
14212TIP3    H264052   2.649   5.270   2.061 -0.2734 -1.7366 -1.2404
14213TIP3   OH264053   5.750   6.489  15.340 -0.2304 -0.2107  0.7790
14213TIP3    H164054   5.843   6.504  15.359 -0.4178  0.0361  1.5285
14213TIP3    H264055   5.721   6.427  15.407 -0.2504 -1.4893 -0.3707
14214TIP3   OH264056   5.704   2.985   4.471  0.0322 -0.2342 -0.3336
14214TIP3    H164057   5.749   2.970   4.387  1.6711 -0.5562  0.5575
14214TIP3    H264058   5.767   3.036   4.522 -0.2750 -1.3991  1.2716
14215TIP3   OH264059   6.326   0.735   4.623 -0.4135 -0.3704  0.3572
14215TIP3    H164060   6.288   0.648   4.613  0.7971 -0.9127  0.2994
14215TIP3    H264061   6.389   0.742   4.552 -2.1061  1.4787 -1.0676
14216TIP3   OH264062   5.510   4.728  11.144  0.3001 -0.0134 -0.2384
14216TIP3    H164063   5.484   4.665  11.077 -2.0003  1.5480 -0.9758
14216TIP3    H264064   5.548   4.801  11.094 -0.8427  0.8882  0.1695
14217TIP3   OH264065   2.566   2.954  16.426 -0.0174 -0.9517  0.2289
14217TIP3    H164066   2.472   2.964  16.411 -0.2616  2.8881  2.7785
14217TIP3    H264067   2.607   3.002  16.354 -0.1305 -0.7270  0.3129
14218TIP3   OH264068   1.422   6.779   0.979 -0.2103 -0.0071  0.6255
14218TIP3    H164069   1.392   6.842   1.044  0.0763  1.1444 -0.3279
14218TIP3    H264070   1.434   6.698   1.029 -0.6784  0.6463  1.8583
14219TIP3   OH264071   0.856   4.427   3.693 -0.4115 -0.3869 -1.1163
14219TIP3    H164072   0.889   4.495   3.752  0.3788 -1.5614 -0.1591
14219TIP3    H264073   0.771   4.460   3.665 -0.8322  0.2382  0.7018
14220TIP3   OH264074   2.156   0.134   4.585 -0.2926  0.4711  0.5294
14220TIP3    H164075   2.252   0.131   4.588 -0.3094 -0.0875  0.5070
14220TIP3    H264076   2.128   0.057   4.634 -0.7065 -0.5334 -1.1961
14221TIP3   OH264077   3.929   1.154   0.233 -0.8408  0.1369 -0.1818
14221TIP3    H164078   3.858   1.218   0.230  0.0131  1.2314  1.4817
14221TIP3    H264079   3.901   1.085   0.174 -3.5139  0.3074  0.7446
14222TIP3   OH264080   2.946   5.810  12.133  0.3742  0.1604 -0.1064
14222TIP3    H164081   2.889   5.833  12.060 -2.0568 -0.8397  1.3467
14222TIP3    H264082   2.939   5.715  12.140  1.9192  0.0535  0.4065
14223TIP3   OH264083   3.462   6.519  13.537 -0.2952  0.4061 -0.5450
14223TIP3    H164084   3.557   6.525  13.531 -0.1876  1.3867  1.2995
14223TIP3    H264085   3.430   6.568  13.462  0.6490  0.4685 -0.9238
14224TIP3   OH264086   1.270   0.630  10.554 -0.1479 -0.1739 -0.4980
14224TIP3    H164087   1.196   0.597  10.606 -0.2681 -1.9292 -1.7257
14224TIP3    H264088   1.346   0.617  10.610 -0.6042  0.6624  0.3556
14225TIP3   OH264089   6.134   0.088  16.557 -0.0253 -0.4151  0.4789
14225TIP3    H164090   6.209   0.104  16.499  1.8069 -3.1300  1.8571
14225TIP3    H264091   6.069   0.045  16.500  1.3626 -2.1904  0.1207
14226TIP3   OH264092   5.616   3.239  11.049 -0.1777  0.3087 -0.2596
14226TIP3    H164093   5.604   3.289  10.968 -1.1770  2.1638  0.9449
14226TIP3    H264094   5.707   3.211  11.048  0.3844  2.0649 -1.1010
14227TIP3   OH264095   0.534   4.856  11.493  0.2112  0.7767 -0.7471
14227TIP3    H164096   0.509   4.948  11.488  0.8788  1.0054 -0.1073
14227TIP3    H264097   0.531   4.825  11.402  0.8202  1.6578 -1.0844
14228TIP3   OH264098   5.834   2.546  12.811 -0.5137  0.0603 -0.5971
14228TIP3    H164099   5.900   2.566  12.745 -0.2448  1.5669  0.0740
14228TIP3    H264100   5.884   2.524  12.889 -0.7922  0.3185 -0.3397
14229TIP3   OH264101   0.002   4.242   3.980  0.3771  0.4603 -0.3937
14229TIP3    H164102  -0.079   4.279   4.016  0.3839  3.0179 -2.7060
14229TIP3    H264103  -0.025   4.201   3.898  1.2754  0.4956 -0.7164
14230TIP3   OH264104   6.391   5.838   1.216  0.1448  0.5428  0.0911
14230TIP3    H164105   6.442   5.764   1.182 -0.0915  0.6548 -0.5268
14230TIP3    H264106   6.352   5.806   1.297  0.4922  0.1694  0.1125
14231TIP3   OH264107   1.958   1.406  12.169 -0.5734  0.1273 -0.2659
14231TIP3    H164108   1.872   1.448  12.178 -0.2694  0.4654  1.4988
14231TIP3    H264109   1.969   1.357  12.250  0.8448 -0.0208 -0.5271
14232TIP3   OH264110   5.871   0.661   4.337 -0.0684  0.1406 -0.0719
14232TIP3    H164111   5.877   0.570   4.366 -0.8851  0.8002  2.3899
14232TIP3    H264112   5.778   0.682   4.342  0.2408  1.4698  0.6887
14233TIP3   OH264113   0.920   0.408   5.371  0.1630  0.0838 -0.0238
14233TIP3    H164114   0.965   0.345   5.315 -0.1337  0.8580 -1.1565
14233TIP3    H264115   0.984   0.478   5.385  0.3142 -0.2112  0.8044
14234TIP3   OH264116   1.327   2.079   4.507  0.5093 -0.4202 -0.4400
14234TIP3    H164117   1.301   2.119   4.590  1.7368 -0.6875  0.0892
14234TIP3    H264118   1.342   2.154   4.449 -1.1114 -0.2445 -0.7026
14235TIP3   OH264119   1.773   6.146  16.742  0.2118  0.0429  0.0669
14235TIP3    H164120   1.707   6.150  16.672  1.1333  1.1213 -0.7718
14235TIP3    H264121   1.781   6.053  16.762  1.4886 -0.5706 -2.8117
14236TIP3   OH264122   6.154   1.106  12.654  0.1676  0.2650 -0.2784
14236TIP3    H164123   6.169   1.020  12.692 -0.3200  0.6948  0.9244
14236TIP3    H264124   6.139   1.163  12.729 -2.2164  0.8773 -1.1550
14237TIP3   OH264125   3.005   2.684  14.363 -0.3285  0.1876  0.1148
14237TIP3    H164126   3.076   2.746  14.345  2.1476 -1.6286  2.7184
14237TIP3    H264127   2.992   2.689  14.458 -2.7425 -0.5998 -0.1002
14238TIP3   OH264128   3.512   1.224   0.080 -0.2402  0.3976  0.6682
14238TIP3    H164129   3.558   1.165   0.021  0.8681  2.3540 -0.5344
14238TIP3    H264130   3.436   1.174   0.109  0.4441 -1.4652 -0.5518
14239TIP3   OH264131   5.747   5.447   3.281 -0.0907  0.1968  0.2892
14239TIP3    H164132   5.694   5.389   3.334 -0.9218 -0.5185 -1.2456
14239TIP3    H264133   5.746   5.531   3.328  1.1773 -0.9756  2.5542
14240TIP3   OH264134   5.915   2.378   5.165  0.0671 -0.4626 -0.6098
14240TIP3    H164135   5.877   2.293   5.184  3.3771 -1.7269  1.1338
14240TIP3    H264136   5.987   2.360   5.105 -1.1505  1.6490 -2.9053
14241TIP3   OH264137   5.676   2.595   6.082 -0.1429 -0.3859  0.6469
14241TIP3    H164138   5.704   2.604   6.173 -1.1858 -1.9275  1.1735
14241TIP3    H264139   5.701   2.505   6.058 -1.6719 -0.7017  0.1108
14242TIP3   OH264140   3.002   0.905   3.052  0.2037 -0.0751  0.2908
14242TIP3    H164141   2.945   0.863   3.117 -2.3972 -2.0739 -2.9504
14242TIP3    H264142   2.995   0.999   3.071 -3.5246 -0.2978  0.6926
14243TIP3   OH264143   0.982   1.403  11.481  0.1832  0.2154  0.5754
14243TIP3    H164144   1.019   1.330  11.431  1.1410  0.3730  1.0148
14243TIP3    H264145   0.911   1.436  11.427  0.7283 -0.0785 -0.3474
14244TIP3   OH264146   0.286   5.914  11.617 -0.1482  0.6134  0.4050
14244TIP3    H164147   0.220   5.857  11.658  0.2070  1.0084  1.5631
14244TIP3    H264148   0.245   6.001  11.617  0.0216  0.6932  0.2734
14245TIP3   OH264149   3.028   6.634   2.849 -0.3100 -0.2722  0.2217
14245TIP3    H164150   3.049   6.571   2.918  0.4459 -1.0311 -0.6675
14245TIP3    H264151   2.946   6.674   2.877  0.1496 -0.2959  1.7300
14246TIP3   OH264152   4.630   2.167  13.187  0.5170 -0.2738  0.8995
14246TIP3    H164153   4.712   2.124  13.212  1.6690  2.0176  1.3576
14246TIP3    H264154   4.644   2.193  13.096 -0.9445 -2.4635 -0.0357
14247TIP3   OH264155   1.844   4.421   1.654  0.3708 -0.1161  0.1865
14247TIP3    H164156   1.772   4.373   1.613 -1.2042  0.6373  1.9384
14247TIP3    H264157   1.829   4.512   1.628  1.0366 -0.0269  0.1015
14248TIP3   OH264158   3.540   6.512   1.521  0.1705 -0.0695  0.6627
14248TIP3    H164159   3.499   6.591   1.486  2.1066 -0.1055 -2.0797
14248TIP3    H264160   3.480   6.441   1.496  0.0480  0.2296  0.0849
14249TIP3   OH264161   3.120   2.591   3.715  0.3648  0.2017  0.1641
14249TIP3    H164162   3.142   2.582   3.622  0.7385  0.8674  0.1825
14249TIP3    H264163   3.203   2.610   3.758  0.3378 -0.9615  0.7738
14250TIP3   OH264164   5.960   0.161  13.864  0.1881 -0.0350 -0.3763
14250TIP3    H164165   6.055   0.172  13.854  0.2657 -0.0475  0.3268
14250TIP3    H264166   5.928   0.249  13.881 -0.3149  0.4883 -3.4365
14251TIP3   OH264167   0.743   1.083  14.295 -0.5724  0.3791  1.2058
14251TIP3    H164168   0.693   1.056  14.218 -1.9780  1.6697  1.6146
14251TIP3    H264169   0.806   1.013  14.309  0.2406  0.4353 -1.5618
14252TIP3   OH264170   4.699   1.272  15.873  0.0037  0.1855  0.1324
14252TIP3    H164171   4.779   1.221  15.887  0.0334  0.3669  0.6125
14252TIP3    H264172   4.641   1.212  15.825  0.3669  0.0008 -0.0780
14253TIP3   OH264173   4.326   6.004   5.047  0.2395  0.5483  0.2257
14253TIP3    H164174   4.282   5.920   5.037  1.2225  0.2252 -1.9186
14253TIP3    H264175   4.387   5.991   5.120 -1.6115  0.3529  1.8125
14254TIP3   OH264176   5.087   3.951  15.902  0.2184 -0.6406 -0.2406
14254TIP3    H164177   5.118   3.997  15.824  0.1335 -0.3249 -0.0870
14254TIP3    H264178   5.082   4.018  15.970  0.5553 -0.9707  0.1135
14255TIP3   OH264179   2.190   4.277   1.178  0.3010 -0.1868  0.2756
14255TIP3    H164180   2.220   4.288   1.088 -2.3927  0.7499 -0.6131
14255TIP3    H264181   2.246   4.208   1.214  1.5533 -0.4894 -2.0420
14256TIP3   OH264182   0.566   4.354   1.881 -0.0375 -0.3070  0.6102
14256TIP3    H164183   0.571   4.371   1.975 -0.7026 -1.1773  0.8134
14256TIP3    H264184   0.475   4.328   1.865 -0.3738  1.3823 -0.5603
14257TIP3   OH264185   1.362   2.718   0.928 -0.2417 -0.8280  0.0420
14257TIP3    H164186   1.432   2.766   0.972  1.5623 -1.1129 -2.2631
14257TIP3    H264187   1.365   2.749   0.837 -1.8936 -2.1995 -0.5558
14258TIP3   OH264188   2.854   4.905  10.727 -0.1259  0.2623  0.2431
14258TIP3    H164189   2.857   5.000  10.713 -0.3455  0.1033 -0.9069
14258TIP3    H264190   2.841   4.868  10.640  0.5943 -0.8639  0.5978
14259TIP3   OH264191   5.140   0.356   2.549 -0.6605  0.3921 -0.1205
14259TIP3    H164192   5.090   0.399   2.619 -1.1483  1.3036 -1.0157
14259TIP3    H264193   5.073   0.327   2.487 -0.3171 -1.3929  0.2853
14260TIP3   OH264194   1.633   6.613  14.320 -0.1543 -0.2342 -0.1946
14260TIP3    H164195   1.685   6.586  14.395  0.5455 -0.7588 -0.8546
14260TIP3    H264196   1.606   6.531  14.278 -0.5554  0.0519 -0.5049
14261TIP3   OH264197   0.939   3.657  15.805  0.1962 -0.5581 -0.0099
14261TIP3    H164198   0.871   3.690  15.865  0.4575 -0.7036  0.3723
14261TIP3    H264199   1.020   3.698  15.836  0.3893 -0.9113 -0.0432
14262TIP3   OH264200   3.083   0.624   2.871 -0.1113 -0.1649 -0.3550
14262TIP3    H164201   3.122   0.707   2.899  1.7033 -0.9568 -0.4017
14262TIP3    H264202   2.989   0.638   2.880  0.1253  1.9806 -0.5974
14263TIP3   OH264203   5.035   2.351  15.844 -0.0647 -0.6572  0.0324
14263TIP3    H164204   5.006   2.324  15.757  2.6268 -1.6644 -0.6746
14263TIP3    H264205   5.054   2.269  15.889 -1.6236 -0.1475  1.6845
14264TIP3   OH264206   0.744   4.551  15.306  0.3169  0.4792  0.0250
14264TIP3    H164207   0.710   4.462  15.313  2.1863 -0.1649  1.8902
14264TIP3    H264208   0.686   4.603  15.362 -1.0744  0.5962 -1.4502
14265TIP3   OH264209   2.840   0.909   1.882  0.3441  0.2341 -0.3936
14265TIP3    H164210   2.806   0.924   1.970  0.2699 -0.7216 -0.2574
14265TIP3    H264211   2.827   0.993   1.838 -3.1332 -0.2619 -0.6442
14266TIP3   OH264212   0.106   2.646  16.588  0.1424  0.4290  0.2018
14266TIP3    H164213   0.191   2.684  16.566 -0.2627  1.2352 -0.0387
14266TIP3    H264214   0.118   2.608  16.675  1.3290 -1.3599 -0.6892
14267TIP3   OH264215   1.317   3.289  15.823 -0.0368 -0.5126  0.0966
14267TIP3    H164216   1.407   3.275  15.851  0.1670 -1.8593 -1.0816
14267TIP3    H264217   1.269   3.308  15.903  1.3816  0.8171  0.6811
14268TIP3   OH264218   2.786   0.321  15.666  0.3002 -0.3711 -0.0328
14268TIP3    H164219   2.733   0.318  15.587 -0.1162  0.2381  0.2114
14268TIP3    H264220   2.814   0.413  15.672 -0.7718 -0.0985  1.2268
14269TIP3   OH264221   6.540   6.548   4.611  0.1404 -0.8097  0.5084
14269TIP3    H164222   6.524   6.641   4.599 -1.3087 -1.3256 -2.3176
14269TIP3    H264223   6.627   6.534   4.573 -0.4417 -0.8693 -0.8604
14270TIP3   OH264224   2.198   6.068  11.490 -0.8758 -0.5852  0.4176
14270TIP3    H164225   2.266   6.003  11.477  0.6964  1.0510  0.0803
14270TIP3    H264226   2.167   6.053  11.579 -0.0668 -1.3468  0.5839
14271TIP3   OH264227   3.607   4.653   0.062  0.0996  0.2891  0.2921
14271TIP3    H164228   3.579   4.596  -0.010  0.2727  0.8732 -0.2443
14271TIP3    H264229   3.608   4.596   0.139 -0.2048 -0.3130 -0.1449
14272TIP3   OH264230   6.163   1.316  16.834 -0.1154  0.1219 -0.3834
14272TIP3    H164231   6.159   1.362  16.918 -3.1555 -0.2160 -0.1979
14272TIP3    H264232   6.207   1.377  16.775 -0.4429  1.5811  0.8072
14273TIP3   OH264233   3.222   1.967   5.636  0.3194  0.1544  0.4182
14273TIP3    H164234   3.275   1.897   5.598 -0.2714  0.3915 -0.8894
14273TIP3    H264235   3.270   2.047   5.618  0.8288  0.1403  1.6208
14274TIP3   OH264236   0.548   2.651  16.196 -0.5499 -0.2106  0.0161
14274TIP3    H164237   0.637   2.638  16.230 -0.9933 -3.0642  0.3138
14274TIP3    H264238   0.560   2.664  16.102  0.2184  0.0433  0.1389
14275TIP3   OH264239   1.009   5.927  14.598  0.0006 -0.2707 -0.5333
14275TIP3    H164240   0.992   5.983  14.522  0.2359 -0.5113 -0.7657
14275TIP3    H264241   0.957   5.966  14.668 -1.3505 -0.8706 -1.1648
14276TIP3   OH264242   0.877   3.635  16.926  0.2422 -1.1845 -0.7903
14276TIP3    H164243   0.867   3.673  16.839 -1.2012 -1.2144 -0.6691
14276TIP3    H264244   0.851   3.544  16.916  0.1348 -1.2065 -0.3606
14277TIP3   OH264245   4.308   0.535   4.332  0.7647  0.1928 -0.9353
14277TIP3    H164246   4.328   0.471   4.263 -0.7488  0.4280 -1.6297
14277TIP3    H264247   4.218   0.563   4.314  0.8790  1.4247  0.2289
14278TIP3   OH264248   5.325   0.854   5.045  0.1327  0.1277  0.7120
14278TIP3    H164249   5.253   0.851   5.107  0.9583  1.2619  1.7666
14278TIP3    H264250   5.325   0.943   5.011 -0.0624 -0.3708 -0.6336
14279TIP3   OH264251   2.183   1.995  14.311 -0.3568 -0.3097 -0.0622
14279TIP3    H164252   2.256   2.055  14.326 -0.0796 -0.4829 -0.6961
14279TIP3    H264253   2.191   1.929  14.380 -0.6357  0.3510  0.6127
14280TIP3   OH264254   5.089   3.060  16.130 -0.2837 -0.6447  0.1362
14280TIP3    H164255   5.027   3.111  16.184 -0.3625 -0.6109  0.0142
14280TIP3    H264256   5.065   2.969  16.146 -0.6280 -0.6182 -0.2214
14281TIP3   OH264257   4.368   1.140   0.680 -0.1361 -0.4707  0.9858
14281TIP3    H164258   4.408   1.055   0.700 -0.1279 -0.6769  0.1126
14281TIP3    H264259   4.285   1.140   0.728 -0.1791 -1.0092  0.9129
14282TIP3   OH264260   3.775   3.433   1.179 -0.3098  0.0205  0.4855
14282TIP3    H164261   3.715   3.399   1.112 -1.8950  1.5870  1.0257
14282TIP3    H264262   3.729   3.419   1.262  0.6824  0.0498  1.0577
14283TIP3   OH264263   6.441   2.219  14.760  0.6778  0.2775  0.1392
14283TIP3    H164264   6.530   2.251  14.773  1.2692 -0.5096 -1.6290
14283TIP3    H264265   6.419   2.245  14.670 -0.8211  0.3252  0.4892
14284TIP3   OH264266   4.665   0.915  16.586 -0.3321 -0.2684  0.3555
14284TIP3    H164267   4.647   0.897  16.678  1.2976  0.7995  0.9221
14284TIP3    H264268   4.653   1.009  16.576 -0.0931 -0.3073 -0.4189
14285TIP3   OH264269   4.408   2.728  14.997  0.7397  0.5303  0.2964
14285TIP3    H164270   4.407   2.704  15.090  2.5685 -0.4234  0.1198
14285TIP3    H264271   4.316   2.725  14.970  0.3474 -0.8847  1.6664
14286TIP3   OH264272   1.716   3.577  15.555  0.2938 -0.4465  0.9671
14286TIP3    H164273   1.752   3.544  15.637  0.1153 -1.4850  0.6536
14286TIP3    H264274   1.731   3.505  15.493  0.0446  0.1523  0.2029
14287TIP3   OH264275   2.127   0.580  16.584 -0.3301  0.6375 -0.0486
14287TIP3    H164276   2.152   0.650  16.644  0.0769 -0.5223  1.1837
14287TIP3    H264277   2.196   0.579  16.518  0.1058  0.8566  0.3929
14288TIP3   OH264278   3.672   2.156   2.255 -0.7503  0.1256 -0.1337
14288TIP3    H164279   3.648   2.066   2.279 -1.2260  0.2565 -0.1236
14288TIP3    H264280   3.756   2.170   2.298 -0.0024 -0.7843 -1.2214
14289TIP3   OH264281   3.096   4.080   1.057  0.5054  0.0990  0.3750
14289TIP3    H164282   3.144   4.147   1.008  1.3996 -0.5472  0.3384
14289TIP3    H264283   3.147   4.000   1.044 -1.1704 -0.8718 -0.5679
14290TIP3   OH264284   1.200   5.976  17.138  0.0980 -0.2707 -0.2305
14290TIP3    H164285   1.215   6.060  17.094 -0.3142  0.6184  1.2735
14290TIP3    H264286   1.282   5.957  17.183  0.0261 -0.4252 -0.1626
14291TIP3   OH264287   5.088   3.836   3.341  0.0385  0.1154 -0.7532
14291TIP3    H164288   5.059   3.756   3.385 -1.0053  1.2604  0.7775
14291TIP3    H264289   5.016   3.859   3.282  0.1079  0.1927 -0.8080
14292TIP3   OH264290   0.056   2.481   2.694 -0.6964 -0.2380  0.2929
14292TIP3    H164291   0.116   2.465   2.621 -0.4566  0.3438  0.3510
14292TIP3    H264292   0.009   2.561   2.669  0.5133  0.8810  1.4575
14293TIP3   OH264293   3.257   6.062   6.134 -0.6894 -0.1365 -0.0450
14293TIP3    H164294   3.256   6.157   6.149  2.0336  0.0198 -0.3481
14293TIP3    H264295   3.264   6.024   6.222 -0.3214  0.0220 -0.0048
14294TIP3   OH264296   5.984   2.864  12.764  0.0110  0.1105 -0.0067
14294TIP3    H164297   6.033   2.946  12.754 -0.3511  0.4889  1.1673
14294TIP3    H264298   6.011   2.811  12.689  2.4523  0.1855  0.7054
14295TIP3   OH264299   4.889   4.838  16.888  0.2210 -0.1215 -0.2347
14295TIP3    H164300   4.879   4.769  16.954 -0.5711 -0.3272 -0.5609
14295TIP3    H264301   4.857   4.799  16.807  0.0390  0.5287 -0.4877
14296TIP3   OH264302   5.790   3.724  14.560  0.1814  0.4086 -0.4493
14296TIP3    H164303   5.842   3.741  14.638 -2.3254  0.0304  1.4464
14296TIP3    H264304   5.780   3.810  14.518 -0.6855  1.1795  1.2228
14297TIP3   OH264305   2.683   2.129   4.661  0.7561 -0.1629 -0.6680
14297TIP3    H164306   2.721   2.055   4.614  2.3577 -0.4585  0.9682
14297TIP3    H264307   2.634   2.177   4.595  2.3661 -0.8964 -2.4877
14298TIP3   OH264308   0.003   1.704  13.154  0.2065 -1.3296 -0.1235
14298TIP3    H164309  -0.069   1.766  13.139  0.9955  0.1779  1.8783
14298TIP3    H264310   0.022   1.669  13.067 -0.3971  1.1469 -1.3663
14299TIP3   OH264311   3.897   4.605  12.567 -0.4879  0.3383 -0.4194
14299TIP3    H164312   3.936   4.566  12.645  0.3041  2.0224  0.0805
14299TIP3    H264313   3.953   4.575  12.495 -0.6220 -0.4152 -0.2140
14300TIP3   OH264314   6.558   1.021  15.088  0.6429 -0.5637  0.5920
14300TIP3    H164315   6.588   1.106  15.120  0.2991 -0.6589  1.1899
14300TIP3    H264316   6.463   1.031  15.080  0.6917 -0.6447 -0.0935
14301TIP3   OH264317   4.652   2.012  15.975 -0.2631 -0.3387  0.3732
14301TIP3    H164318   4.588   2.077  15.948 -0.3600 -0.4699  0.2894
14301TIP3    H264319   4.659   1.952  15.901  0.3413 -0.0331  0.1780
14302TIP3   OH264320   6.068   3.328   6.223 -0.6141  0.6056  0.0206
14302TIP3    H164321   6.009   3.289   6.158  0.8434 -0.5044 -0.7003
14302TIP3    H264322   6.059   3.272   6.300  0.5343 -0.4733 -0.5871
14303TIP3   OH264323   2.601   3.362  12.099 -0.1648  0.1550  0.3556
14303TIP3    H164324   2.666   3.318  12.045 -0.9785 -0.5721 -0.0451
14303TIP3    H264325   2.642   3.447  12.120  2.0102 -1.2577  2.2921
14304TIP3   OH264326   1.823   3.956  16.786 -0.2848 -0.1156 -0.6723
14304TIP3    H164327   1.853   3.868  16.762 -0.4235  0.1094 -1.7578
14304TIP3    H264328   1.787   3.992  16.704 -1.8609  0.2973  0.1576
14305TIP3   OH264329   2.147   2.524  17.216 -0.6629 -0.1520 -0.1309
14305TIP3    H164330   2.170   2.507  17.124  0.3358  3.1177 -0.6043
14305TIP3    H264331   2.230   2.515  17.263 -1.2777 -2.3776  0.6158
14306TIP3   OH264332   2.666   6.265   1.874 -0.1676 -0.0055  0.0819
14306TIP3    H164333   2.676   6.174   1.901  1.4425 -0.3714 -1.5799
14306TIP3    H264334   2.585   6.293   1.917 -1.4701 -2.6225 -0.4050
14307TIP3   OH264335   4.395   5.730   6.025 -0.0538  0.0844  0.5142
14307TIP3    H164336   4.481   5.707   6.058  0.1341  1.3841  0.9903
14307TIP3    H264337   4.405   5.818   5.990 -0.1863 -1.2583 -3.3359
14308TIP3   OH264338   1.716   3.109  10.692  0.1969 -0.2437 -0.5148
14308TIP3    H164339   1.680   3.030  10.733  0.4473  0.4377  1.0811
14308TIP3    H264340   1.800   3.081  10.656  0.2564 -0.7268 -0.0174
14309TIP3   OH264341   3.019   6.078  16.301 -0.2897  0.3903  0.7124
14309TIP3    H164342   3.058   6.160  16.271  0.1855  0.0711  0.4372
14309TIP3    H264343   3.089   6.014  16.292 -1.0712 -0.3424 -0.4723
14310TIP3   OH264344   0.819   3.581  17.220  0.4857  0.3237 -0.2974
14310TIP3    H164345   0.844   3.610  17.308  0.2836 -0.2836 -0.0333
14310TIP3    H264346   0.883   3.623  17.162 -0.6416  2.4337 -0.1040
14311TIP3   OH264347   1.174   0.770   5.909 -0.0418  0.6692 -0.6334
14311TIP3    H164348   1.210   0.686   5.881  1.7578  1.3785 -0.6460
14311TIP3    H264349   1.221   0.790   5.990 -2.2804  0.5184  0.7717
14312TIP3   OH264350   0.094   1.763   5.936 -0.4964 -0.4675 -0.3328
14312TIP3    H164351   0.113   1.745   5.844 -0.8914 -0.4106 -0.4298
14312TIP3    H264352   0.112   1.857   5.945 -2.4999  0.0312 -0.9078
14313TIP3   OH264353   6.332   4.357   1.262 -0.4602  0.3184  0.8150
14313TIP3    H164354   6.269   4.406   1.209  0.5353 -0.1940 -0.8967
14313TIP3    H264355   6.377   4.425   1.313  0.7247  1.2462 -1.3342
14314TIP3   OH264356   3.637   1.642  16.059  0.1260  0.1201 -0.8551
14314TIP3    H164357   3.635   1.555  16.098 -1.1868 -0.9496 -3.0757
14314TIP3    H264358   3.674   1.628  15.971  0.1926  1.8548 -1.1434
14315TIP3   OH264359   0.135   2.715  11.348  0.3562  0.4260  0.1728
14315TIP3    H164360   0.144   2.628  11.308 -0.6788  0.1980  0.4018
14315TIP3    H264361   0.057   2.753  11.306  0.6617  1.1516  0.2439
14316TIP3   OH264362   6.663   3.480  11.828  0.1439 -0.1798 -0.8593
14316TIP3    H164363   6.662   3.391  11.863  0.9951  0.0874 -0.1229
14316TIP3    H264364   6.740   3.483  11.772  1.9386  0.9270  1.4779
14317TIP3   OH264365   4.613   1.120   1.976  0.1345 -0.2251  0.7005
14317TIP3    H164366   4.556   1.043   1.982  0.6084 -0.5950  0.4501
14317TIP3    H264367   4.602   1.164   2.061  1.0480 -1.4091  1.4566
14318TIP3   OH264368   3.859   6.547   3.635 -0.2026 -0.3250 -0.0091
14318TIP3    H164369   3.903   6.500   3.706 -0.1123 -0.1231  0.0692
14318TIP3    H264370   3.930   6.593   3.590 -0.4482  0.7738  0.7008
14319TIP3   OH264371   4.277   2.162   1.322  0.4305  0.8781 -0.0010
14319TIP3    H164372   4.359   2.174   1.369  1.3645  1.0852 -1.6070
14319TIP3    H264373   4.300   2.108   1.247 -1.3607 -0.9725  0.6772
14320TIP3   OH264374   5.851   2.383   1.172 -0.2308  0.1950  0.3237
14320TIP3    H164375   5.884   2.454   1.117  1.4387 -0.6043  0.2470
14320TIP3    H264376   5.914   2.378   1.244 -1.3965  0.0411  1.3512
14321TIP3   OH264377   4.913   3.444  13.880 -0.2175  0.1188 -0.1424
14321TIP3    H164378   4.915   3.519  13.939  1.2323  1.1148 -1.3667
14321TIP3    H264379   5.002   3.438  13.846 -0.7474 -1.0311 -1.4400
14322TIP3   OH264380   6.076   1.914  15.958 -0.1155 -0.1523 -0.1952
14322TIP3    H164381   6.095   1.828  15.995  0.6567 -0.8694 -2.1357
14322TIP3    H264382   6.154   1.967  15.979 -0.8274  0.2893  1.4879
14323TIP3   OH264383   3.686   1.925   4.253 -0.1379  0.2626  0.4414
14323TIP3    H164384   3.719   1.921   4.163  0.0248 -1.2317  0.5510
14323TIP3    H264385   3.596   1.892   4.248 -0.1817  0.3167  0.8057
14324TIP3   OH264386   3.658   4.163  10.713  0.7588 -0.2823 -0.4482
14324TIP3    H164387   3.719   4.112  10.659  2.1702 -0.7715  1.5370
14324TIP3    H264388   3.713   4.227  10.758 -0.4043  0.2190  0.2931
14325TIP3   OH264389   5.084   0.510  14.002  0.4746 -0.1799 -0.1159
14325TIP3    H164390   5.056   0.585  13.949  1.3234  1.6236  1.8671
14325TIP3    H264391   5.006   0.485  14.051  0.6117  0.5580  0.4979
14326TIP3   OH264392   4.688   1.973   5.453 -0.1890  0.4301 -0.3922
14326TIP3    H164393   4.718   1.991   5.364  2.2089 -1.3595 -0.0236
14326TIP3    H264394   4.648   2.056   5.481  2.1852  2.2185 -1.8744
14327TIP3   OH264395   4.591   3.469  11.900  0.2742  0.8083 -0.0968
14327TIP3    H164396   4.590   3.503  11.811  0.1331 -1.2210 -0.9228
14327TIP3    H264397   4.633   3.384  11.893  1.4073  1.1123  2.0149
14328TIP3   OH264398   5.130   3.379  12.092  0.1544  0.0981  1.2187
14328TIP3    H164399   5.178   3.372  12.010 -0.2541  2.9324  0.6313
14328TIP3    H264400   5.184   3.332  12.156  1.5103 -0.4312 -0.2619
14329TIP3   OH264401   6.611   5.012  13.342  0.2872  0.4673  0.4709
14329TIP3    H164402   6.685   5.073  13.338  0.9972 -0.3968 -2.2209
14329TIP3    H264403   6.644   4.933  13.299 -1.4736 -0.8253  1.3737
14330TIP3   OH264404   0.824   4.003   2.327  0.0358 -0.0559  0.5472
14330TIP3    H164405   0.770   4.030   2.253 -1.2803 -1.7782  0.8167
14330TIP3    H264406   0.914   4.006   2.294 -0.4073  0.5795 -0.6586
14331TIP3   OH264407   4.912   1.522   0.341 -0.4716  0.2611 -0.2922
14331TIP3    H164408   4.970   1.551   0.411 -1.4135  1.0464  0.1679
14331TIP3    H264409   4.955   1.552   0.261  1.0079 -1.3041 -0.1556
14332TIP3   OH264410   1.440   5.406   4.351  0.9809  0.5802  0.0949
14332TIP3    H164411   1.511   5.372   4.297 -0.8085 -0.3699 -1.8452
14332TIP3    H264412   1.434   5.498   4.328  1.7687  0.7391  0.5110
14333TIP3   OH264413   3.930   3.145  13.238 -0.1880  0.6773 -0.6723
14333TIP3    H164414   3.988   3.071  13.256  0.9054  1.1924 -1.9362
14333TIP3    H264415   3.881   3.158  13.320  0.8611 -0.3108  0.1393
14334TIP3   OH264416   1.487   0.545  16.153  0.2366  0.2198 -0.2631
14334TIP3    H164417   1.545   0.584  16.087  0.5725  0.3514  0.1055
14334TIP3    H264418   1.428   0.489  16.102  0.3534  0.4822 -0.6991
14335TIP3   OH264419   6.025   3.157  10.788  0.2285  0.8706 -0.0976
14335TIP3    H164420   5.955   3.104  10.750  1.2846  0.7131 -1.9364
14335TIP3    H264421   6.091   3.163  10.719  2.7816 -0.3570  2.0458
14336TIP3   OH264422   0.452   5.415  11.429  0.2726  0.5022  0.2668
14336TIP3    H164423   0.437   5.392  11.337  2.2059 -0.0695  0.0498
14336TIP3    H264424   0.494   5.501  11.425  0.6849  0.3186  0.5824
14337TIP3   OH264425   6.112   1.252   3.073  0.2034  0.5072 -0.2503
14337TIP3    H164426   6.097   1.321   3.009 -0.8705  0.7970  0.2866
14337TIP3    H264427   6.142   1.298   3.151  0.8387  0.2255 -0.3274
14338TIP3   OH264428   2.729   3.602  11.794  0.2710  0.0239 -0.5827
14338TIP3    H164429   2.696   3.529  11.742 -0.4365  0.8612 -1.3462
14338TIP3    H264430   2.814   3.572  11.826  0.4057 -0.7914 -1.6389
14339TIP3   OH264431   5.939   0.247  13.351  0.5034 -0.0288  0.6185
14339TIP3    H164432   5.968   0.158  13.371 -0.1923 -1.1600 -2.8487
14339TIP3    H264433   5.850   0.237  13.320  0.5339  1.8447 -0.1876
14340TIP3   OH264434   2.474   6.392   1.326  0.1906 -0.1223  0.3286
14340TIP3    H164435   2.440   6.399   1.415 -1.2979 -0.4703 -0.1732
14340TIP3    H264436   2.558   6.346   1.336 -0.2217 -0.6769  1.5010
14341TIP3   OH264437   4.338   2.934   1.486 -0.4762  0.6107 -0.1253
14341TIP3    H164438   4.430   2.936   1.512 -0.6173  1.6689  0.3341
14341TIP3    H264439   4.339   2.900   1.397  0.2536 -0.5311  0.2978
14342TIP3   OH264440   2.054   3.293   0.644 -0.4266  0.2696 -0.1016
14342TIP3    H164441   2.083   3.372   0.598  1.8463  0.2005  1.0628
14342TIP3    H264442   2.121   3.228   0.623 -2.8224 -1.7755 -1.9301
14343TIP3   OH264443   4.197   6.689   3.032  0.3593 -0.1232 -0.4861
14343TIP3    H164444   4.127   6.624   3.022 -0.5276  0.6598  0.4289
14343TIP3    H264445   4.174   6.759   2.972 -0.3823  0.7338  0.7602
14344TIP3   OH264446   3.390   6.198   3.450 -0.2967 -1.1060 -0.0388
14344TIP3    H164447   3.312   6.173   3.400  0.4625 -0.2813 -1.6897
14344TIP3    H264448   3.369   6.285   3.485  0.8021  0.3049 -2.6767
14345TIP3   OH264449   4.370   4.384  16.803  0.4271  0.8250 -0.2821
14345TIP3    H164450   4.378   4.451  16.735  2.6025  2.3924  1.3522
14345TIP3    H264451   4.440   4.404  16.865 -0.2786 -1.6326  1.5003
14346TIP3   OH264452   3.369   0.662   4.371 -0.1001 -0.4975  0.4211
14346TIP3    H164453   3.464   0.673   4.365  0.0739 -1.8963  0.2589
14346TIP3    H264454   3.337   0.745   4.407  0.9721  0.6595 -1.1870
14347TIP3   OH264455   0.247   0.616   6.056  0.6801  0.3257  0.0432
14347TIP3    H164456   0.198   0.537   6.034  2.6383 -0.0312 -3.8185
14347TIP3    H264457   0.318   0.585   6.112  0.3399 -0.2818  0.1506
14348TIP3   OH264458   0.948   1.687  15.369  0.2928 -0.2689 -0.6310
14348TIP3    H164459   0.988   1.771  15.348  2.8855 -0.6509  1.9831
14348TIP3    H264460   1.013   1.622  15.342  0.1272 -1.1474  0.9555
14349TIP3   OH264461   4.175   1.452   4.745  0.1785 -0.4694  0.9971
14349TIP3    H164462   4.105   1.487   4.691  1.0618 -0.0948  0.0556
14349TIP3    H264463   4.171   1.357   4.732  0.5935 -0.3580 -0.0222
14350TIP3   OH264464   4.700   3.879   3.026  0.4377 -1.4364 -0.7494
14350TIP3    H164465   4.633   3.859   3.092  0.8352 -0.3775  0.0049
14350TIP3    H264466   4.664   3.954   2.978  0.8189 -1.2353 -0.7238
14351TIP3   OH264467   6.676   3.338  12.883 -0.0508  0.0303 -0.3995
14351TIP3    H164468   6.760   3.292  12.879 -0.3749 -0.6513  0.2644
14351TIP3    H264469   6.697   3.425  12.915  0.2048 -0.7428  1.6843
14352TIP3   OH264470   1.006   1.445  16.738  0.1324 -0.0578  0.4076
14352TIP3    H164471   1.077   1.508  16.745  0.7236 -0.6324 -0.2869
14352TIP3    H264472   0.958   1.471  16.659  0.5118 -0.6034 -0.0080
14353TIP3   OH264473   5.349   6.636  15.078  0.8620 -0.4562  0.4181
14353TIP3    H164474   5.424   6.673  15.125  1.1288 -1.7292  1.0659
14353TIP3    H264475   5.359   6.666  14.988  1.0216  1.0468  0.9134
14354TIP3   OH264476   2.664   1.829  10.677  0.0077  0.6211  0.0067
14354TIP3    H164477   2.712   1.896  10.726  0.0640 -0.3734  1.3596
14354TIP3    H264478   2.595   1.878  10.631  0.1260  1.6237  0.8547
14355TIP3   OH264479   6.470   2.749   1.139  0.1010  0.3697 -0.1299
14355TIP3    H164480   6.473   2.694   1.061  0.2088 -0.8664  0.7246
14355TIP3    H264481   6.418   2.700   1.202 -3.0489  2.8560 -0.5054
14356TIP3   OH264482   5.107   2.564  12.122  0.1332  0.0688  0.3211
14356TIP3    H164483   5.140   2.494  12.178  0.9197  2.1787  2.7278
14356TIP3    H264484   5.128   2.645  12.171 -3.1144  1.8586 -0.9563
14357TIP3   OH264485   2.009   6.077   4.262 -0.6707  0.1119 -0.4948
14357TIP3    H164486   2.102   6.079   4.239 -0.6145  0.8848 -0.2068
14357TIP3    H264487   1.975   6.000   4.215  0.3456 -0.8684  0.3252
14358TIP3   OH264488   4.753   3.754   0.138  0.2200  0.6390 -0.3600
14358TIP3    H164489   4.846   3.742   0.157  0.4391  0.4469 -1.5132
14358TIP3    H264490   4.747   3.842   0.101  0.3376 -0.2221 -2.5693
14359TIP3   OH264491   0.932   1.097  14.583  0.0919 -0.3643  0.2451
14359TIP3    H164492   0.882   1.123  14.506 -0.0684  3.2659  1.4156
14359TIP3    H264493   0.866   1.077  14.649  0.2074 -0.0227  0.4647
14360TIP3   OH264494   0.986   1.132  16.059  0.0888 -1.0979 -0.3688
14360TIP3    H164495   0.940   1.048  16.057  0.1500 -1.1354 -0.2452
14360TIP3    H264496   1.057   1.122  15.996  0.1042 -1.1443 -0.3449
14361TIP3   OH264497   2.325   3.999  14.079  0.4477  0.2676 -1.0704
14361TIP3    H164498   2.409   4.034  14.051  1.0923 -0.4726 -0.1228
14361TIP3    H264499   2.347   3.932  14.144 -0.9459  2.7204  2.2150
14362TIP3   OH264500   1.520   4.110  13.123  0.4734 -0.4518  0.1230
14362TIP3    H164501   1.461   4.136  13.051  0.6064  0.9018  0.4699
14362TIP3    H264502   1.462   4.076  13.191  0.1469  0.2319  0.1923
14363TIP3   OH264503   4.130   3.387   5.089 -0.6248  0.2838 -0.0869
14363TIP3    H164504   4.189   3.337   5.145 -0.0389  0.6403 -0.3736
14363TIP3    H264505   4.170   3.381   5.002  0.3446  2.5733  0.1403
14364TIP3   OH264506   6.349   1.493   5.599  0.1032  0.2969  0.2810
14364TIP3    H164507   6.375   1.557   5.533  1.5527 -1.7423 -1.2393
14364TIP3    H264508   6.429   1.474   5.648 -0.0131 -1.1136 -0.0147
14365TIP3   OH264509   0.519   5.004  14.821  0.4610  0.3782  0.0547
14365TIP3    H164510   0.579   5.052  14.765 -0.2255  1.1387 -0.0367
14365TIP3    H264511   0.563   5.000  14.906  0.5061  1.2120  0.0765
14366TIP3   OH264512   6.442   0.040  13.692  0.3245  0.4414  0.0266
14366TIP3    H164513   6.366   0.098  13.703  0.1593  0.3276 -0.4862
14366TIP3    H264514   6.439   0.015  13.600  1.8275  1.5771 -0.3561
14367TIP3   OH264515   0.090   4.209  16.422  0.2121 -0.0851  0.1295
14367TIP3    H164516   0.061   4.269  16.354  0.4696 -0.0836  0.0164
14367TIP3    H264517   0.101   4.125  16.377  2.2252  0.3362 -0.2848
14368TIP3   OH264518   0.174   4.012   6.270 -0.4455  0.3639  0.6028
14368TIP3    H164519   0.146   4.101   6.291 -0.7751  1.3769 -3.2256
14368TIP3    H264520   0.266   4.021   6.244 -1.2096  0.3538 -2.6318
14369TIP3   OH264521   1.618   2.508   0.290 -0.3149  0.2910  0.0246
14369TIP3    H164522   1.663   2.508   0.205  0.7328 -0.6906  0.5707
14369TIP3    H264523   1.685   2.482   0.353 -1.5162 -0.6776  0.9313
14370TIP3   OH264524   4.322   0.442  16.769  0.4075  0.4095 -0.2759
14370TIP3    H164525   4.304   0.400  16.854  1.6339 -1.0670 -0.7042
14370TIP3    H264526   4.391   0.506  16.787  0.3204  0.4464 -0.0733
14371TIP3   OH264527   6.460   4.979  14.821 -0.1761  0.1989  0.0758
14371TIP3    H164528   6.529   4.931  14.866  1.0931  0.7515 -1.1991
14371TIP3    H264529   6.422   5.035  14.889 -0.2735 -1.0608  1.0916
14372TIP3   OH264530   5.443   2.977  12.095  0.2164  0.0966 -0.0456
14372TIP3    H164531   5.500   3.049  12.122 -0.2885  1.0347 -1.3436
14372TIP3    H264532   5.473   2.901  12.146  0.5964  1.2660  1.5354
14373TIP3   OH264533   3.553   5.320   0.226 -0.0720  0.3913 -0.4384
14373TIP3    H164534   3.640   5.357   0.209 -0.4386  0.7838 -1.5046
14373TIP3    H264535   3.492   5.386   0.195 -0.7436 -0.6231 -1.3464
14374TIP3   OH264536   4.150   3.941   3.616  0.5561  0.6134 -0.2480
14374TIP3    H164537   4.110   3.960   3.531  0.6396 -1.3752 -0.7753
14374TIP3    H264538   4.216   4.010   3.627 -0.0379  1.3929 -1.3906
14375TIP3   OH264539   1.275   5.413   1.015 -0.0559 -0.2253  0.2588
14375TIP3    H164540   1.222   5.492   1.026  0.3496 -0.1224  1.5260
14375TIP3    H264541   1.335   5.412   1.089  0.7204 -1.1332 -0.3463
14376TIP3   OH264542   0.940   4.902   5.564 -0.0994  0.8232 -0.5384
14376TIP3    H164543   1.015   4.913   5.622 -0.7411  1.0935  0.2702
14376TIP3    H264544   0.869   4.873   5.622 -0.0759 -1.6261 -1.6299
14377TIP3   OH264545   3.084   4.718   0.221 -0.0721 -0.0863 -0.1396
14377TIP3    H164546   3.124   4.744   0.138  0.8773  0.7771  0.5667
14377TIP3    H264547   3.096   4.793   0.278  0.7469 -1.2383  1.2735
14378TIP3   OH264548   1.621   3.766   2.119 -0.1704  0.2147  0.1694
14378TIP3    H164549   1.654   3.795   2.033  2.8165 -0.1759  1.0611
14378TIP3    H264550   1.590   3.677   2.104  1.6864 -0.3984 -0.2868
14379TIP3   OH264551   2.710   6.280   1.418 -0.6963  0.1876 -0.2443
14379TIP3    H164552   2.722   6.325   1.502  0.7516  1.0537 -0.8835
14379TIP3    H264553   2.793   6.291   1.372 -0.5288 -2.4851 -0.7853
14380TIP3   OH264554   0.236   4.225   4.360  0.0059 -0.6459  0.6294
14380TIP3    H164555   0.313   4.199   4.310  0.9160 -0.7227  2.0040
14380TIP3    H264556   0.202   4.143   4.396 -1.6778 -0.8259 -1.1906
14381TIP3   OH264557   2.333   4.857   2.249 -0.3688 -0.3973  0.3454
14381TIP3    H164558   2.381   4.775   2.233 -0.9216 -0.3104 -2.1461
14381TIP3    H264559   2.263   4.832   2.310  0.0088 -1.5673  0.3341
14382TIP3   OH264560   3.138   3.999   3.116 -0.8266 -0.5295  0.2384
14382TIP3    H164561   3.127   3.934   3.047  1.2797 -1.6184  0.8678
14382TIP3    H264562   3.084   3.967   3.188 -2.4166  0.2128 -0.5547
14383TIP3   OH264563   0.543   0.904   0.255  0.1309  0.9523  0.0942
14383TIP3    H164564   0.528   0.955   0.335  0.6066  1.1028  0.0883
14383TIP3    H264565   0.587   0.825   0.285  0.4604  1.0842 -0.0344
14384TIP3   OH264566   2.490   6.282   2.256  0.3325  0.3267  0.1709
14384TIP3    H164567   2.467   6.205   2.204  0.1147  0.6438 -0.2077
14384TIP3    H264568   2.568   6.256   2.305 -0.1268 -0.3626  0.5604
14385TIP3   OH264569   4.244   1.170  10.397 -0.0834 -0.1585 -0.3953
14385TIP3    H164570   4.165   1.192  10.445  0.1110 -0.6347  0.1439
14385TIP3    H264571   4.212   1.133  10.314 -0.4575 -1.6982  0.4038
14386TIP3   OH264572   6.130   6.119   3.323 -1.0431 -0.6850 -0.1279
14386TIP3    H164573   6.043   6.108   3.360 -1.3911 -3.1640 -1.5192
14386TIP3    H264574   6.189   6.082   3.389 -1.1952 -0.7032 -0.0024
14387TIP3   OH264575   0.376   0.222  13.147 -0.0173 -0.4679 -0.3132
14387TIP3    H164576   0.426   0.165  13.089  0.9033  1.2968 -1.3454
14387TIP3    H264577   0.393   0.310  13.114 -0.7237  0.4836  1.7250
14388TIP3   OH264578   2.185   6.098  10.656  0.4113 -0.2492  0.0715
14388TIP3    H164579   2.257   6.122  10.715 -1.0322 -1.0892  2.3142
14388TIP3    H264580   2.186   6.003  10.655 -0.8929 -0.2869  0.4988
14389TIP3   OH264581   2.534   2.681  13.233  0.2449  0.0700 -0.5005
14389TIP3    H164582   2.551   2.682  13.139  1.9312  1.0458 -0.2442
14389TIP3    H264583   2.547   2.590  13.259 -1.1943 -0.4071 -1.3261
14390TIP3   OH264584   3.115   4.366  16.393  0.1124 -0.0093 -0.0357
14390TIP3    H164585   3.074   4.280  16.403 -0.2719 -0.2994 -3.2325
14390TIP3    H264586   3.045   4.428  16.412 -0.5536 -0.4592 -0.9619
14391TIP3   OH264587   5.227   0.158  15.623 -0.0847 -0.2146 -0.6774
14391TIP3    H164588   5.234   0.074  15.578 -1.7803 -0.1639 -1.1161
14391TIP3    H264589   5.138   0.158  15.660  1.1299 -0.1890  2.6067
14392TIP3   OH264590   3.066   2.362  12.531 -0.2790 -0.0581 -0.2342
14392TIP3    H164591   3.149   2.400  12.557  0.1196 -0.4820 -0.8466
14392TIP3    H264592   3.085   2.318  12.448 -1.8139  2.5134 -2.0847
14393TIP3   OH264593   4.819   1.489  16.840 -0.1361  0.0938  0.0514
14393TIP3    H164594   4.738   1.470  16.793 -0.5506  2.1995 -0.2132
14393TIP3    H264595   4.866   1.550  16.783  1.9645 -1.5475 -0.0723
14394TIP3   OH264596   5.669   1.220   1.052  0.3284  0.0235 -0.7895
14394TIP3    H164597   5.739   1.226   1.116  1.1201 -1.5315 -1.4626
14394TIP3    H264598   5.603   1.165   1.093 -0.3517  1.1606 -0.3146
14395TIP3   OH264599   4.054   5.629  14.876  0.0211 -0.3494 -0.5839
14395TIP3    H164600   4.081   5.636  14.968 -1.4530 -1.6575  0.0028
14395TIP3    H264601   4.011   5.712  14.857  1.2936  0.3609 -0.4593
14396TIP3   OH264602   5.447   3.891  15.931 -0.6981  0.3016  0.6592
14396TIP3    H164603   5.515   3.958  15.924  0.3334 -0.8668 -2.3856
14396TIP3    H264604   5.372   3.937  15.968  0.2063  2.9484 -0.5136
14397TIP3   OH264605   0.007   6.608   2.371 -0.0584 -0.3349 -0.1187
14397TIP3    H164606   0.038   6.590   2.460 -1.5118 -1.2017  0.2438
14397TIP3    H264607   0.081   6.585   2.315  0.8712  0.2117  0.8510
14398TIP3   OH264608   3.787   3.509  16.808  0.3090  0.8214 -0.0667
14398TIP3    H164609   3.717   3.455  16.769  1.1782 -0.9639  0.7052
14398TIP3    H264610   3.847   3.526  16.736 -0.2832  1.3256 -0.4580
14399TIP3   OH264611   6.615   0.664   2.343 -0.1510 -0.3458  0.2660
14399TIP3    H164612   6.704   0.644   2.313  0.7247 -0.6803  2.8232
14399TIP3    H264613   6.591   0.743   2.296  2.2194  0.7603  0.7563
14400TIP3   OH264614   4.185   2.418   5.542  0.0145  0.4653 -0.4467
14400TIP3    H164615   4.271   2.381   5.525  0.3742  0.2783  1.5371
14400TIP3    H264616   4.202   2.511   5.560 -0.5752  1.0995 -2.8090
14401TIP3   OH264617   3.678   1.889  14.517 -0.1008  1.1380 -0.1812
14401TIP3    H164618   3.657   1.831  14.590 -0.4544  3.0611  1.3083
14401TIP3    H264619   3.770   1.912  14.530  0.1954  0.5089 -1.0801
14402TIP3   OH264620   1.848   6.574  14.480 -0.3260  0.0844 -0.1978
14402TIP3    H164621   1.913   6.641  14.505 -0.0214 -0.3463  0.1871
14402TIP3    H264622   1.894   6.519  14.417  0.6109 -1.7812  1.9919
14403TIP3   OH264623   1.466   3.969  16.413 -0.0369  0.5249 -0.2751
14403TIP3    H164624   1.524   3.956  16.338  0.1388  0.6001 -0.1516
14403TIP3    H264625   1.411   3.890  16.415  1.6700 -0.7027  1.0493
14404TIP3   OH264626   2.736   3.294   5.650  0.3139  0.2558  0.4256
14404TIP3    H164627   2.793   3.313   5.725 -0.2511  0.9023  0.7009
14404TIP3    H264628   2.738   3.375   5.598 -0.5901  0.3886  0.5930
14405TIP3   OH264629   5.021   6.047  16.071  0.2096  0.4034  0.0468
14405TIP3    H164630   4.956   6.090  16.127 -0.9706  0.2354 -1.1494
14405TIP3    H264631   5.073   6.119  16.036  0.7246  0.5358  1.0306
14406TIP3   OH264632   1.397   5.215  11.785 -0.0454 -0.4023  0.1652
14406TIP3    H164633   1.374   5.156  11.857 -0.5673  0.3949  0.6628
14406TIP3    H264634   1.482   5.182  11.754  0.0385 -0.9423  0.9363
14407TIP3   OH264635   2.910   2.612   2.081 -0.2650 -0.2429 -0.0840
14407TIP3    H164636   2.933   2.658   2.162  1.2466  0.7716 -1.0411
14407TIP3    H264637   2.990   2.614   2.029 -0.7554 -2.2386 -0.9926
14408TIP3   OH264638   0.433   4.778  12.268 -0.1730  0.2194  0.1396
14408TIP3    H164639   0.401   4.852  12.217  0.0577  0.0400 -0.2717
14408TIP3    H264640   0.405   4.796  12.357 -0.3788  0.6527 -0.0114
14409TIP3   OH264641   1.074   3.735  11.025 -0.0726  0.3299  0.3085
14409TIP3    H164642   1.051   3.741  10.932  1.2552  0.3578 -0.0372
14409TIP3    H264643   1.102   3.644  11.036  1.7766  0.8406  0.1672
14410TIP3   OH264644   0.160   6.427   4.794 -0.3636 -0.2079 -0.6836
14410TIP3    H164645   0.188   6.345   4.753 -1.7858 -0.3334 -1.4950
14410TIP3    H264646   0.093   6.461   4.734  0.0822  1.4686 -0.2787
14411TIP3   OH264647   2.144   6.709  14.842 -0.4954  0.6893  0.1626
14411TIP3    H164648   2.185   6.770  14.904 -2.0733  2.0295 -0.0408
14411TIP3    H264649   2.218   6.662  14.803  0.5965  0.0170  2.7851
14412TIP3   OH264650   4.480   3.269  16.237  0.6535  0.0401  0.4895
14412TIP3    H164651   4.470   3.361  16.214 -0.9229 -0.1659  0.2253
14412TIP3    H264652   4.544   3.235  16.175  1.8064  1.1029  1.0593
14413TIP3   OH264653   5.388   1.047  15.315 -0.3092  0.9341  0.2452
14413TIP3    H164654   5.342   1.065  15.397 -2.3627  0.1988 -0.6797
14413TIP3    H264655   5.396   1.132  15.272 -0.8794  1.0602  0.3904
14414TIP3   OH264656   4.029   4.482   2.113  0.0767  0.0900  0.3948
14414TIP3    H164657   3.983   4.477   2.029  0.5464  1.2403  0.0470
14414TIP3    H264658   4.078   4.400   2.118  0.8605  0.4328 -0.9616
14415TIP3   OH264659   3.085   4.090   0.668  0.1099 -1.1287  0.0826
14415TIP3    H164660   3.085   4.153   0.740 -2.7599 -1.4127  0.4161
14415TIP3    H264661   3.177   4.086   0.640  0.9040  0.7418  2.1570
14416TIP3   OH264662   1.525   2.463  16.540 -0.3636 -0.0215  0.2532
14416TIP3    H164663   1.582   2.527  16.498 -0.5299  0.2192  0.3873
14416TIP3    H264664   1.516   2.495  16.630 -2.1616  0.9795 -0.2144
14417TIP3   OH264665   1.789   5.621  14.063  0.1264  0.1243  0.7447
14417TIP3    H164666   1.834   5.642  14.145  1.5160 -1.4548  0.4286
14417TIP3    H264667   1.858   5.587  14.006 -1.5501 -3.4988  0.6135
14418TIP3   OH264668   5.118   0.607  12.260  0.5304 -0.4437 -0.0840
14418TIP3    H164669   5.132   0.612  12.354 -0.1115 -3.2868  0.2709
14418TIP3    H264670   5.194   0.559  12.226  0.5031  0.0897 -0.9235
14419TIP3   OH264671   1.979   0.978  15.551 -0.0185 -0.1785  0.2548
14419TIP3    H164672   1.976   0.892  15.509  0.3798  0.0112 -0.1706
14419TIP3    H264673   2.060   0.977  15.602  0.0206 -0.0341  0.1966
14420TIP3   OH264674   2.103   6.411   6.060 -0.0193  0.1232 -0.4154
14420TIP3    H164675   2.164   6.484   6.072  0.7304 -0.4949 -0.3983
14420TIP3    H264676   2.105   6.364   6.144 -0.5534  0.1317 -0.3996
14421TIP3   OH264677   1.285   6.644   5.413 -0.3420  0.5004 -0.0995
14421TIP3    H164678   1.363   6.695   5.432 -0.4356  0.2486  1.0306
14421TIP3    H264679   1.306   6.598   5.331  0.7342  0.3626  0.2338
14422TIP3   OH264680   4.310   5.692   1.140 -0.0197 -1.0685 -0.0699
14422TIP3    H164681   4.257   5.697   1.220 -0.4465 -0.6955 -0.3629
14422TIP3    H264682   4.400   5.682   1.170  0.0673  0.9842  0.5264
14423TIP3   OH264683   5.023   6.494   2.601  0.0295 -0.1271  0.2223
14423TIP3    H164684   5.071   6.577   2.607  2.5872 -1.5653  1.3271
14423TIP3    H264685   4.971   6.503   2.521  1.2792  2.0093 -0.4618
14424TIP3   OH264686   6.552   3.026  14.915  0.1041  0.1732  0.0054
14424TIP3    H164687   6.530   3.116  14.938  1.3621  0.5422 -0.2044
14424TIP3    H264688   6.602   2.993  14.989 -0.2632 -0.3374  0.0371
14425TIP3   OH264689   4.354   3.001  14.948  0.2442 -0.7142 -0.1216
14425TIP3    H164690   4.265   3.006  14.982  0.4812  0.3371  0.4084
14425TIP3    H264691   4.379   2.909  14.957 -0.9944 -1.1346 -0.8400
14426TIP3   OH264692   4.539   2.482   2.065  0.5252  0.1889 -0.2951
14426TIP3    H164693   4.522   2.426   1.989 -1.4183 -2.3794  1.8118
14426TIP3    H264694   4.632   2.469   2.084  1.2141  1.3787 -2.4963
14427TIP3   OH264695   1.391   1.749  16.211 -0.1994 -0.4331  0.1606
14427TIP3    H164696   1.372   1.681  16.275 -1.5017 -0.2562 -0.0064
14427TIP3    H264697   1.459   1.711  16.155 -1.3431 -1.8816 -0.3214
14428TIP3   OH264698   1.757   3.355   1.507 -0.2903 -0.0838  0.0777
14428TIP3    H164699   1.763   3.268   1.467 -0.3807 -1.3553  2.6298
14428TIP3    H264700   1.847   3.388   1.505  0.1251 -1.1027  0.7953
14429TIP3   OH264701   0.484   1.715   2.872  0.4345 -0.5945  0.0220
14429TIP3    H164702   0.559   1.763   2.838 -0.5037  0.3902 -0.7149
14429TIP3    H264703   0.466   1.754   2.957 -0.4799  0.5903 -0.6807
14430TIP3   OH264704   5.311   5.659   5.567 -0.1348 -0.1646  0.2450
14430TIP3    H164705   5.339   5.748   5.548 -3.6199  1.1969  0.8267
14430TIP3    H264706   5.269   5.629   5.487  1.8270 -1.7413 -0.2692
14431TIP3   OH264707   4.117   1.724  12.738  0.0082 -0.2664 -0.1249
14431TIP3    H164708   4.114   1.754  12.647 -2.6481 -1.0575 -0.3936
14431TIP3    H264709   4.048   1.775  12.782  0.5714 -0.6216  1.2150
14432TIP3   OH264710   3.370   3.962   0.817  0.5802 -0.0201 -0.9570
14432TIP3    H164711   3.391   4.029   0.752 -1.1764  2.3377  0.7185
14432TIP3    H264712   3.380   4.007   0.901  2.9901 -2.9913  0.5715
14433TIP3   OH264713   0.804   5.079   1.406 -0.0711  0.0484  0.5360
14433TIP3    H164714   0.795   5.059   1.499 -0.7014 -1.9637  0.0872
14433TIP3    H264715   0.879   5.027   1.377 -0.1924  0.2684 -0.1892
14434TIP3   OH264716   4.956   1.185  15.372  0.6721  0.2357 -0.1574
14434TIP3    H164717   5.023   1.253  15.376 -0.9841  1.9190  0.7948
14434TIP3    H264718   4.913   1.188  15.458 -0.7038 -0.6733 -0.7703
14435TIP3   OH264719   3.079   0.195   0.196  0.7160 -0.6725 -0.1158
14435TIP3    H164720   3.115   0.129   0.136 -0.0950 -0.6416 -0.6539
14435TIP3    H264721   2.990   0.210   0.164  1.0734  1.1131 -0.3627
14436TIP3   OH264722   6.514   3.646  13.439 -0.0387 -0.4769 -0.0508
14436TIP3    H164723   6.485   3.613  13.524 -0.4539  1.3222  0.5541
14436TIP3    H264724   6.454   3.718  13.420 -1.2237 -2.0491 -2.8359
14437TIP3   OH264725   2.946   1.560  12.984  0.4565  0.3034  0.2073
14437TIP3    H164726   2.999   1.614  13.043  1.8249 -1.4007  0.6367
14437TIP3    H264727   2.876   1.526  13.039  1.5149 -0.9832  0.7986
14438TIP3   OH264728   0.264   5.579  13.971 -0.0424 -0.1302 -0.3082
14438TIP3    H164729   0.174   5.548  13.983  0.1181  0.2889  2.5860
14438TIP3    H264730   0.310   5.550  14.050  1.8108  1.5745 -0.6985
14439TIP3   OH264731   0.889   6.714  12.136 -0.2732 -0.0495 -0.0808
14439TIP3    H164732   0.907   6.717  12.042 -0.8418  1.9436 -0.1895
14439TIP3    H264733   0.834   6.791  12.152  1.6024  0.9414  2.2205
14440TIP3   OH264734   6.007   4.835  14.163 -0.0746 -0.6848  0.2454
14440TIP3    H164735   5.978   4.831  14.071 -1.5437  1.8527  0.5248
14440TIP3    H264736   6.064   4.912  14.167 -0.5653 -0.3743  1.5878
14441TIP3   OH264737   1.253   5.518  11.727 -0.7428 -0.1745  0.5852
14441TIP3    H164738   1.211   5.570  11.795  0.7449 -0.5051  1.8295
14441TIP3    H264739   1.278   5.437  11.772  1.8028  0.2944  0.1421
14442TIP3   OH264740   1.715   2.950  13.332 -0.5775 -0.0538 -0.2215
14442TIP3    H164741   1.796   2.997  13.351 -1.3870  1.2659  0.1072
14442TIP3    H264742   1.735   2.900  13.253  1.4388 -2.0817  1.4331
14443TIP3   OH264743   4.457   4.897  14.772 -0.0203  0.8692 -0.3653
14443TIP3    H164744   4.393   4.841  14.726 -0.3592  1.3071 -0.4351
14443TIP3    H264745   4.503   4.942  14.701  1.6129 -0.7498 -0.4118
14444TIP3   OH264746   1.987   5.449  14.490  0.9967  0.4791 -0.5456
14444TIP3    H164747   1.910   5.481  14.536  1.1074 -0.8866  0.6533
14444TIP3    H264748   1.972   5.356  14.479  1.6979  0.5062 -1.8952
14445TIP3   OH264749   4.487   3.746   0.829  0.4279 -0.1171 -0.2180
14445TIP3    H164750   4.504   3.704   0.914 -1.2955 -0.3801  0.0367
14445TIP3    H264751   4.445   3.678   0.776 -1.3779  0.8935 -0.1873
14446TIP3   OH264752   3.716   6.638  11.202  0.8979 -0.8003 -0.0897
14446TIP3    H164753   3.754   6.576  11.265  1.4565 -1.1288 -0.7396
14446TIP3    H264754   3.658   6.586  11.148  2.4943 -1.0938 -1.5987
14447TIP3   OH264755   1.709   5.969   2.497 -0.8386 -0.4596  0.0226
14447TIP3    H164756   1.713   5.945   2.590  0.0505  1.2553  0.4759
14447TIP3    H264757   1.636   5.917   2.462  0.3588 -3.0213  1.0659
14448TIP3   OH264758   4.977   3.104  15.678  0.1841 -0.3287  0.0400
14448TIP3    H164759   5.018   3.170  15.621 -0.4344 -1.2410 -1.5128
14448TIP3    H264760   5.032   3.104  15.757  1.7650  0.1920 -0.9964
14449TIP3   OH264761   1.837   0.789   1.962 -0.0336  0.0430  0.1338
14449TIP3    H164762   1.847   0.838   1.880 -0.2349 -0.8415 -0.4282
14449TIP3    H264763   1.898   0.716   1.953  0.2396  0.1629  0.9546
14450TIP3   OH264764   1.950   5.557  13.380 -1.4629  0.3386 -0.3620
14450TIP3    H164765   1.991   5.602  13.454  1.2762 -3.0381  0.4232
14450TIP3    H264766   1.868   5.522  13.416 -0.4545 -0.7439  0.9886
14451TIP3   OH264767   3.429   3.505   2.817 -0.5618  0.1921  0.0958
14451TIP3    H164768   3.469   3.590   2.836 -2.1286  1.1779 -0.6684
14451TIP3    H264769   3.466   3.480   2.732 -0.7631  0.5806 -0.1127
14452TIP3   OH264770   6.371   1.290  11.479 -0.6255 -0.0156 -0.2686
14452TIP3    H164771   6.418   1.219  11.436 -1.2914 -0.2337 -0.6589
14452TIP3    H264772   6.331   1.250  11.556 -0.5649  0.0569 -0.1987
14453TIP3   OH264773   0.523   4.986   4.405  0.2425 -0.1117  0.0226
14453TIP3    H164774   0.448   5.040   4.430  1.0005  2.0083 -1.9335
14453TIP3    H264775   0.586   5.048   4.368  1.3185 -2.2752 -2.0484
14454TIP3   OH264776   5.647   4.638  12.176 -0.3712  0.2428 -0.2003
14454TIP3    H164777   5.723   4.579  12.170 -0.1110  0.0993  2.8053
14454TIP3    H264778   5.578   4.593  12.128  1.3922  0.4844 -3.2560
14455TIP3   OH264779   1.139   5.666  10.854  0.3435  0.1903 -0.0515
14455TIP3    H164780   1.179   5.582  10.833 -0.7445 -0.2421 -0.4562
14455TIP3    H264781   1.101   5.696  10.771 -0.3286  0.4908  0.3530
14456TIP3   OH264782   4.371   5.461  14.818 -0.1165  0.2851 -0.1651
14456TIP3    H164783   4.296   5.453  14.759 -0.8600 -0.5755  0.8499
14456TIP3    H264784   4.373   5.379  14.866 -0.0058  1.2234  1.5182
14457TIP3   OH264785   4.826   3.663   4.700 -0.1204  0.5844  0.6856
14457TIP3    H164786   4.903   3.644   4.753  0.2809 -1.6372 -0.5449
14457TIP3    H264787   4.858   3.664   4.610 -0.9615  3.2446  0.3321
14458TIP3   OH264788   4.555   3.836  14.007 -0.1034 -0.5171 -0.0749
14458TIP3    H164789   4.468   3.856  14.039  0.5001 -0.7400  1.7935
14458TIP3    H264790   4.599   3.792  14.080  1.5323 -0.5297 -1.0030
14459TIP3   OH264791   4.657   0.675  14.817 -0.6132  0.3640  0.0495
14459TIP3    H164792   4.639   0.651  14.908 -2.1904 -0.0735 -0.3383
14459TIP3    H264793   4.629   0.766  14.811 -1.3014  0.1490 -0.1736
14460TIP3   OH264794   1.139   3.537  14.872  0.2522 -0.0601  0.1824
14460TIP3    H164795   1.060   3.575  14.910  0.6945  1.4540 -0.3503
14460TIP3    H264796   1.115   3.447  14.851 -0.6252 -0.3452  2.1432
14461TIP3   OH264797   1.823   3.122   3.457 -1.0368 -0.0269 -0.6527
14461TIP3    H164798   1.843   3.031   3.476  3.3504  0.4643 -1.7337
14461TIP3    H264799   1.820   3.164   3.543 -0.2023 -0.7506 -0.2560
14462TIP3   OH264800   6.695   1.420  15.744 -0.1407  0.6940 -0.2826
14462TIP3    H164801   6.713   1.493  15.803  0.4224  0.1769  0.1886
14462TIP3    H264802   6.740   1.443  15.663  0.9017  0.4019  0.1968
14463TIP3   OH264803   2.889   2.237   2.091  0.5513 -0.2192 -0.6765
14463TIP3    H164804   2.952   2.243   2.164  2.5524 -0.5857 -2.2810
14463TIP3    H264805   2.939   2.262   2.014 -1.6667  0.7344 -1.8974
14464TIP3   OH264806   3.038   2.281   3.164 -0.1327  0.1474  0.4811
14464TIP3    H164807   2.973   2.331   3.212 -1.3032 -2.2478  1.5778
14464TIP3    H264808   3.042   2.196   3.209  0.5173 -1.3564 -2.1622
14465TIP3   OH264809   0.453   3.712  15.467  0.2331  0.4464  0.0375
14465TIP3    H164810   0.547   3.693  15.460  0.7412  1.8018  2.3327
14465TIP3    H264811   0.418   3.641  15.520  0.1818  0.6012  0.2086
14466TIP3   OH264812   1.250   2.659  13.474  0.0728 -0.0873 -0.6380
14466TIP3    H164813   1.203   2.741  13.459 -0.4327 -0.2753 -0.1481
14466TIP3    H264814   1.304   2.676  13.551 -0.8619 -0.5350  0.1419
14467TIP3   OH264815   2.176   1.724  12.443  0.1601  0.2008 -0.1548
14467TIP3    H164816   2.163   1.668  12.520  0.7715 -0.4242 -0.4948
14467TIP3    H264817   2.186   1.812  12.479  0.8012 -0.1318  0.5239
14468TIP3   OH264818   4.418   2.423   3.658 -0.7206 -0.0885  0.2209
14468TIP3    H164819   4.328   2.415   3.688 -1.0851 -2.6858 -1.2500
14468TIP3    H264820   4.411   2.459   3.570 -0.3031  0.0419  0.2398
14469TIP3   OH264821   5.445   0.356  15.015 -0.3185  0.0997 -0.1545
14469TIP3    H164822   5.523   0.301  15.004  1.9008  3.1447 -0.7152
14469TIP3    H264823   5.424   0.348  15.108  2.3623  1.2334  0.6460
14470TIP3   OH264824   6.143   2.138  13.762  0.1318  0.5553  0.1687
14470TIP3    H164825   6.057   2.172  13.735  0.7563  2.1552  0.1012
14470TIP3    H264826   6.205   2.178  13.701  0.8047 -2.1724 -1.1243
14471TIP3   OH264827   2.042   0.302   3.692  0.3555 -0.8051  0.2560
14471TIP3    H164828   1.999   0.251   3.624  2.1984 -1.1692 -0.6985
14471TIP3    H264829   1.994   0.385   3.695  1.6162  0.2223 -3.2437
14472TIP3   OH264830   2.613   0.694   1.877  0.0447  0.3650 -0.4359
14472TIP3    H164831   2.522   0.720   1.891 -0.6593 -2.3937  0.6900
14472TIP3    H264832   2.659   0.725   1.956 -0.2911  0.2423 -0.1888
14473TIP3   OH264833   3.517   0.264  13.582 -0.4150  0.4819  0.1614
14473TIP3    H164834   3.500   0.280  13.489  0.6175  1.0270  0.0559
14473TIP3    H264835   3.463   0.329  13.627 -0.4283  0.6409 -0.0818
14474TIP3   OH264836   2.872   0.226   5.167  0.5296 -0.2566 -0.4098
14474TIP3    H164837   2.847   0.317   5.154  2.0238 -0.0950 -2.5566
14474TIP3    H264838   2.808   0.176   5.116  0.9369 -0.2466 -0.9412
14475TIP3   OH264839   0.331   6.774   4.404 -0.4057 -0.0610  0.4856
14475TIP3    H164840   0.387   6.748   4.332 -0.5962  1.2266 -0.1533
14475TIP3    H264841   0.387   6.767   4.482 -0.2887 -1.7445  0.2866
14476TIP3   OH264842   2.238   3.626  12.929 -0.4023 -0.3639 -0.1101
14476TIP3    H164843   2.307   3.660  12.873 -0.1463  0.9613  0.9704
14476TIP3    H264844   2.160   3.675  12.903 -0.1808  0.5966  0.9864
14477TIP3   OH264845   3.412   3.095  14.579 -0.2763  0.2833 -0.1989
14477TIP3    H164846   3.324   3.133  14.587 -0.2750  0.9234 -2.6366
14477TIP3    H264847   3.450   3.138  14.503  1.7024 -0.9143  0.0464
14478TIP3   OH264848   2.518   3.133   2.824 -0.2354 -0.4342  0.2776
14478TIP3    H164849   2.527   3.080   2.903 -0.6449 -0.4870  0.2912
14478TIP3    H264850   2.463   3.207   2.851  0.8543  0.3596  0.4305
14479TIP3   OH264851   0.897   6.315   5.935  0.4473 -0.5632  0.3788
14479TIP3    H164852   0.838   6.240   5.933 -0.1253 -0.1167  0.1126
14479TIP3    H264853   0.913   6.331   6.028 -0.4962 -0.2012  0.4894
14480TIP3   OH264854   5.127   3.708   5.384  0.2490  0.0714  0.0319
14480TIP3    H164855   5.189   3.651   5.431 -0.2960  0.7007  1.5733
14480TIP3    H264856   5.061   3.730   5.449 -0.9654  0.3867 -1.2656
14481TIP3   OH264857   1.716   5.409   1.890 -0.3039  0.7002 -0.0469
14481TIP3    H164858   1.659   5.466   1.941  0.8911  0.6592  1.4043
14481TIP3    H264859   1.774   5.468   1.842 -0.6938  0.7237 -0.4953
14482TIP3   OH264860   2.691   5.615  14.289 -0.4133  0.2127 -0.3452
14482TIP3    H164861   2.667   5.550  14.223  0.1540 -0.2234 -0.1379
14482TIP3    H264862   2.745   5.566  14.352  0.4956  1.0015 -0.4838
14483TIP3   OH264863   0.985   2.230   2.376  0.0496 -0.2313  0.4509
14483TIP3    H164864   1.028   2.293   2.434 -0.6634 -0.0825  0.8380
14483TIP3    H264865   0.940   2.285   2.311  1.2922 -0.4091 -0.5876
14484TIP3   OH264866   0.676   4.260   3.419 -0.0841 -0.0694  0.1297
14484TIP3    H164867   0.721   4.229   3.497 -0.5600 -0.0639  0.4065
14484TIP3    H264868   0.713   4.209   3.347  1.0458  0.5903  0.2214
14485TIP3   OH264869   1.813   6.543   5.031  0.3402  0.1160  0.4131
14485TIP3    H164870   1.777   6.631   5.029  1.4603  0.7055  2.8049
14485TIP3    H264871   1.898   6.553   5.073  2.0339 -1.6568 -2.2548
14486TIP3   OH264872   5.508   3.630  13.104  0.3854 -0.1683  0.3274
14486TIP3    H164873   5.470   3.620  13.192  0.7189  0.5688  0.5726
14486TIP3    H264874   5.546   3.718  13.105  1.1669 -0.4832 -0.2630
14487TIP3   OH264875   1.990   3.962   2.470  0.3628 -0.0088  0.3697
14487TIP3    H164876   1.927   4.025   2.504  1.4290  1.0364  0.4907
14487TIP3    H264877   1.951   3.929   2.389  0.8337  2.6740 -1.0616
14488TIP3   OH264878   0.428   6.727   4.663 -0.4677 -0.2308  0.1893
14488TIP3    H164879   0.419   6.648   4.716  0.2477 -0.3974  0.0767
14488TIP3    H264880   0.514   6.762   4.686  1.2765 -1.9416 -2.9971
14489TIP3   OH264881   1.594   2.954  15.649 -0.6950  0.4321  0.3026
14489TIP3    H164882   1.645   2.955  15.730  1.9814 -1.1721 -1.2067
14489TIP3    H264883   1.630   3.025  15.596 -1.1866  0.3552 -0.1514
14490TIP3   OH264884   2.551   3.062   4.988  0.1278 -0.0421  0.3769
14490TIP3    H164885   2.508   3.132   5.036 -0.2620  0.6007 -0.8665
14490TIP3    H264886   2.551   2.988   5.049 -1.7698  0.2633  0.8272
14491TIP3   OH264887   6.681   4.235  13.174  1.0231  0.2370 -0.6535
14491TIP3    H164888   6.711   4.146  13.154  1.7764  0.2221  0.4660
14491TIP3    H264889   6.712   4.251  13.263 -1.7956  0.4505  0.3901
14492TIP3   OH264890   6.307   0.798   1.091  0.2224 -0.1621  0.4141
14492TIP3    H164891   6.309   0.877   1.146  0.5473  0.2021 -0.1178
14492TIP3    H264892   6.250   0.821   1.018  1.8641  0.2761 -0.7784
14493TIP3   OH264893   5.397   5.474  14.243  0.0835  0.0821  0.3895
14493TIP3    H164894   5.320   5.473  14.300  0.3589  1.7811  0.8621
14493TIP3    H264895   5.449   5.399  14.271 -1.3322 -1.0564  0.1096
14494TIP3   OH264896   3.125   5.333   5.928 -0.2753 -0.4752 -0.3971
14494TIP3    H164897   3.073   5.334   6.008 -1.3664 -3.1926 -0.9464
14494TIP3    H264898   3.176   5.252   5.934  1.8388  0.7123 -1.1775
14495TIP3   OH264899   3.747   3.509   5.986 -0.3971 -0.7711  0.1278
14495TIP3    H164900   3.663   3.489   6.029 -0.0494 -1.3433  0.5597
14495TIP3    H264901   3.782   3.423   5.962 -0.5379 -0.4668 -1.2240
14496TIP3   OH264902   6.260   5.906   5.292 -0.4557  0.4238 -0.3701
14496TIP3    H164903   6.218   5.976   5.341  0.9092  1.4621 -0.6159
14496TIP3    H264904   6.290   5.844   5.359 -1.4701  0.1654 -0.1395
14497TIP3   OH264905   1.434   4.682   2.627 -0.2690 -0.0204  0.9599
14497TIP3    H164906   1.470   4.656   2.543 -0.2417 -0.7327  1.1913
14497TIP3    H264907   1.339   4.687   2.613 -0.2791 -0.3002  0.9304
14498TIP3   OH264908   6.586   5.409  11.963 -0.0547  0.1207 -0.6263
14498TIP3    H164909   6.555   5.489  12.006 -0.2383  0.8564 -2.0343
14498TIP3    H264910   6.641   5.441  11.892 -0.6852 -0.9672 -1.6420
14499TIP3   OH264911   2.008   5.733   2.096  0.5635  0.5149  0.0582
14499TIP3    H164912   1.993   5.638   2.089  0.0552  0.5600  0.4704
14499TIP3    H264913   2.053   5.756   2.015  0.2217  0.0063 -0.2836
14500TIP3   OH264914   4.654   2.296   1.673  0.4893 -0.1584 -0.1936
14500TIP3    H164915   4.736   2.260   1.707 -0.4984  0.0186  2.6131
14500TIP3    H264916   4.672   2.389   1.660  0.9862 -0.2904 -0.4704
14501TIP3   OH264917   1.604   4.000   0.129 -0.5899 -0.3936 -0.1010
14501TIP3    H164918   1.653   3.919   0.115 -0.9332 -0.3485 -1.8546
14501TIP3    H264919   1.514   3.979   0.103 -0.6343  0.6019 -0.8403
14502TIP3   OH264920   3.954   3.029   4.965 -0.1131  0.3706  0.5935
14502TIP3    H164921   3.944   3.084   5.042 -1.8779  0.4874  0.3378
14502TIP3    H264922   3.870   2.984   4.957  0.5343 -0.7117 -0.4475
14503TIP3   OH264923   0.362   1.684   4.136  0.0621  0.2199 -0.4041
14503TIP3    H164924   0.294   1.663   4.200  0.7065  0.0178  0.2196
14503TIP3    H264925   0.317   1.680   4.051 -1.0613  1.5750  0.0884
14504TIP3   OH264926   4.770   1.066   4.742  0.4613 -0.0626 -0.4621
14504TIP3    H164927   4.848   1.094   4.790 -0.2564 -0.6905  1.1471
14504TIP3    H264928   4.801   1.049   4.653  1.6178  2.2713 -0.5795
14505TIP3   OH264929   1.576   0.821   2.366  0.1771 -0.0774 -0.0131
14505TIP3    H164930   1.487   0.807   2.396  0.0542  0.2102 -0.2397
14505TIP3    H264931   1.626   0.749   2.405 -0.1499 -0.2355  0.1178
14506TIP3   OH264932   0.283   4.948   2.179 -0.6668 -0.6003  0.0195
14506TIP3    H164933   0.263   5.041   2.164  1.0407 -0.3927 -1.3702
14506TIP3    H264934   0.205   4.913   2.221 -2.1588  1.0161 -1.2317
14507TIP3   OH264935   4.490   4.091  13.327 -0.4092  0.1646 -0.6647
14507TIP3    H164936   4.441   4.105  13.409 -1.1077  1.0678 -1.2208
14507TIP3    H264937   4.432   4.036  13.274 -0.1403 -0.0713 -0.7106
14508TIP3   OH264938   2.468   3.902   2.604  0.5103 -0.0315 -0.0169
14508TIP3    H164939   2.383   3.947   2.611 -1.4593 -3.4362  0.0375
14508TIP3    H264940   2.519   3.957   2.545 -1.0868  2.9847  1.1663
14509TIP3   OH264941   2.223   3.418   4.184  0.0568  0.0387 -0.0542
14509TIP3    H164942   2.136   3.452   4.162 -0.1473 -0.9318 -0.7704
14509TIP3    H264943   2.278   3.496   4.190 -0.7894  0.6385  0.1115
14510TIP3   OH264944   3.427   2.190  12.753 -0.4026 -0.3716  0.8208
14510TIP3    H164945   3.354   2.134  12.727  0.3558 -1.0545  0.1208
14510TIP3    H264946   3.498   2.129  12.776  0.3298  0.2878  0.3716
14511TIP3   OH264947   2.188   3.841   4.574 -0.2625  0.4378  0.1422
14511TIP3    H164948   2.135   3.777   4.622  0.3774  0.3861  0.7891
14511TIP3    H264949   2.214   3.796   4.494  0.4589 -0.2395  0.7440
14512TIP3   OH264950   6.436   4.698  12.324  0.1084  0.1946  0.1861
14512TIP3    H164951   6.485   4.626  12.285 -0.0160  1.0186 -1.5458
14512TIP3    H264952   6.499   4.770  12.329  0.0832  0.1551  1.4272
14513TIP3   OH264953   1.178   1.556  15.305 -0.0913  0.1324  0.0241
14513TIP3    H164954   1.203   1.464  15.308  1.2076  0.4949  0.6781
14513TIP3    H264955   1.164   1.574  15.212  0.6883 -0.4483 -0.2075
14514TIP3   OH264956   5.080   2.749  14.263 -0.1793 -0.1497 -0.1678
14514TIP3    H164957   5.027   2.733  14.341 -1.6916  1.2792 -0.8484
14514TIP3    H264958   5.126   2.666  14.249  0.3456 -0.3793  2.3570
14515TIP3   OH264959   1.192   2.724   1.395  0.4167  0.3192  0.2562
14515TIP3    H164960   1.254   2.788   1.429  2.3382 -0.0299 -2.2910
14515TIP3    H264961   1.229   2.639   1.420 -0.5972  0.1198  1.1528
14516TIP3   OH264962   4.909   1.495  10.755 -0.1446  0.1951 -0.5930
14516TIP3    H164963   4.942   1.581  10.730 -0.4690 -0.4741 -3.7087
14516TIP3    H264964   4.814   1.502  10.749 -0.1624 -0.4467 -1.2265
14517TIP3   OH264965   6.588   1.213  14.513  0.1936  0.3237  0.2413
14517TIP3    H164966   6.664   1.164  14.479  0.2363  0.6473 -0.1456
14517TIP3    H264967   6.516   1.150  14.510  0.2015  0.3410 -0.4503
14518TIP3   OH264968   5.019   5.311  12.730 -0.3452 -0.1083  0.2054
14518TIP3    H164969   5.069   5.349  12.802  0.7876 -0.1122 -0.5584
14518TIP3    H264970   5.048   5.220  12.726  1.1858  0.3964 -1.5554
14519TIP3   OH264971   0.245   2.082  17.154 -0.8101 -0.0076  0.3717
14519TIP3    H164972   0.271   2.166  17.115  0.7969 -0.4553  0.4040
14519TIP3    H264973   0.283   2.084  17.241 -1.8026 -0.2890  0.8210
14520TIP3   OH264974   3.700   0.084   1.346  0.0242  0.1380 -0.0866
14520TIP3    H164975   3.658   0.047   1.268  0.1849  0.3060 -0.2530
14520TIP3    H264976   3.786   0.042   1.349  0.3740  0.8086 -0.5136
14521TIP3   OH264977   5.651   0.617   2.194 -0.3827  0.1134  0.0721
14521TIP3    H164978   5.730   0.669   2.206  0.3476 -1.0532  0.4861
14521TIP3    H264979   5.668   0.566   2.115 -0.7741 -0.0422  0.0880
14522TIP3   OH264980   6.097   6.128  13.545 -0.3671  0.4561  0.0028
14522TIP3    H164981   6.063   6.151  13.458 -2.0873  0.4557  0.6398
14522TIP3    H264982   6.130   6.039  13.535 -0.5215  0.4661 -0.6587
14523TIP3   OH264983   0.485   4.197   5.343 -0.7071 -0.1007  0.3767
14523TIP3    H164984   0.419   4.135   5.313 -0.4786  0.1329 -0.6437
14523TIP3    H264985   0.473   4.274   5.286  2.0105 -0.9555 -1.5457
14524TIP3   OH264986   0.658   4.322  16.618  0.3885 -0.0645  0.1359
14524TIP3    H164987   0.736   4.275  16.588  0.0098 -1.2423  0.9346
14524TIP3    H264988   0.625   4.269  16.690 -3.6193 -2.0837 -2.8128
14525TIP3   OH264989   2.961   6.138   0.430  0.6506 -0.1430  0.0388
14525TIP3    H164990   2.921   6.199   0.492 -1.6091 -1.2533 -0.2342
14525TIP3    H264991   2.954   6.053   0.473  4.8921 -0.2251  0.9683
14526TIP3   OH264992   4.682   0.461  15.314  0.3530  0.1695 -0.6020
14526TIP3    H164993   4.734   0.381  15.307 -1.2587 -1.2023  1.8966
14526TIP3    H264994   4.668   0.488  15.223  4.5524  0.1746 -1.4656
14527TIP3   OH264995   6.782   2.127   0.572 -0.1270  0.4388 -0.2902
14527TIP3    H164996   6.839   2.135   0.649 -0.4781  0.5974 -0.0406
14527TIP3    H264997   6.800   2.205   0.520  1.3642 -0.4993 -1.2386
14528TIP3   OH264998   4.230   6.266  14.545 -0.3705 -0.1905  0.2465
14528TIP3    H164999   4.277   6.183  14.541 -1.1808 -0.6408 -0.2924
14528TIP3    H265000   4.254   6.312  14.464 -0.9588 -0.4914 -0.1088
14529TIP3   OH265001   6.711   1.112   2.410 -1.0269 -0.0727  0.0690
14529TIP3    H165002   6.759   1.186   2.374  0.1985 -0.4965  0.7778
14529TIP3    H265003   6.704   1.131   2.504  0.9397 -1.6776  0.6090
14530TIP3   OH265004   4.935   2.588   4.332  0.0629 -0.1443  0.2144
14530TIP3    H165005   4.989   2.655   4.373  0.1774 -0.8663  1.2812
14530TIP3    H265006   4.997   2.519   4.306 -0.0523  0.1473 -0.8681
14531TIP3   OH265007   3.729   5.012   4.857  0.5093  0.2373  0.0713
14531TIP3    H165008   3.820   4.998   4.880  0.8201  1.9633  0.0155
14531TIP3    H265009   3.686   5.035   4.939  0.1561 -0.3584  0.0614
14532TIP3   OH265010   0.122   5.772   1.190 -0.5985  0.4955 -0.0687
14532TIP3    H165011   0.044   5.766   1.245 -0.4004 -1.1475  0.0982
14532TIP3    H265012   0.094   5.739   1.105 -0.5504  1.6908 -0.5534
14533TIP3   OH265013   4.250   5.520   4.537 -0.2738  0.0638  0.2822
14533TIP3    H165014   4.319   5.472   4.584 -0.2547  0.5218  0.7289
14533TIP3    H265015   4.293   5.598   4.504 -0.2888 -0.2594 -0.5190
14534TIP3   OH265016   3.573   3.007  10.550 -0.3441  0.2212  0.3383
14534TIP3    H165017   3.550   3.047  10.634  0.5143 -0.5158  0.9415
14534TIP3    H265018   3.596   2.917  10.572  0.9269  0.3079 -0.5413
14535TIP3   OH265019   1.336   2.110  15.059  0.1751  0.3166  0.8130
14535TIP3    H165020   1.408   2.122  14.996 -0.3427 -0.0044  0.1533
14535TIP3    H265021   1.373   2.139  15.142  1.5078 -1.0042  0.7401
14536TIP3   OH265022   2.549   6.538   0.659 -0.1933  0.0015 -0.0341
14536TIP3    H165023   2.571   6.559   0.749 -1.4147  3.3837 -0.3957
14536TIP3    H265024   2.564   6.444   0.652  4.8484  0.3505  2.2051
14537TIP3   OH265025   4.711   6.516   5.627  0.2974 -0.0586  0.6142
14537TIP3    H165026   4.652   6.442   5.644 -0.7898  0.6512  0.1186
14537TIP3    H265027   4.764   6.487   5.553  1.0918 -0.9801  1.5174
14538TIP3   OH265028   2.160   0.894  13.390 -0.1387  0.1496  0.0372
14538TIP3    H165029   2.224   0.963  13.406  1.1854 -0.8027 -0.9302
14538TIP3    H265030   2.213   0.819  13.362 -1.8161  0.0736 -3.3851
14539TIP3   OH265031   0.676   5.938   4.262 -0.5814  0.2206 -0.0382
14539TIP3    H165032   0.735   5.911   4.332 -0.1101  0.8866 -0.1666
14539TIP3    H265033   0.675   5.865   4.201  0.7276  0.4983 -0.4183
14540TIP3   OH265034   0.906   0.244   3.669  0.4144  0.2229  0.4633
14540TIP3    H165035   0.822   0.204   3.649  0.2723  0.3913  0.7241
14540TIP3    H265036   0.921   0.307   3.598  0.2554  0.2928  0.4925
14541TIP3   OH265037   4.925   4.834  15.762  0.2959 -0.0059  0.3423
14541TIP3    H165038   4.881   4.799  15.840 -1.5564 -0.2892 -0.7905
14541TIP3    H265039   4.928   4.929  15.777 -2.1943  0.2227 -0.2305
14542TIP3   OH265040   2.787   2.811  12.636 -0.1493  0.4108 -0.0796
14542TIP3    H165041   2.866   2.851  12.598 -0.2688  0.5216 -0.2097
14542TIP3    H265042   2.725   2.883  12.645 -0.0051  0.4546  0.6440
14543TIP3   OH265043   4.878   5.889   1.362  0.5600  0.2513 -0.1417
14543TIP3    H165044   4.905   5.824   1.297 -1.0120 -0.0962 -0.4870
14543TIP3    H265045   4.933   5.965   1.344  0.7025 -0.1209 -1.3562
14544TIP3   OH265046   6.780   4.441  14.788  0.0922 -0.2140  0.0628
14544TIP3    H165047   6.737   4.358  14.809  0.2423 -0.2259  0.3150
14544TIP3    H265048   6.722   4.481  14.722 -0.2734 -0.2622  0.3506
14545TIP3   OH265049   0.636   6.194   2.364  0.3018  0.1504  0.0548
14545TIP3    H165050   0.545   6.168   2.365  0.8443 -1.8762  0.7908
14545TIP3    H265051   0.655   6.214   2.272 -0.5650 -0.6360 -0.3045
14546TIP3   OH265052   3.505   2.243  12.379  0.1036  0.2707 -0.0266
14546TIP3    H165053   3.494   2.327  12.425 -0.9904  0.0913  0.0735
14546TIP3    H265054   3.586   2.207  12.414 -0.1764  0.6156  1.0133
14547TIP3   OH265055   2.486   0.763  15.401 -0.2518  0.0655 -0.9479
14547TIP3    H165056   2.576   0.793  15.393  0.4869 -1.9205 -0.6162
14547TIP3    H265057   2.466   0.773  15.495  0.1915 -0.9605 -0.7344
14548TIP3   OH265058   6.617   0.695  11.189 -0.3136 -0.1471 -1.0085
14548TIP3    H165059   6.539   0.711  11.241  0.1426  0.4257 -0.4974
14548TIP3    H265060   6.599   0.611  11.146 -0.2095 -1.2627  1.0019
14549TIP3   OH265061   3.398   1.210  13.895 -0.7288  0.3596 -0.1859
14549TIP3    H165062   3.360   1.184  13.979 -1.7122  0.7873 -0.4839
14549TIP3    H265063   3.337   1.175  13.830  1.4565 -2.4419 -0.9131
14550TIP3   OH265064   6.341   2.784   5.636  0.2442  0.3909  0.3558
14550TIP3    H165065   6.354   2.872   5.599  0.6933  0.9334  1.7297
14550TIP3    H265066   6.246   2.776   5.642  0.1982  0.8005  0.2624
14551TIP3   OH265067   3.601   3.200  13.526 -0.3468 -0.4121 -0.2251
14551TIP3    H165068   3.692   3.207  13.556 -0.4372  0.7213 -0.1778
14551TIP3    H265069   3.551   3.251  13.589 -1.0283 -0.9972 -0.2747
14552TIP3   OH265070   4.512   1.034   4.809 -0.4329 -0.1969 -0.4364
14552TIP3    H165071   4.501   1.087   4.731 -3.2892  2.1177  1.3275
14552TIP3    H265072   4.607   1.025   4.819  0.0830  2.1127 -2.4196
14553TIP3   OH265073   3.491   1.257  16.874 -0.6030  0.0711 -0.3124
14553TIP3    H165074   3.427   1.186  16.885 -1.1606  0.7719  1.2744
14553TIP3    H265075   3.440   1.337  16.884  0.4904  0.6517  0.9095
14554TIP3   OH265076   2.266   1.960   4.874 -0.7061  0.3544  1.0685
14554TIP3    H165077   2.345   1.911   4.895  0.2031  0.2881 -2.0299
14554TIP3    H265078   2.279   2.046   4.915 -0.3589 -0.5239  2.9132
14555TIP3   OH265079   3.284   0.515  11.797  0.2608  0.1472 -0.0406
14555TIP3    H165080   3.234   0.583  11.842  0.4916  0.2513  0.0583
14555TIP3    H265081   3.366   0.557  11.772  1.1174 -0.5042  1.4687
14556TIP3   OH265082   0.342   5.347   2.519  0.5445  0.6502  0.1033
14556TIP3    H165083   0.350   5.287   2.445 -0.8450 -1.2607  1.4199
14556TIP3    H265084   0.270   5.405   2.494 -1.2606 -1.2369  0.6826
14557TIP3   OH265085   1.121   2.558  12.531 -0.3147 -0.5781 -0.1633
14557TIP3    H165086   1.050   2.622  12.528 -0.8696 -1.0645  1.2629
14557TIP3    H265087   1.118   2.514  12.446 -1.0453  0.1097 -0.5062
14558TIP3   OH265088   4.508   3.681  13.640  0.0684 -0.1864  0.2356
14558TIP3    H165089   4.475   3.602  13.682  1.9972 -0.4776  1.3308
14558TIP3    H265090   4.585   3.705  13.691  0.9675  0.9859 -1.5478
14559TIP3   OH265091   6.357   0.792   1.976  0.3459  0.3262  0.0974
14559TIP3    H165092   6.357   0.742   2.058 -1.2159 -0.0593 -0.1093
14559TIP3    H265093   6.282   0.851   1.984 -0.3083 -0.2660 -1.3593
14560TIP3   OH265094   1.364   1.389  13.684  0.1059  0.4899  0.1083
14560TIP3    H165095   1.431   1.355  13.624  0.9397  1.1333  0.6565
14560TIP3    H265096   1.348   1.317  13.745  0.9587  0.6224  0.5103
14561TIP3   OH265097   4.017   4.963  16.479  0.5925 -0.5136 -0.0673
14561TIP3    H165098   4.093   4.910  16.502  0.9143 -1.5320 -2.9951
14561TIP3    H265099   3.964   4.905  16.424  0.8698  2.0284 -3.3138
14562TIP3   OH265100   5.083   6.036   2.218  0.7871 -0.2886  0.0715
14562TIP3    H165101   5.166   6.025   2.265  1.3215  0.5455 -0.6440
14562TIP3    H265102   5.016   6.036   2.286  1.2760 -1.8905  0.5924
14563TIP3   OH265103   1.323   3.846   3.212  0.0575  0.2959 -0.3999
14563TIP3    H165104   1.402   3.818   3.257 -0.1437  0.4809  0.0777
14563TIP3    H265105   1.296   3.925   3.258  0.2756  0.9333 -1.3393
14564TIP3   OH265106   6.023   1.336   3.559 -0.7244  0.1842 -0.6759
14564TIP3    H165107   5.986   1.282   3.628 -0.9603  0.2932 -0.7142
14564TIP3    H265108   6.054   1.274   3.493 -0.2400  0.0720 -0.3435
14565TIP3   OH265109   0.525   6.683  14.176  0.3199  0.5698 -0.0355
14565TIP3    H165110   0.502   6.772  14.202  2.1859  0.7505  1.1870
14565TIP3    H265111   0.590   6.694  14.107  0.3026  0.1569 -0.1201
14566TIP3   OH265112   3.358   5.816  17.241  0.4046  0.3263  0.4254
14566TIP3    H165113   3.291   5.795  17.177 -2.1656 -1.4058  3.3881
14566TIP3    H265114   3.347   5.909  17.260  0.6254  0.6444 -0.9471
14567TIP3   OH265115   2.020   3.739  11.644  0.1059 -0.2506 -0.8304
14567TIP3    H165116   2.108   3.702  11.647 -0.0662 -0.7071 -1.3436
14567TIP3    H265117   2.033   3.828  11.612  0.2945 -0.6215 -1.8275
14568TIP3   OH265118   0.193   3.928   1.331 -0.7346  0.2063  0.1275
14568TIP3    H165119   0.171   4.017   1.306 -2.2589 -0.1714 -0.0288
14568TIP3    H265120   0.153   3.873   1.263 -0.1953 -0.6034  0.4459
14569TIP3   OH265121   3.087   1.700   3.055 -0.6052  0.2351 -0.0566
14569TIP3    H165122   3.098   1.638   2.982 -3.8511 -1.4329  0.6527
14569TIP3    H265123   3.155   1.676   3.118 -0.4709 -1.2177 -0.7099
14570TIP3   OH265124   3.943   4.972  14.374 -0.5037  0.0655  0.0434
14570TIP3    H165125   3.878   4.935  14.434  0.3133 -0.3614  0.6764
14570TIP3    H265126   3.896   4.980  14.291 -0.6527 -2.7669 -0.2493
14571TIP3   OH265127   1.932   3.085   2.887 -0.7117 -0.0765 -0.6156
14571TIP3    H165128   1.866   3.151   2.865 -0.4348 -0.0686 -1.4705
14571TIP3    H265129   1.917   3.015   2.824 -0.8312 -0.7124  0.1185
14572TIP3   OH265130   2.311   0.121  13.680  0.5567 -0.1900 -0.0400
14572TIP3    H165131   2.226   0.108  13.637  0.7135 -1.3053 -0.0402
14572TIP3    H265132   2.316   0.216  13.695 -1.8532 -0.3389  2.3784
14573TIP3   OH265133   0.969   3.811  11.286  0.4508  0.3953  0.1295
14573TIP3    H165134   1.019   3.798  11.206  0.8670  0.8545  0.3102
14573TIP3    H265135   0.916   3.889  11.270 -0.1934 -0.0674 -0.0474
14574TIP3   OH265136   5.233   4.279  16.291 -0.0606  0.1587  0.5711
14574TIP3    H165137   5.246   4.361  16.339  1.0533  0.4328 -0.1528
14574TIP3    H265138   5.253   4.211  16.355  0.4011  0.4948  0.7980
14575TIP3   OH265139   2.348   1.827   1.414 -0.1400  0.4572  0.3899
14575TIP3    H165140   2.326   1.777   1.493  0.0991  0.3885  0.4120
14575TIP3    H265141   2.270   1.819   1.359 -0.5639  1.0291  0.8809
14576TIP3   OH265142   4.565   0.915  14.874 -0.0624 -0.0795  0.0976
14576TIP3    H165143   4.603   1.000  14.897 -0.3141 -0.0278  0.3164
14576TIP3    H265144   4.492   0.904  14.934  1.1343 -1.3403  1.3929
14577TIP3   OH265145   2.236   5.116  16.326 -0.0301 -0.2660  0.1910
14577TIP3    H165146   2.163   5.153  16.276 -0.4826 -0.5299  0.6506
14577TIP3    H265147   2.246   5.174  16.401  0.3103 -0.1641  0.0666
14578TIP3   OH265148   4.139   6.281   0.177  0.0010  0.1964  0.7068
14578TIP3    H165149   4.062   6.330   0.147  0.0087 -0.2240 -0.0196
14578TIP3    H265150   4.105   6.223   0.246 -0.3875 -0.1534  0.2293
14579TIP3   OH265151   6.449   1.684   0.923 -0.1728  0.6000  0.3271
14579TIP3    H165152   6.354   1.695   0.916 -0.4090 -1.4528 -0.4437
14579TIP3    H265153   6.460   1.611   0.983  0.9897  1.3313  1.0443
14580TIP3   OH265154   2.331   2.412  16.044 -0.1044 -0.1096  0.4285
14580TIP3    H165155   2.406   2.368  16.084  0.0281  0.0781  0.3855
14580TIP3    H265156   2.279   2.340  16.007  1.0150 -0.1313 -1.2195
14581TIP3   OH265157   3.876   3.980  12.220  0.4531 -0.1574  0.1669
14581TIP3    H165158   3.838   3.916  12.281  0.9261 -0.4521  0.1642
14581TIP3    H265159   3.918   4.044  12.276  0.1309  0.0540  0.1664
14582TIP3   OH265160   5.211   6.006   5.328 -0.2262  0.2373 -0.2375
14582TIP3    H165161   5.186   5.915   5.310  0.1961 -0.0925  0.8026
14582TIP3    H265162   5.306   6.006   5.323 -0.2629  0.8538 -1.2289
14583TIP3   OH265163   1.265   6.513   3.987 -0.2756 -0.4614 -0.6449
14583TIP3    H165164   1.255   6.608   3.985 -0.9723 -0.5067  0.1197
14583TIP3    H265165   1.219   6.485   4.067  0.7299 -1.3464 -0.3452
14584TIP3   OH265166   4.264   6.364  14.913 -0.1707  0.1334 -0.3031
14584TIP3    H165167   4.267   6.274  14.881 -1.3056 -0.5587  1.3753
14584TIP3    H265168   4.348   6.377  14.958 -0.1216 -0.2005 -0.2994
14585TIP3   OH265169   1.014   4.062   4.555  0.3468  0.2776 -0.6374
14585TIP3    H165170   1.009   4.086   4.647 -0.2693 -0.8670 -0.3591
14585TIP3    H265171   0.922   4.061   4.525  0.5676  1.1512 -1.4133
14586TIP3   OH265172   1.813   2.503  13.130 -0.5073  0.5521  0.0456
14586TIP3    H165173   1.730   2.518  13.085 -1.2355 -1.4703  0.6217
14586TIP3    H265174   1.841   2.417  13.099  0.4079  0.3722  1.3184
14587TIP3   OH265175   4.050   2.498  15.936 -0.2099 -0.0787 -0.4053
14587TIP3    H165176   4.016   2.487  15.847 -0.5088 -0.3216 -0.2625
14587TIP3    H265177   3.975   2.482  15.993  0.1761 -0.7924 -0.0830
14588TIP3   OH265178   2.820   4.296  14.074  0.2189 -0.0635 -0.0190
14588TIP3    H165179   2.903   4.296  14.123 -0.8179 -0.2710  1.8136
14588TIP3    H265180   2.761   4.348  14.127 -2.3710 -4.1493  1.5564
14589TIP3   OH265181   2.919   2.371  11.131  0.5801  0.2697 -0.5308
14589TIP3    H165182   2.884   2.312  11.198 -0.4620  1.4399 -0.0174
14589TIP3    H265183   3.013   2.352  11.130  0.9111  1.2642  2.3647
14590TIP3   OH265184   6.579   4.582  16.846  0.0701 -0.5036  0.1133
14590TIP3    H165185   6.494   4.626  16.852 -0.8675 -1.8968 -1.7350
14590TIP3    H265186   6.558   4.489  16.852  1.1787 -0.9771 -2.1268
14591TIP3   OH265187   6.692   1.192  17.078  0.0981 -0.0306 -0.3216
14591TIP3    H165188   6.613   1.215  17.126 -0.9026  0.3957 -2.0989
14591TIP3    H265189   6.706   1.265  17.018  0.7096 -0.9882 -1.3930
14592TIP3   OH265190   2.332   3.320   2.124  0.0037 -0.3488 -0.2667
14592TIP3    H165191   2.300   3.370   2.199 -2.5672  0.4891 -1.7915
14592TIP3    H265192   2.261   3.258   2.105  2.1918 -3.2091  0.2407
14593TIP3   OH265193   3.736   4.694   6.438  0.1640 -0.5691  0.4132
14593TIP3    H165194   3.656   4.648   6.464  0.1244 -1.0680 -0.5212
14593TIP3    H265195   3.791   4.626   6.398 -0.0460  0.2252 -1.3275
14594TIP3   OH265196   6.247   2.399  13.078 -0.3222 -0.6591 -0.4290
14594TIP3    H165197   6.153   2.401  13.096 -0.6326  2.3607 -1.8582
14594TIP3    H265198   6.287   2.435  13.157 -0.6178  0.4510 -0.7673
14595TIP3   OH265199   5.291   0.434  11.660  0.4906  0.0927 -0.2229
14595TIP3    H165200   5.241   0.392  11.729  0.4689  1.3034  0.5295
14595TIP3    H265201   5.365   0.374  11.644 -0.8011 -1.3813 -0.8912
14596TIP3   OH265202   0.412   0.914   0.859 -0.2068 -0.3106 -0.1292
14596TIP3    H165203   0.505   0.929   0.842 -0.0948  0.4058  0.9933
14596TIP3    H265204   0.401   0.820   0.850  0.4329 -0.2945 -1.1791
14597TIP3   OH265205   5.634   1.047   2.342  0.0271 -0.2533 -0.1825
14597TIP3    H165206   5.548   1.088   2.334  0.0908 -0.0435  0.1865
14597TIP3    H265207   5.697   1.116   2.322  0.0996 -0.5835 -1.1481
14598TIP3   OH265208   0.297   0.719  13.706 -0.3329  0.0330  0.1665
14598TIP3    H165209   0.302   0.721  13.610  0.0413  0.9035  0.1927
14598TIP3    H265210   0.203   0.721  13.725 -0.4018  0.3165 -0.1820
14599TIP3   OH265211   2.113   1.263   4.521 -0.2946 -0.5242  0.7009
14599TIP3    H165212   2.173   1.191   4.502  0.9856 -0.1650  3.0671
14599TIP3    H265213   2.168   1.342   4.515 -1.1667  0.0798  0.3461
14600TIP3   OH265214   4.387   0.131   0.788 -0.3032 -0.1796  0.0083
14600TIP3    H165215   4.458   0.149   0.850  0.3099 -0.2215 -0.6691
14600TIP3    H265216   4.366   0.039   0.801  0.6111 -0.4908 -0.6298
14601TIP3   OH265217   6.271   3.045   1.204 -0.5480  0.3075 -0.1717
14601TIP3    H165218   6.255   2.985   1.277 -2.4742  0.5690 -0.3280
14601TIP3    H265219   6.255   3.132   1.239  2.4300  0.8370  0.0995
14602TIP3   OH265220   2.025   0.947  12.360  0.5973 -0.2213  0.4471
14602TIP3    H165221   2.068   1.020  12.316  0.1307 -0.2579 -0.0842
14602TIP3    H265222   2.091   0.913  12.421  0.2194  1.8284  2.1284
14603TIP3   OH265223   1.962   5.530   4.935  0.1260  0.3446 -0.3720
14603TIP3    H165224   1.945   5.444   4.973  1.8884  0.0154 -0.2009
14603TIP3    H265225   1.898   5.587   4.976 -0.3121 -0.6757  0.4242
14604TIP3   OH265226   4.939   0.325   2.377  0.0719 -0.3895  0.1289
14604TIP3    H165227   4.880   0.289   2.310 -0.3006  0.5637 -0.0610
14604TIP3    H265228   4.887   0.390   2.423  1.0452  0.6502 -0.2027
14605TIP3   OH265229   3.744   2.467  14.295  0.5005  0.1704 -0.3251
14605TIP3    H165230   3.651   2.487  14.291  0.2259 -0.6230  1.3478
14605TIP3    H265231   3.782   2.515  14.221 -1.0045  1.6759 -0.1888
14606TIP3   OH265232   5.502   3.553   5.457 -0.3596 -0.3729 -0.0462
14606TIP3    H165233   5.469   3.642   5.442  0.3571 -0.3961 -2.2096
14606TIP3    H265234   5.424   3.497   5.450 -0.8546  0.0808  1.5867
14607TIP3   OH265235   0.979   3.673  14.109  0.0164 -0.4700  0.1083
14607TIP3    H165236   1.067   3.712  14.107 -0.6415  1.1476 -2.6940
14607TIP3    H265237   0.978   3.613  14.033 -1.3837 -0.2261 -0.0914
14608TIP3   OH265238   6.629   5.438  10.708 -0.5266  0.0370 -0.1755
14608TIP3    H165239   6.698   5.461  10.645 -0.0985 -0.3010  0.1617
14608TIP3    H265240   6.640   5.344  10.723 -1.3384 -0.1081 -0.4359
14609TIP3   OH265241   1.819   6.010  11.449 -0.3230 -0.4237 -0.0579
14609TIP3    H165242   1.843   6.011  11.541 -0.6653 -3.7076  0.1790
14609TIP3    H265243   1.894   5.970  11.405 -0.2870  0.8251 -1.2132
14610TIP3   OH265244   0.394   5.703  11.931  0.3950  0.1890  0.7730
14610TIP3    H165245   0.472   5.716  11.877  0.8824 -0.0622  1.4018
14610TIP3    H265246   0.349   5.787  11.929  1.2045  0.6432  1.2113
14611TIP3   OH265247   4.241   5.895  15.186 -0.0972 -0.0577 -0.2556
14611TIP3    H165248   4.323   5.915  15.231 -1.4790  1.6598  1.6980
14611TIP3    H265249   4.213   5.978  15.148 -1.6340 -0.2124  0.4390
14612TIP3   OH265250   5.529   3.982  14.843  0.1215 -0.4291 -0.3872
14612TIP3    H165251   5.523   4.003  14.750 -0.0554  0.2750 -0.2206
14612TIP3    H265252   5.476   4.049  14.886  2.7086  1.2339  0.4722
14613TIP3   OH265253   2.020   4.512  13.918 -0.5895  0.0834  0.5222
14613TIP3    H165254   2.095   4.568  13.939 -1.1667  0.3288  2.0541
14613TIP3    H265255   2.026   4.440  13.980  0.8383 -2.3454 -2.1739
14614TIP3   OH265256   3.794   6.134   2.395  0.0131  0.2118 -0.5651
14614TIP3    H165257   3.818   6.123   2.303  0.9498 -0.4915 -0.2560
14614TIP3    H265258   3.858   6.081   2.443 -1.2574 -0.4930  0.4102
14615TIP3   OH265259   4.429   5.870   0.223 -0.4227  0.5437 -0.0208
14615TIP3    H165260   4.507   5.843   0.271 -0.7688  0.2363  0.3865
14615TIP3    H265261   4.356   5.845   0.281 -0.8048  1.1443 -0.2319
14616TIP3   OH265262   2.741   2.666   0.318  0.3339 -0.0661 -0.1102
14616TIP3    H165263   2.738   2.761   0.330 -1.7442 -0.1600  0.4607
14616TIP3    H265264   2.768   2.631   0.403  0.1687 -0.0390 -0.0477
14617TIP3   OH265265   1.831   5.983  12.041 -0.2116 -0.1512  0.2755
14617TIP3    H165266   1.823   6.071  12.079  1.5344  0.8678 -1.5306
14617TIP3    H265267   1.925   5.963  12.047  0.4441  0.5227 -4.1499
14618TIP3   OH265268   3.613   4.453  15.668 -0.4423  0.5400 -0.1096
14618TIP3    H165269   3.606   4.466  15.573  1.4211  0.8680 -0.2353
14618TIP3    H265270   3.549   4.513  15.705 -1.8906 -0.2642 -1.1590
14619TIP3   OH265271   4.446   0.927  14.637  0.1491 -0.6600 -0.6960
14619TIP3    H165272   4.504   0.920  14.713  0.1852 -1.6624 -0.8054
14619TIP3    H265273   4.380   0.991  14.663 -0.5392 -1.8714  0.6426
14620TIP3   OH265274   4.094   6.438  12.990 -0.5602 -0.0743 -0.4279
14620TIP3    H165275   4.004   6.427  13.020 -0.8922  1.7472 -0.6315
14620TIP3    H265276   4.142   6.366  13.031 -1.8128 -0.1929  0.9129
14621TIP3   OH265277   4.361   1.447  11.521 -0.0228 -0.3805  0.3682
14621TIP3    H165278   4.360   1.542  11.511 -1.3385 -0.1505  2.0727
14621TIP3    H265279   4.434   1.430  11.581  1.2341 -0.6460 -1.1909
14622TIP3   OH265280   5.453   0.307  10.547 -0.7374  0.2010  0.2202
14622TIP3    H165281   5.526   0.353  10.507 -0.3244 -0.0931  0.6352
14622TIP3    H265282   5.389   0.298  10.476  0.1594 -0.6808 -0.5020
14623TIP3   OH265283   4.258   0.749   2.392  0.1185  0.1282  0.0810
14623TIP3    H165284   4.309   0.761   2.311  0.6951  0.7359  0.5210
14623TIP3    H265285   4.188   0.688   2.367  0.5091  0.0054 -0.7781
14624TIP3   OH265286   0.553   1.180  10.631  0.6512  0.5354 -0.3795
14624TIP3    H165287   0.597   1.234  10.698  2.0312 -0.0737 -0.7504
14624TIP3    H265288   0.469   1.223  10.617  1.2356  1.9346  0.1704
14625TIP3   OH265289   5.577   0.144  13.829  0.0326 -0.3364 -0.7957
14625TIP3    H165290   5.493   0.112  13.860 -0.5160  0.3755 -1.5075
14625TIP3    H265291   5.613   0.193  13.904 -1.3023  1.4108 -1.2281
14626TIP3   OH265292   1.495   6.446  11.167 -0.0457 -0.8396  0.2631
14626TIP3    H165293   1.452   6.525  11.135  0.2754 -0.8881 -0.2894
14626TIP3    H265294   1.435   6.411  11.233  0.1491  0.2781  1.0629
14627TIP3   OH265295   2.836   3.257  10.410 -0.1708  0.1588 -0.1301
14627TIP3    H165296   2.811   3.258  10.318 -1.4498  0.4219  0.1940
14627TIP3    H265297   2.819   3.346  10.440  0.2907  0.0890  0.3548
14628TIP3   OH265298   0.066   2.900  15.002 -0.0024 -0.0780  0.3328
14628TIP3    H165299   0.037   2.827  14.946 -0.7026  0.6430 -0.2710
14628TIP3    H265300   0.058   2.866  15.091 -0.0980 -0.8150  0.0533
14629TIP3   OH265301   4.661   3.945  14.323  0.7497 -0.3909 -0.1222
14629TIP3    H165302   4.627   4.006  14.258 -0.6918 -1.1097 -0.0799
14629TIP3    H265303   4.730   3.897  14.278 -0.2578 -0.9136 -1.1465
14630TIP3   OH265304   5.053   4.142   2.861 -0.3101  0.1627  0.1666
14630TIP3    H165305   5.019   4.232   2.865  4.3600  2.2117  1.0417
14630TIP3    H265306   5.089   4.135   2.772  0.5637 -0.2377  0.5378
14631TIP3   OH265307   5.267   6.668  13.506 -0.0836  0.1556  0.5685
14631TIP3    H165308   5.362   6.656  13.506  0.1839  1.8455 -1.4373
14631TIP3    H265309   5.254   6.759  13.530 -0.9483  0.9491 -2.5081
14632TIP3   OH265310   2.307   2.645  11.356 -0.4653 -0.2476 -0.3003
14632TIP3    H165311   2.347   2.609  11.276 -1.7681  1.9083 -2.0536
14632TIP3    H265312   2.381   2.673  11.410  0.4425 -0.2428 -1.5072
14633TIP3   OH265313   1.494   2.309   5.478  0.3706 -0.0544  0.3220
14633TIP3    H165314   1.490   2.237   5.416  0.7017 -0.9214  1.2803
14633TIP3    H265315   1.533   2.381   5.429 -1.7642  0.1343 -1.2554
14634TIP3   OH265316   0.347   6.163   2.363 -0.2827 -0.2970  0.5434
14634TIP3    H165317   0.348   6.233   2.429 -0.4776  1.3945 -1.1643
14634TIP3    H265318   0.259   6.166   2.327  0.5622  0.6590 -1.6172
14635TIP3   OH265319   0.222   5.613  12.798 -0.5658 -0.3106 -0.2526
14635TIP3    H165320   0.204   5.562  12.877 -3.3743  1.6955  0.5443
14635TIP3    H265321   0.186   5.700  12.816  2.3872  1.4996 -2.2439
14636TIP3   OH265322   5.884   1.443   4.490  0.1367 -0.4658 -0.0603
14636TIP3    H165323   5.859   1.536   4.484  3.5658  0.5682 -0.1636
14636TIP3    H265324   5.902   1.417   4.400  2.0954 -0.2748  0.2427
14637TIP3   OH265325   2.044   4.326   5.503 -0.0017  0.0833  0.7978
14637TIP3    H165326   2.130   4.291   5.479  0.5252  2.2130 -0.7053
14637TIP3    H265327   1.982   4.258   5.474  1.0735 -0.7523  0.3580
14638TIP3   OH265328   4.923   0.041   0.935  0.2657  0.0610 -0.4785
14638TIP3    H165329   4.886   0.126   0.960  1.7981  0.9884 -1.1944
14638TIP3    H265330   4.898   0.030   0.844 -2.3972 -1.6942  0.3566
14639TIP3   OH265331   3.829   5.771  15.474 -0.4029  0.6661 -0.1662
14639TIP3    H165332   3.770   5.771  15.399 -0.3530  1.2580 -0.2160
14639TIP3    H265333   3.868   5.859  15.473  0.3420  0.3448 -0.0325
14640TIP3   OH265334   3.565   2.947  13.486 -0.1454  0.0210 -0.0293
14640TIP3    H165335   3.587   3.040  13.489  0.1333 -0.0228 -0.6188
14640TIP3    H265336   3.528   2.934  13.399  0.6191 -0.5912 -0.2715
14641TIP3   OH265337   2.374   6.577  11.685  0.9997  0.2867 -0.0993
14641TIP3    H165338   2.369   6.555  11.592 -0.5726 -0.7593  0.2012
14641TIP3    H265339   2.395   6.671  11.685  0.6670  0.3992 -1.5169
14642TIP3   OH265340   0.774   5.637   5.110 -0.8143 -0.3641 -0.2573
14642TIP3    H165341   0.754   5.731   5.117  0.9644  0.0474 -0.1564
14642TIP3    H265342   0.778   5.607   5.201  0.2451 -0.1343 -0.2125
14643TIP3   OH265343   5.683   5.353  11.389 -0.0131 -0.4064 -1.0038
14643TIP3    H165344   5.646   5.389  11.309 -0.4489 -3.1490 -2.1251
14643TIP3    H265345   5.627   5.388  11.459 -0.5085  0.8739 -1.9958
14644TIP3   OH265346   0.880   0.762  11.725  1.0429 -0.4127  0.4375
14644TIP3    H165347   0.940   0.830  11.758 -0.2126 -0.1893  2.4339
14644TIP3    H265348   0.798   0.808  11.710  1.1931 -0.8079 -1.8455
14645TIP3   OH265349   4.388   0.372   0.245  0.2451  0.2636  0.3227
14645TIP3    H165350   4.473   0.328   0.238  0.8459  1.6460 -2.0122
14645TIP3    H265351   4.367   0.369   0.339  3.7295  1.4447  1.2745
14646TIP3   OH265352   1.487   3.749  15.566 -0.2224  0.1191 -0.1623
14646TIP3    H165353   1.505   3.818  15.501  0.5265  2.8682  2.7449
14646TIP3    H265354   1.561   3.690  15.559  0.0188  0.5256 -1.5400
14647TIP3   OH265355   5.367   4.735   4.120 -0.1197 -0.0427 -0.5833
14647TIP3    H165356   5.369   4.728   4.025 -1.6006 -0.9194 -0.5766
14647TIP3    H265357   5.400   4.650   4.151  1.3431  0.6067 -0.2824
14648TIP3   OH265358   3.648   1.337  12.459  0.1781  0.0587  0.3600
14648TIP3    H165359   3.665   1.344  12.553  0.7340  0.3818  0.2368
14648TIP3    H265360   3.734   1.329  12.420  0.0760  1.7584 -0.2840
14649TIP3   OH265361   1.463   1.657   2.916  0.1872  0.0583  0.0823
14649TIP3    H165362   1.507   1.716   2.978  1.3182 -1.2112  0.5377
14649TIP3    H265363   1.464   1.572   2.959 -2.8329 -0.0494  0.1267
14650TIP3   OH265364   2.880   5.613  11.345  0.4197  0.1817 -0.2500
14650TIP3    H165365   2.949   5.557  11.310  0.3436 -0.3260  0.4089
14650TIP3    H265366   2.860   5.577  11.431 -0.1695  0.7562 -0.1351
14651TIP3   OH265367   2.212   4.818   6.703  0.1531  0.2754  0.2830
14651TIP3    H165368   2.155   4.867   6.763  1.5101  0.9559  1.0626
14651TIP3    H265369   2.298   4.818   6.745  0.9130 -0.1439 -1.1794
14652TIP3   OH265370   6.004   6.608  11.815  0.2817 -0.3246  0.1120
14652TIP3    H165371   6.094   6.575  11.815 -0.0729 -1.3375  0.1352
14652TIP3    H265372   5.951   6.530  11.799 -0.5204  0.4872 -1.2997
14653TIP3   OH265373   2.503   4.506   3.856  0.2014  0.0196 -0.2154
14653TIP3    H165374   2.418   4.513   3.814  1.5034 -0.5025 -3.2504
14653TIP3    H265375   2.514   4.413   3.876  0.3352 -0.0254 -0.4938
14654TIP3   OH265376   0.761   3.122  10.918 -0.1596 -0.4622  0.1665
14654TIP3    H165377   0.849   3.154  10.897  0.5083 -1.8775  0.6797
14654TIP3    H265378   0.735   3.172  10.995  0.5190 -0.5794  0.4770
14655TIP3   OH265379   4.146   1.301   3.725  0.4506 -0.0516  0.6667
14655TIP3    H165380   4.082   1.330   3.790  1.2186  1.5989  0.7409
14655TIP3    H265381   4.160   1.377   3.669  2.3845 -0.3304  0.6863
14656TIP3   OH265382   2.814   0.646   2.658  0.7953  0.0760 -0.0955
14656TIP3    H165383   2.772   0.609   2.736  2.1102 -0.7327  0.2574
14656TIP3    H265384   2.842   0.733   2.685  0.0295  0.3302 -0.1031
14657TIP3   OH265385   4.122   5.425  14.683  0.4953  0.2309 -0.3078
14657TIP3    H165386   4.089   5.491  14.744  0.9005  3.4865 -3.3329
14657TIP3    H265387   4.048   5.364  14.671  0.1099 -0.0233  2.5556
14658TIP3   OH265388   6.196   3.391  10.963 -0.1588  0.1872 -0.4174
14658TIP3    H165389   6.139   3.435  10.900  0.3213 -1.0709 -1.7800
14658TIP3    H265390   6.283   3.425  10.946 -0.0859  0.1371 -0.1524
14659TIP3   OH265391   6.490   5.430   5.931 -0.4219  0.4617  0.0956
14659TIP3    H165392   6.472   5.356   5.872  1.0649  0.0355  0.1347
14659TIP3    H265393   6.581   5.453   5.912 -0.0486  0.5960  1.9285
14660TIP3   OH265394   6.735   1.886  13.533 -0.5516 -0.0732 -0.6762
14660TIP3    H165395   6.775   1.942  13.465  0.5799 -0.4233 -0.3126
14660TIP3    H265396   6.726   1.943  13.609  1.1360 -0.5089 -0.1212
14661TIP3   OH265397   3.955   1.437  16.361  0.0533  0.1546  0.2634
14661TIP3    H165398   3.994   1.465  16.444  0.5725 -0.9083  0.3857
14661TIP3    H265399   4.029   1.409  16.308 -0.1136  2.1405 -1.1208
14662TIP3   OH265400   2.843   6.112   4.707 -0.3318  0.0313 -0.2943
14662TIP3    H165401   2.925   6.147   4.672  0.7063 -1.5364  0.4472
14662TIP3    H265402   2.862   6.098   4.800 -1.4772 -0.3079 -0.1064
14663TIP3   OH265403   0.945   6.736   0.489  0.1464  0.4014 -0.1117
14663TIP3    H165404   0.897   6.806   0.445 -2.4545  1.2961  3.6275
14663TIP3    H265405   0.883   6.664   0.495  1.3779 -0.7158 -0.2634
14664TIP3   OH265406   0.597   5.681  13.922  0.3403 -0.4644  0.0951
14664TIP3    H165407   0.643   5.664  13.840 -2.0450 -0.4606 -1.3282
14664TIP3    H265408   0.515   5.723  13.896 -1.6368 -2.6578  2.2493
14665TIP3   OH265409   0.527   3.569  16.038 -0.0053  0.3957  0.1936
14665TIP3    H165410   0.517   3.610  15.952 -1.9927 -0.6624 -0.1350
14665TIP3    H265411   0.489   3.633  16.099  0.2378  0.5903  0.1464
14666TIP3   OH265412   1.649   1.674  12.346 -0.0278  0.3232 -0.1335
14666TIP3    H165413   1.663   1.754  12.295  0.0033  0.5377  0.2104
14666TIP3    H265414   1.606   1.704  12.426 -2.1264 -0.2569 -0.9719
14667TIP3   OH265415   3.133   4.734  11.494  0.1080  0.0472 -0.5492
14667TIP3    H165416   3.218   4.736  11.537  1.6728  1.0288 -3.3723
14667TIP3    H265417   3.154   4.726  11.401 -2.7928  2.2067 -1.5421
14668TIP3   OH265418   1.426   6.422   1.861  0.5037  0.3929  0.0558
14668TIP3    H165419   1.464   6.355   1.803  1.3331  0.5759  0.3695
14668TIP3    H265420   1.335   6.430   1.832  0.4720 -0.6544 -0.1833
14669TIP3   OH265421   1.798   4.055  13.047  0.2954 -0.1527 -0.3858
14669TIP3    H165422   1.708   4.079  13.069  0.4795 -0.2095  0.4507
14669TIP3    H265423   1.824   3.994  13.116  0.6581 -0.8788 -1.1473
14670TIP3   OH265424   4.359   3.987   1.729  0.1854 -0.6202  0.1157
14670TIP3    H165425   4.444   3.968   1.689  0.6359  0.7823  0.3417
14670TIP3    H265426   4.295   3.958   1.664  0.8961  1.1211 -1.4387
14671TIP3   OH265427   5.611   0.151  11.309 -0.7138  0.1896  0.6116
14671TIP3    H165428   5.608   0.073  11.254 -0.5438  1.5471 -1.4683
14671TIP3    H265429   5.693   0.143  11.357  0.3157  0.0236 -1.1027
14672TIP3   OH265430   4.207   1.809  15.615  1.2766 -0.5740  0.2103
14672TIP3    H165431   4.271   1.741  15.638  1.1168 -1.3538 -1.5200
14672TIP3    H265432   4.133   1.792  15.673  1.5082 -1.4644  0.2661
14673TIP3   OH265433   6.027   2.295  15.219  0.1684 -0.2613  0.5373
14673TIP3    H165434   6.110   2.342  15.230  2.1073 -3.4859  1.0021
14673TIP3    H265435   6.047   2.227  15.155 -2.6493 -0.1985 -0.5410
14674TIP3   OH265436   0.981   4.269   2.253  0.3003 -0.4456 -0.2833
14674TIP3    H165437   1.019   4.310   2.331 -0.5077  0.1177 -0.1798
14674TIP3    H265438   1.029   4.186   2.244  0.1610 -0.6844  1.0155
14675TIP3   OH265439   1.816   0.178  16.757  0.5869 -0.3340 -0.0467
14675TIP3    H165440   1.884   0.226  16.710  0.4285  0.7229  0.7855
14675TIP3    H265441   1.816   0.091  16.715  1.4137  0.1189 -1.0406
14676TIP3   OH265442   6.499   0.821  14.189  0.7314  0.0494  0.0170
14676TIP3    H165443   6.521   0.891  14.127 -0.2199  1.5928  1.3245
14676TIP3    H265444   6.517   0.860  14.275 -0.0869 -1.2236  0.7941
14677TIP3   OH265445   1.997   6.495   5.825 -0.0731 -0.0298  0.4365
14677TIP3    H165446   2.047   6.577   5.833 -0.2318  0.0436  0.6690
14677TIP3    H265447   2.013   6.449   5.907 -2.4884  1.1711  1.6892
14678TIP3   OH265448   0.816   4.910  17.022  0.5591  0.3981  0.5470
14678TIP3    H165449   0.836   4.849  17.094 -0.4125 -0.8730 -0.2261
14678TIP3    H265450   0.731   4.881  16.989  1.6222 -0.0153 -2.0903
14679TIP3   OH265451   4.594   2.345   0.411  0.3455 -0.2476  0.5603
14679TIP3    H165452   4.597   2.437   0.439  0.4562 -1.1844  3.9738
14679TIP3    H265453   4.505   2.332   0.381  0.7715  1.3358 -1.7074
14680TIP3   OH265454   3.257   4.132   5.891  0.1964  0.3322 -0.0353
14680TIP3    H165455   3.241   4.165   5.979 -0.5107 -0.8370  0.3065
14680TIP3    H265456   3.350   4.110   5.889  0.4244  1.2839  0.0893
14681TIP3   OH265457   5.933   3.818   5.722 -0.3016 -0.2423  0.4367
14681TIP3    H165458   5.925   3.892   5.662  0.2705 -0.4860  0.0470
14681TIP3    H265459   5.991   3.850   5.791 -0.6906 -0.0713  0.6864
14682TIP3   OH265460   5.848   0.152  14.527  0.2012  0.2115  0.0506
14682TIP3    H165461   5.930   0.162  14.575  0.4580 -0.1801 -0.3108
14682TIP3    H265462   5.843   0.059  14.507  0.3878  0.4593 -1.2049
14683TIP3   OH265463   0.999   6.762  11.120 -0.1393  0.8380  0.0985
14683TIP3    H165464   1.057   6.781  11.193 -2.1301  4.0903  1.0364
14683TIP3    H265465   0.924   6.717  11.160  0.5790 -1.2762 -0.7457
14684TIP3   OH265466   4.840   2.458  16.970  0.1651  0.5579 -0.0568
14684TIP3    H165467   4.926   2.434  16.934  0.1837 -0.3658  0.5843
14684TIP3    H265468   4.811   2.380  17.018 -1.5637  0.4183 -1.2310
14685TIP3   OH265469   5.980   0.806  17.069  0.2130  0.0025 -0.5253
14685TIP3    H165470   6.062   0.827  17.113 -0.8258  0.4151  1.3207
14685TIP3    H265471   5.939   0.891  17.053 -0.1073 -0.2237 -0.9159
14686TIP3   OH265472   6.457   4.887   2.529  0.2001  0.6989 -0.0682
14686TIP3    H165473   6.498   4.943   2.595 -1.1875 -0.7756  2.2021
14686TIP3    H265474   6.463   4.799   2.567 -0.5900 -0.2314 -1.9965
14687TIP3   OH265475   0.291   2.227  12.179  0.5823  0.6936 -0.2196
14687TIP3    H165476   0.373   2.236  12.131  0.6795  0.6527 -0.0612
14687TIP3    H265477   0.312   2.252  12.269  0.4006  0.7709 -0.1968
14688TIP3   OH265478   2.168   0.367   2.480  0.4205 -0.6319 -0.1316
14688TIP3    H165479   2.190   0.279   2.452  1.8404 -0.2133 -0.4179
14688TIP3    H265480   2.248   0.401   2.521  0.8186  1.4348 -2.3808
14689TIP3   OH265481   5.531   5.034  15.905 -0.4053  0.6432  0.0473
14689TIP3    H165482   5.538   5.063  15.814 -0.9463 -1.9216 -0.8849
14689TIP3    H265483   5.620   5.043  15.939  0.1207  0.3211 -1.1691
14690TIP3   OH265484   4.779   5.428   2.814 -0.3190  0.0012 -0.1313
14690TIP3    H165485   4.821   5.490   2.874  0.9117 -1.0658  0.1740
14690TIP3    H265486   4.788   5.467   2.728  1.6091 -0.2947 -0.1125
14691TIP3   OH265487   6.679   2.812  16.228 -0.2923 -0.2285  0.2898
14691TIP3    H165488   6.655   2.724  16.199  0.4956  0.4516 -2.7323
14691TIP3    H265489   6.621   2.829  16.303  0.0965 -3.5625  1.5072
14692TIP3   OH265490   1.301   3.805   4.501  0.0476  0.4972  0.2247
14692TIP3    H165491   1.235   3.736   4.498  1.2542 -0.6952 -0.8842
14692TIP3    H265492   1.327   3.811   4.593 -0.0950 -0.5474  0.3449
14693TIP3   OH265493   4.849   2.844   2.664  0.1081  0.5641 -0.4386
14693TIP3    H165494   4.756   2.865   2.669  0.1023  0.4555 -0.0636
14693TIP3    H265495   4.856   2.779   2.593 -0.2322 -0.1368  0.1632
14694TIP3   OH265496   1.839   4.254  12.573 -0.2391 -0.1554 -0.1121
14694TIP3    H165497   1.850   4.166  12.609  1.4685  0.6015  1.4151
14694TIP3    H265498   1.763   4.290  12.619  1.6996  0.6707  2.7002
14695TIP3   OH265499   5.404   5.008   6.190 -0.3131  0.6371 -0.6848
14695TIP3    H165500   5.333   4.977   6.245  0.9612  0.0572  0.6885
14695TIP3    H265501   5.446   5.078   6.241  1.7997 -0.9067 -0.1849
14696TIP3   OH265502   2.052   0.159   4.906  1.1086 -0.3347  0.2383
14696TIP3    H165503   1.979   0.212   4.875  1.2788  0.0409  0.4738
14696TIP3    H265504   2.059   0.088   4.842  0.1743 -0.7018  0.5261
14697TIP3   OH265505   5.456   3.449  11.165  0.0003 -0.0074  0.0487
14697TIP3    H165506   5.477   3.378  11.104  0.9069  0.2724  0.0187
14697TIP3    H265507   5.491   3.528  11.123  1.1927  0.1017  1.2094
14698TIP3   OH265508   3.962   0.681   3.742  0.6694 -0.5091  0.1042
14698TIP3    H165509   3.943   0.649   3.830 -1.9545  0.1927 -0.1159
14698TIP3    H265510   3.939   0.774   3.745 -0.4134 -0.6915 -1.5503
14699TIP3   OH265511   0.558   0.876  17.038 -0.0422 -0.5742 -0.5582
14699TIP3    H165512   0.478   0.824  17.025  0.1934 -1.2121  0.4379
14699TIP3    H265513   0.544   0.921  17.121 -0.2726  1.0589 -1.4429
14700TIP3   OH265514   2.049   2.730  11.269  0.1070  0.3151 -0.3359
14700TIP3    H165515   2.132   2.702  11.307  0.9823  2.0555 -0.8142
14700TIP3    H265516   1.995   2.754  11.344  1.3610  2.5186 -0.0242
14701TIP3   OH265517   0.793   2.493  15.408 -0.6130 -0.2592 -0.0954
14701TIP3    H165518   0.743   2.548  15.468  1.7206  1.9934 -0.0242
14701TIP3    H265519   0.729   2.432  15.371 -2.5255 -0.3694  3.0786
14702TIP3   OH265520   2.954   5.396   2.008  0.4079  0.2525  0.0175
14702TIP3    H165521   2.862   5.372   2.000  0.6656 -1.3542  1.2815
14702TIP3    H265522   2.955   5.466   2.073  0.1889 -0.8334  1.2307
14703TIP3   OH265523   1.118   3.469   1.128  0.2833  0.1077 -0.1349
14703TIP3    H165524   1.177   3.396   1.147  1.6185  0.9198 -1.0205
14703TIP3    H265525   1.030   3.431   1.135  0.8673 -1.0755  1.4513
14704TIP3   OH265526   4.949   6.205  16.542  1.0309 -0.4061  0.1369
14704TIP3    H165527   5.001   6.207  16.623  1.6122  1.6888 -0.2159
14704TIP3    H265528   4.882   6.272  16.555  0.2506 -1.0318 -0.5755
14705TIP3   OH265529   5.670   5.281   6.010  0.4043 -0.1164  0.1885
14705TIP3    H165530   5.725   5.296   6.086  1.7100  1.1507 -0.9395
14705TIP3    H265531   5.606   5.353   6.013 -0.0533 -0.5346  0.5178
14706TIP3   OH265532   4.536   6.693  14.083 -0.0288  0.0569 -0.7108
14706TIP3    H165533   4.594   6.651  14.019 -0.9460  0.2249 -1.6951
14706TIP3    H265534   4.492   6.620  14.127  1.0725 -0.0770  0.2043
14707TIP3   OH265535   4.602   5.744   1.783 -0.4587 -0.0782 -0.3806
14707TIP3    H165536   4.668   5.723   1.849 -0.4223 -1.1054 -0.7158
14707TIP3    H265537   4.582   5.836   1.796  0.7983  0.1595 -0.0544
14708TIP3   OH265538   6.015   5.609   6.732  0.5293 -0.1304  0.1341
14708TIP3    H165539   5.979   5.540   6.676  0.4587 -1.2051  1.4777
14708TIP3    H265540   5.938   5.647   6.775  0.7769 -0.8343  1.2085
14709TIP3   OH265541   5.563   3.909   5.794 -0.2540  0.1127 -0.1147
14709TIP3    H165542   5.471   3.889   5.780 -0.6479  3.1716 -3.2475
14709TIP3    H265543   5.563   3.998   5.829  1.4809  0.3138 -0.5290
14710TIP3   OH265544   5.879   4.977   2.044 -0.3442 -0.8039 -0.7766
14710TIP3    H165545   5.844   5.066   2.050 -0.0156 -0.6542 -1.0605
14710TIP3    H265546   5.938   4.979   1.968  0.4308 -0.9988 -0.1872
14711TIP3   OH265547   0.427   5.225   5.906  0.3073  0.7686  0.2653
14711TIP3    H165548   0.399   5.222   5.815 -2.3891  2.6588  0.8794
14711TIP3    H265549   0.522   5.237   5.902  0.5451 -1.2062 -2.1847
14712TIP3   OH265550   3.381   5.221  13.246  0.2861  0.2630 -0.5578
14712TIP3    H165551   3.431   5.303  13.245 -2.5215  2.0964 -0.3063
14712TIP3    H265552   3.340   5.217  13.160  0.3728 -0.9076 -0.5595
14713TIP3   OH265553   3.485   4.024   1.289  0.0088 -0.3311  0.0547
14713TIP3    H165554   3.469   3.934   1.316  0.4316 -0.2130  0.7338
14713TIP3    H265555   3.574   4.043   1.319  0.1199  0.1426 -0.5479
14714TIP3   OH265556   0.439   1.140   2.543 -0.1562 -0.0792 -0.1151
14714TIP3    H165557   0.376   1.181   2.483 -1.7363  0.9338  2.0883
14714TIP3    H265558   0.455   1.053   2.505 -2.0362  0.0559 -1.3627
14715TIP3   OH265559   6.606   4.313   0.595 -0.0482 -0.4543 -0.3359
14715TIP3    H165560   6.588   4.235   0.544  0.6957 -1.8337  1.4177
14715TIP3    H265561   6.648   4.373   0.533 -0.4453 -1.4823 -1.6584
14716TIP3   OH265562   4.317   1.466  10.436  0.0663 -0.2011  0.4850
14716TIP3    H165563   4.283   1.422  10.513  0.5128 -0.3115  0.6186
14716TIP3    H265564   4.388   1.410  10.405 -0.3046 -0.3158 -0.1859
14717TIP3   OH265565   4.171   0.989   4.271  0.1198 -0.3698 -0.0634
14717TIP3    H165566   4.254   1.025   4.242  0.2884 -0.7250 -0.0305
14717TIP3    H265567   4.117   0.988   4.192 -0.7672  2.2849  0.4144
14718TIP3   OH265568   6.433   4.499   5.519 -0.1583  0.3211  0.1223
14718TIP3    H165569   6.509   4.459   5.476  0.5916 -1.7349  3.0709
14718TIP3    H265570   6.359   4.449   5.487 -0.0763  1.0140 -1.2333
14719TIP3   OH265571   0.365   5.266   1.132  0.6108 -0.5581 -0.4323
14719TIP3    H165572   0.401   5.179   1.112 -0.2094 -1.4636  1.7112
14719TIP3    H265573   0.409   5.324   1.070  1.4133 -2.4390 -1.7515
14720TIP3   OH265574   3.689   4.116  14.316  0.6176  0.2451  0.4877
14720TIP3    H165575   3.658   4.162  14.394 -1.3273  0.6838 -0.4785
14720TIP3    H265576   3.764   4.064  14.347  0.2936  0.8779  2.4860
14721TIP3   OH265577   6.744   1.191   4.372  0.3060  0.0027 -0.3724
14721TIP3    H165578   6.670   1.132   4.364  0.0001  0.4700 -1.0814
14721TIP3    H265579   6.782   1.193   4.284  0.6601  0.4096 -0.2112
14722TIP3   OH265580   4.508   1.615  14.788 -0.4009 -0.1539  0.3043
14722TIP3    H165581   4.542   1.660  14.865  0.7438 -2.5289  1.2746
14722TIP3    H265582   4.546   1.527  14.792 -1.0119 -0.6522 -2.5068
14723TIP3   OH265583   1.235   6.251   0.112  0.3269 -0.3328  0.0206
14723TIP3    H165584   1.233   6.278   0.020  0.4599  0.0416  0.1231
14723TIP3    H265585   1.315   6.291   0.146 -0.0094 -0.0057  0.4349
14724TIP3   OH265586   3.472   3.250   4.915 -0.4319  0.5264 -0.0653
14724TIP3    H165587   3.507   3.328   4.957  2.0495  0.0553 -1.1075
14724TIP3    H265588   3.418   3.283   4.843 -0.1974  1.2715  0.0919
14725TIP3   OH265589   6.011   3.348   2.075 -0.0226 -0.8246  0.1862
14725TIP3    H165590   6.090   3.294   2.081  0.9976  0.5260 -0.5957
14725TIP3    H265591   6.013   3.401   2.154 -0.0496 -0.6644  0.0795
14726TIP3   OH265592   5.638   5.040  11.381  0.4268  0.1272  0.0653
14726TIP3    H165593   5.703   5.110  11.375  0.5298  0.1083  0.8423
14726TIP3    H265594   5.687   4.960  11.360  1.1642 -0.1465  2.5208
14727TIP3   OH265595   4.733   1.171  16.903 -0.3072  0.2792  0.4088
14727TIP3    H165596   4.803   1.118  16.941 -1.9360 -2.9615 -0.7000
14727TIP3    H265597   4.677   1.192  16.977  0.6164  0.9170  0.9464
14728TIP3   OH265598   1.416   3.322  16.464  0.9054 -0.6176  0.0706
14728TIP3    H165599   1.493   3.273  16.434  0.4904  0.3185 -2.7944
14728TIP3    H265600   1.442   3.414  16.458  0.1208 -0.3264  0.8269
14729TIP3   OH265601   0.868   0.024  14.391  0.0903  0.0692  0.1357
14729TIP3    H165602   0.953   0.027  14.435  0.4525 -1.5977 -0.3779
14729TIP3    H265603   0.878  -0.044  14.325 -1.6458 -0.1364  0.0407
14730TIP3   OH265604   2.593   1.168  16.820 -0.2413 -0.2104 -0.0814
14730TIP3    H165605   2.643   1.247  16.798  2.6195 -1.3753  1.6285
14730TIP3    H265606   2.630   1.139  16.903 -2.3505 -2.4605  0.1736
14731TIP3   OH265607   4.451   0.233  11.400 -0.3418 -0.1083 -0.1611
14731TIP3    H165608   4.435   0.286  11.478 -0.1220  0.4521 -0.4897
14731TIP3    H265609   4.507   0.288  11.345  2.3679 -1.7884  0.7302
14732TIP3   OH265610   4.305   1.195  13.741 -0.0755 -0.3014 -0.4227
14732TIP3    H165611   4.375   1.142  13.780  0.1340  0.3375  0.0979
14732TIP3    H265612   4.233   1.189  13.804  0.4768  1.2278  0.3996
14733TIP3   OH265613   3.945   4.040  15.763 -0.2159  0.5265  0.3825
14733TIP3    H165614   3.929   4.061  15.855  0.5145  0.7287  0.4708
14733TIP3    H265615   4.028   3.993  15.763 -0.4414  0.1133 -0.1299
14734TIP3   OH265616   1.383   0.499   1.197 -0.0652 -0.6087  0.5983
14734TIP3    H165617   1.398   0.405   1.199 -0.4683 -0.6726  0.8367
14734TIP3    H265618   1.309   0.513   1.257 -0.1501 -0.1717  0.4008
14735TIP3   OH265619   0.894   3.247  12.639 -0.2217 -0.0593 -0.0851
14735TIP3    H165620   0.910   3.338  12.612  3.7314 -1.2629 -2.8053
14735TIP3    H265621   0.927   3.243  12.729  0.5582  1.0282 -0.2936
14736TIP3   OH265622   5.290   6.421  15.253  0.3043  0.1002 -0.2881
14736TIP3    H165623   5.307   6.498  15.199  0.8182  0.4664  0.3847
14736TIP3    H265624   5.371   6.370  15.249 -0.1158 -0.5293 -0.9233
14737TIP3   OH265625   3.506   4.810  13.932  0.0906 -0.5628 -0.4661
14737TIP3    H165626   3.476   4.879  13.872  0.3994 -1.1135 -1.2755
14737TIP3    H265627   3.593   4.787  13.900 -0.0234 -1.3509 -0.2337
14738TIP3   OH265628   1.070   3.129   0.118  0.4097 -0.1800 -0.0903
14738TIP3    H165629   1.048   3.216   0.082 -1.2128 -1.1787 -1.6754
14738TIP3    H265630   1.165   3.123   0.109  0.3880  0.8743 -1.3439
14739TIP3   OH265631   1.910   6.034  14.182 -0.0779 -0.2521 -0.0627
14739TIP3    H165632   1.909   6.005  14.273  1.3094 -0.9731 -0.2408
14739TIP3    H265633   1.859   5.969  14.135 -1.6711  0.6793  0.3188
14740TIP3   OH265634   0.206   3.995   4.482  0.5942  0.0906 -0.5378
14740TIP3    H165635   0.168   3.958   4.562 -2.3756  0.8436 -1.4457
14740TIP3    H265636   0.208   3.921   4.420  2.2598 -0.3361 -0.0040
14741TIP3   OH265637   2.390   0.148  17.174 -0.3158  0.0235 -0.1782
14741TIP3    H165638   2.476   0.109  17.159 -0.6441 -0.8391  0.0881
14741TIP3    H265639   2.409   0.237  17.205  0.4440  0.2446 -1.2245
14742TIP3   OH265640   5.758   4.484   5.058  0.2463  0.2708  0.2570
14742TIP3    H165641   5.792   4.414   5.003  1.6106  1.6936 -0.7906
14742TIP3    H265642   5.810   4.478   5.138  0.2037 -0.0399  0.2635
14743TIP3   OH265643   2.869   3.012   5.687 -0.2364 -0.2069 -0.0840
14743TIP3    H165644   2.890   2.975   5.601 -1.4415 -1.6713  0.2275
14743TIP3    H265645   2.874   3.107   5.673  0.7954 -0.4325 -1.4483
14744TIP3   OH265646   4.758   3.170   2.868  0.3643 -1.0039  0.7462
14744TIP3    H165647   4.715   3.221   2.936 -0.3706  0.6187 -0.8326
14744TIP3    H265648   4.772   3.233   2.797  0.2060 -2.8368 -0.9895
14745TIP3   OH265649   2.415   2.639   2.601 -0.1469 -0.0634  0.2069
14745TIP3    H165650   2.358   2.580   2.551 -1.0130  2.3859 -1.9081
14745TIP3    H265651   2.365   2.661   2.679  0.7782 -3.1050  1.8084
14746TIP3   OH265652   3.927   1.963  14.656  0.0391 -0.2119 -0.8085
14746TIP3    H165653   3.895   2.022  14.724  0.3400  1.3327 -1.9555
14746TIP3    H265654   3.979   1.898  14.703 -1.1297 -0.1808  0.5981
14747TIP3   OH265655   6.260   1.252  13.203  0.1888  0.2318  0.1679
14747TIP3    H165656   6.173   1.227  13.235  0.3130  1.2697  1.4258
14747TIP3    H265657   6.318   1.184  13.237 -0.1535 -0.6715 -0.9921
14748TIP3   OH265658   5.728   5.860   2.400  0.1087 -0.3406 -0.2336
14748TIP3    H165659   5.819   5.886   2.417  0.0078  0.3889 -0.7201
14748TIP3    H265660   5.713   5.784   2.456  1.4432 -1.3242 -1.1556
14749TIP3   OH265661   4.644   3.492   0.038 -0.0630 -0.3973 -0.0469
14749TIP3    H165662   4.663   3.584   0.057 -1.4885 -0.2873  0.9089
14749TIP3    H265663   4.552   3.481   0.060 -0.3584 -1.6638 -1.7067
14750TIP3   OH265664   0.699   5.365  15.811  0.1124  0.1051  0.1731
14750TIP3    H165665   0.767   5.433  15.819 -0.3683  0.4562  1.5656
14750TIP3    H265666   0.654   5.386  15.729  0.6301  0.8519  0.0639
14751TIP3   OH265667   6.038   0.193   2.238  0.2883  0.0899 -0.4987
14751TIP3    H165668   6.052   0.169   2.330  0.9547 -1.1272 -0.9019
14751TIP3    H265669   6.074   0.120   2.188  1.2807  1.3879 -1.7775
14752TIP3   OH265670   6.740   2.167  14.238 -0.7244 -0.2282 -0.2274
14752TIP3    H165671   6.656   2.192  14.278 -2.6920 -2.5393 -2.5599
14752TIP3    H265672   6.766   2.088  14.285 -1.3942 -1.1263 -1.3085
14753TIP3   OH265673   0.353   3.922  15.791  0.3223  0.4987 -0.0671
14753TIP3    H165674   0.409   4.000  15.793  0.9515  0.0414  0.3917
14753TIP3    H265675   0.414   3.848  15.793 -0.3022 -0.0085  0.9044
14754TIP3   OH265676   1.290   2.919  15.120 -0.5447  0.4316 -0.4230
14754TIP3    H165677   1.281   2.826  15.098  2.0449  0.1102 -0.5089
14754TIP3    H265678   1.277   2.923  15.214 -0.7133 -0.0139 -0.4233
14755TIP3   OH265679   6.726   0.160   1.510  0.3482  0.1397  0.0757
14755TIP3    H165680   6.740   0.132   1.420  2.1111 -1.1935  0.7068
14755TIP3    H265681   6.632   0.180   1.515 -0.3191 -2.2513 -1.3910
14756TIP3   OH265682   6.641   2.178   1.793 -0.1153 -0.1932 -0.1212
14756TIP3    H165683   6.604   2.246   1.738  0.5945 -0.7406 -1.3166
14756TIP3    H265684   6.582   2.172   1.868 -0.5652  1.2346 -0.3434
14757TIP3   OH265685   2.244   0.417  13.397  0.5699 -0.2241  0.3907
14757TIP3    H165686   2.187   0.340  13.402  0.6842 -0.3123  0.3543
14757TIP3    H265687   2.319   0.395  13.453  0.6211 -0.1542  0.3501
14758TIP3   OH265688   4.443   6.229   3.117  0.1692 -0.4177 -0.1874
14758TIP3    H165689   4.410   6.142   3.093 -1.1057  0.0288 -0.1044
14758TIP3    H265690   4.423   6.237   3.210  0.0594  0.0676 -0.2526
14759TIP3   OH265691   2.215   0.817  12.521  0.3890 -0.8172  0.1932
14759TIP3    H165692   2.248   0.737  12.561  0.1379 -0.8416  0.3603
14759TIP3    H265693   2.289   0.854  12.474  0.8738 -0.4712  1.1985
14760TIP3   OH265694   0.262   1.251  13.416 -0.1350 -0.2230  0.1097
14760TIP3    H165695   0.178   1.265  13.371 -1.3450 -1.0914  1.9577
14760TIP3    H265696   0.307   1.335  13.408 -1.5925  0.5793 -0.1609
14761TIP3   OH265697   0.752   2.975  16.620  0.1821 -0.0124  0.1788
14761TIP3    H165698   0.737   3.044  16.555  0.0673 -0.0151  0.2010
14761TIP3    H265699   0.726   2.894  16.576 -0.9872  0.1099  0.5901
14762TIP3   OH265700   6.423   3.083  11.742 -0.2171 -0.0679 -0.2923
14762TIP3    H165701   6.448   3.006  11.691 -1.3275  1.0873 -2.7232
14762TIP3    H265702   6.328   3.078  11.749 -0.0628 -0.5900  2.4582
14763TIP3   OH265703   6.185   6.454   5.163  0.1135 -0.5152  0.5764
14763TIP3    H165704   6.219   6.413   5.083 -0.5060  1.3009 -0.6679
14763TIP3    H265705   6.091   6.432   5.163 -0.4841  1.6878 -0.7183
14764TIP3   OH265706   3.754   4.807   6.161 -0.6645  0.0758 -0.1119
14764TIP3    H165707   3.831   4.839   6.209 -1.0297  1.2584 -0.2628
14764TIP3    H265708   3.691   4.785   6.229 -0.4965 -0.0847 -0.0072
14765TIP3   OH265709   0.126   4.345  16.154 -0.7477  0.2177  0.1968
14765TIP3    H165710   0.138   4.292  16.075 -2.1917 -0.4460  0.4055
14765TIP3    H265711   0.179   4.424  16.138 -0.2148 -0.3538 -0.9842
14766TIP3   OH265712   5.096   3.371  10.994 -0.0154  0.3584  0.1392
14766TIP3    H165713   5.169   3.408  10.945 -0.5031  1.6019  0.3177
14766TIP3    H265714   5.023   3.374  10.932 -0.0737 -0.2809  0.1740
14767TIP3   OH265715   4.753   5.680   5.042  0.5713 -0.2071  0.5518
14767TIP3    H165716   4.817   5.750   5.027  0.8752  0.0036  2.4960
14767TIP3    H265717   4.727   5.692   5.133 -1.1976 -1.1705  0.2089
14768TIP3   OH265718   6.609   3.188   1.555  0.0782  0.1415 -0.6168
14768TIP3    H165719   6.639   3.165   1.467 -0.8562  2.0345 -1.4902
14768TIP3    H265720   6.526   3.142   1.565  1.0401 -1.5179  0.0274
14769TIP3   OH265721   6.711   5.163  11.781 -0.1801  0.8383  0.0768
14769TIP3    H165722   6.679   5.124  11.700  3.4220  0.1702 -1.1640
14769TIP3    H265723   6.704   5.257  11.766  1.9792  0.7906 -1.8412
14770TIP3   OH265724   1.917   5.866   5.929  0.2178  0.0129  0.0374
14770TIP3    H165725   1.831   5.829   5.906  0.8451 -1.0456 -0.7290
14770TIP3    H265726   1.931   5.935   5.864  0.2690 -0.3205 -0.3097
14771TIP3   OH265727   3.369   5.006  13.806 -0.5967 -0.2156  0.3505
14771TIP3    H165728   3.282   5.003  13.847  0.3619  0.6643  2.5915
14771TIP3    H265729   3.374   5.093  13.768 -1.5109 -1.0533 -1.8862
14772TIP3   OH265730   6.383   0.495  12.991 -0.2592 -0.2030 -0.4236
14772TIP3    H165731   6.381   0.561  12.922 -1.4026 -0.0385 -0.2491
14772TIP3    H265732   6.294   0.461  12.994 -0.4663  0.4212  1.5684
14773TIP3   OH265733   1.138   2.998  13.065 -0.1658  0.8407  0.8001
14773TIP3    H165734   1.220   3.039  13.037 -1.7817  1.8586 -3.0783
14773TIP3    H265735   1.085   3.070  13.098  0.4543  0.1459  3.5434
14774TIP3   OH265736   6.149   1.390  12.713 -0.6927 -0.3850  0.0426
14774TIP3    H165737   6.157   1.327  12.785 -0.1803  0.2473  0.5585
14774TIP3    H265738   6.232   1.382  12.666 -0.7111 -0.2529 -0.0123
14775TIP3   OH265739   3.733   0.330   4.369  0.0781 -0.3908  0.2774
14775TIP3    H165740   3.781   0.350   4.449 -0.0503  0.9728  0.0421
14775TIP3    H265741   3.641   0.341   4.392  0.0197 -0.3745  0.0429
14776TIP3   OH265742   6.227   1.682  12.379 -0.1719 -0.3307  0.2493
14776TIP3    H165743   6.298   1.714  12.435 -0.0526 -2.2358  1.2787
14776TIP3    H265744   6.267   1.674  12.293  1.2513 -2.3142  1.0098
14777TIP3   OH265745   6.193   6.743   2.712  0.0596 -0.0890  0.1658
14777TIP3    H165746   6.226   6.833   2.711 -0.4167  0.0830  0.1633
14777TIP3    H265747   6.170   6.726   2.803 -2.3942  0.7227 -0.2344
14778TIP3   OH265748   6.574   1.758   5.240 -0.2344  1.0276  0.0554
14778TIP3    H165749   6.482   1.738   5.253 -0.3933  0.5254 -1.6435
14778TIP3    H265750   6.609   1.682   5.193  1.0359  1.2521  0.5770
14779TIP3   OH265751   6.746   3.867  14.350  0.4556  0.0790  0.2180
14779TIP3    H165752   6.750   3.938  14.287 -3.3683 -1.0750 -1.6569
14779TIP3    H265753   6.805   3.800  14.315  0.9689  0.7523 -0.2238
14780TIP3   OH265754   1.455   2.179  14.797 -0.4647  0.4096  0.0122
14780TIP3    H165755   1.534   2.154  14.748 -0.2732  1.9914 -0.5531
14780TIP3    H265756   1.384   2.132  14.754 -0.0977  0.6521 -0.8862
14781TIP3   OH265757   3.320   3.513  12.441 -0.0690 -0.4574  0.0839
14781TIP3    H165758   3.242   3.493  12.492 -0.3880 -0.2496 -0.3150
14781TIP3    H265759   3.347   3.600  12.473 -0.1385 -0.4260  0.0582
14782TIP3   OH265760   5.879   1.548   1.370  0.8006  0.1688  0.2561
14782TIP3    H165761   5.814   1.616   1.389  0.5656 -0.2421  0.9725
14782TIP3    H265762   5.868   1.530   1.276  1.6521  1.9029 -0.2208
14783TIP3   OH265763   2.888   6.464  11.517  0.4674 -0.5360 -0.3435
14783TIP3    H165764   2.850   6.491  11.601  0.6327 -0.3796 -0.3185
14783TIP3    H265765   2.956   6.401  11.542  0.1650 -0.8880 -0.3927
14784TIP3   OH265766   0.481   6.028  11.483 -0.5677  0.8741  0.2221
14784TIP3    H165767   0.485   5.994  11.394 -2.5888  2.6723 -0.6362
14784TIP3    H265768   0.426   5.965  11.530  2.3909 -1.4032  1.0029
14785TIP3   OH265769   3.197   3.612   0.499 -0.5036  0.8201 -0.5075
14785TIP3    H165770   3.284   3.637   0.530 -0.2455 -0.4620 -0.1465
14785TIP3    H265771   3.137   3.647   0.566 -0.0275 -0.9781  0.9419
14786TIP3   OH265772   5.144   2.670   4.501  0.1777  0.0542  0.1377
14786TIP3    H165773   5.225   2.629   4.533  0.9071  1.4702  0.1812
14786TIP3    H265774   5.174   2.748   4.455 -1.2129  1.1268  0.9734
14787TIP3   OH265775   0.207   5.817   4.803 -0.3626 -0.0277  0.4375
14787TIP3    H165776   0.262   5.739   4.806  0.8436  0.7637 -0.4290
14787TIP3    H265777   0.244   5.876   4.868  0.0814  0.6649 -0.4223
14788TIP3   OH265778   2.809   4.762   2.178 -0.4224 -0.4617 -0.5363
14788TIP3    H165779   2.856   4.803   2.250 -2.5374 -0.6521  1.0724
14788TIP3    H265780   2.767   4.834   2.133 -0.7254 -0.4932 -0.3107
14789TIP3   OH265781   5.836   2.606   3.438 -0.1412 -0.1097  0.2660
14789TIP3    H165782   5.743   2.621   3.456 -0.4786 -0.7020 -0.8711
14789TIP3    H265783   5.881   2.635   3.518 -1.1313  1.9737  0.1521
14790TIP3   OH265784   5.619   3.162   0.586 -0.2666  0.5221 -0.4148
14790TIP3    H165785   5.635   3.249   0.549  0.8606  0.3298 -0.4234
14790TIP3    H265786   5.635   3.173   0.679 -0.0531  0.3117 -0.4258
14791TIP3   OH265787   5.592   4.471  13.382  0.3264 -0.1348  0.3880
14791TIP3    H165788   5.613   4.564  13.384  1.5549 -0.4129  1.7730
14791TIP3    H265789   5.659   4.431  13.327  0.3983 -0.3387  0.6208
14792TIP3   OH265790   1.878   1.125  16.147 -0.2550 -0.0628 -0.0696
14792TIP3    H165791   1.860   1.171  16.229  3.3365 -1.0735  1.5074
14792TIP3    H265792   1.864   1.033  16.168 -0.4441 -0.2496 -0.9820
14793TIP3   OH265793   2.603   2.387   2.642 -0.2824 -0.1596 -0.4501
14793TIP3    H165794   2.632   2.402   2.552 -0.3528  1.5781 -0.2239
14793TIP3    H265795   2.587   2.475   2.677  5.1171 -0.1361  3.0790
14794TIP3   OH265796   1.474   6.196  13.232 -0.4637  0.2060 -0.3343
14794TIP3    H165797   1.393   6.246  13.221  0.4259  1.9119  0.4765
14794TIP3    H265798   1.544   6.260  13.219  0.7419 -0.8797  0.4900
14795TIP3   OH265799   2.643   1.445   2.874  0.0832  0.1810 -0.0052
14795TIP3    H165800   2.666   1.406   2.959 -2.5992 -0.9867  0.3021
14795TIP3    H265801   2.580   1.383   2.837  0.0759  1.4404 -2.1894
14796TIP3   OH265802   4.436   3.918   1.334 -0.1530  0.1761 -0.5200
14796TIP3    H165803   4.484   3.976   1.392 -1.2469  0.5271  0.0603
14796TIP3    H265804   4.476   3.931   1.248 -0.7444  2.2712 -0.5417
14797TIP3   OH265805   0.609   0.061   3.459 -0.4122  0.1291 -0.0375
14797TIP3    H165806   0.567   0.002   3.522  0.8680  0.9974  1.7608
14797TIP3    H265807   0.571   0.147   3.478  1.0116  0.6569  0.6134
14798TIP3   OH265808   1.151   5.954   6.107  0.2727 -0.2875 -0.1245
14798TIP3    H165809   1.109   6.005   6.039 -1.6197 -0.4763  0.8284
14798TIP3    H265810   1.087   5.886   6.130  1.1599 -0.7086  1.2818
14799TIP3   OH265811   2.573   0.892   4.320 -0.4508 -0.4145  0.0823
14799TIP3    H165812   2.632   0.853   4.386 -1.5892 -2.0348  0.2029
14799TIP3    H265813   2.624   0.963   4.282  0.6042 -0.0349  2.0443
14800TIP3   OH265814   1.644   5.036   4.540 -0.2735 -0.3827 -0.5979
14800TIP3    H165815   1.714   4.991   4.587 -1.9579 -2.6534 -0.1126
14800TIP3    H265816   1.661   5.129   4.556  2.2511 -0.8672 -0.0214
14801TIP3   OH265817   2.680   0.927  13.978 -0.0394  1.0929 -0.6075
14801TIP3    H165818   2.666   0.944  14.071  1.0261  0.8077 -0.3835
14801TIP3    H265819   2.592   0.907  13.944 -0.2155 -0.6539  0.7291
14802TIP3   OH265820   5.975   6.520   3.778 -0.1686  0.3171  0.3139
14802TIP3    H165821   5.905   6.486   3.833  0.5395 -2.0815 -0.1348
14802TIP3    H265822   6.055   6.484   3.815  0.6246  1.2003 -0.4736
14803TIP3   OH265823   3.472   3.076   0.518  0.7756 -0.1350  0.2904
14803TIP3    H165824   3.519   2.999   0.551  1.9787  0.6664  0.5280
14803TIP3    H265825   3.536   3.120   0.462  0.2606  0.9157  0.5057
14804TIP3   OH265826   1.762   0.543  12.141  0.2635  0.0838 -0.5919
14804TIP3    H165827   1.795   0.567  12.055  0.9457 -0.3237 -0.4500
14804TIP3    H265828   1.757   0.447  12.139 -0.5173  0.1086 -0.4597
14805TIP3   OH265829   6.775   1.397   3.704 -0.3189 -0.6653  0.2053
14805TIP3    H165830   6.850   1.357   3.748 -1.6741 -1.4721  1.8910
14805TIP3    H265831   6.764   1.481   3.749 -0.2330 -0.3947 -0.2726
14806TIP3   OH265832   2.692   0.236  16.564 -0.3955  0.0838 -0.6365
14806TIP3    H165833   2.675   0.331  16.570 -0.1410  0.0516  1.0530
14806TIP3    H265834   2.699   0.219  16.470  3.3462  2.4157 -0.9682
14807TIP3   OH265835   1.434   0.839  13.617  0.4932  0.5307 -0.0052
14807TIP3    H165836   1.400   0.750  13.613  0.6686  0.3767  1.5639
14807TIP3    H265837   1.363   0.891  13.654  0.7453  0.8652  0.0228
14808TIP3   OH265838   5.241   5.952  11.897 -0.2663  0.3236 -0.0380
14808TIP3    H165839   5.285   6.038  11.893 -0.5866  0.5452  0.9378
14808TIP3    H265840   5.163   5.963  11.843  0.9659 -0.1591 -2.0211
14809TIP3   OH265841   3.890   4.233  14.581  0.5407 -0.0542  0.4405
14809TIP3    H165842   3.857   4.144  14.565  0.0268  0.3268 -0.7530
14809TIP3    H265843   3.981   4.231  14.554  0.4934 -0.1978  0.2889
14810TIP3   OH265844   2.960   4.669  13.007 -0.0494 -0.4319  0.2614
14810TIP3    H165845   2.984   4.591  13.057  0.9264  0.2513  0.9069
14810TIP3    H265846   2.889   4.709  13.057 -1.4128 -1.5190 -0.7170
14811TIP3   OH265847   4.485   3.307  14.293 -0.7359  0.9413 -0.0523
14811TIP3    H165848   4.529   3.230  14.329 -2.0194 -0.8965 -2.1749
14811TIP3    H265849   4.435   3.343  14.366  0.1638 -0.0038  1.0614
14812TIP3   OH265850   6.278   1.711  12.007  1.2812 -0.1964 -0.3540
14812TIP3    H165851   6.336   1.665  12.067 -0.8467  0.4078  2.3744
14812TIP3    H265852   6.282   1.803  12.035 -0.8258 -0.1185 -0.0985
14813TIP3   OH265853   2.734   2.213  14.278 -0.2688 -0.6322  0.7920
14813TIP3    H165854   2.696   2.299  14.296 -0.0883 -0.5873  0.9545
14813TIP3    H265855   2.789   2.194  14.353 -0.1927 -0.8263  0.6896
14814TIP3   OH265856   5.996   2.170   1.689  0.1413 -0.6382 -0.1632
14814TIP3    H165857   6.026   2.252   1.650 -0.7540  0.1028  0.6421
14814TIP3    H265858   6.071   2.111   1.682  1.0480  0.4661 -0.1491
14815TIP3   OH265859   2.064   1.299  17.085 -0.0645 -0.8339  0.3164
14815TIP3    H165860   2.094   1.265  17.169 -1.4171 -3.0397 -0.0044
14815TIP3    H265861   2.116   1.251  17.020 -0.0682 -0.2475 -0.1217
14816TIP3   OH265862   5.157   2.674  16.177  0.0445  0.1586 -0.4209
14816TIP3    H165863   5.197   2.682  16.090 -0.2109 -0.5225 -0.6060
14816TIP3    H265864   5.212   2.729  16.233  1.5213 -1.0702 -0.5792
14817TIP3   OH265865   1.186   0.807  12.567 -0.3196 -0.1698 -0.0091
14817TIP3    H165866   1.249   0.863  12.522 -0.8939  1.4520  1.1182
14817TIP3    H265867   1.112   0.801  12.506 -0.5125  0.8302  0.1139
14818TIP3   OH265868   1.437   1.786   0.715 -0.3757  0.0386  0.2096
14818TIP3    H165869   1.348   1.807   0.746 -0.1105 -1.5852  2.2825
14818TIP3    H265870   1.423   1.747   0.629 -1.5143  1.1848 -0.1619
14819TIP3   OH265871   3.130   4.154  12.884 -0.8942  0.1745  0.9319
14819TIP3    H165872   3.193   4.213  12.843 -1.4558 -0.9740 -1.8431
14819TIP3    H265873   3.115   4.191  12.971  2.5491  1.2265  1.2290
14820TIP3   OH265874   4.658   2.134   0.210 -0.2029  0.9491 -0.1892
14820TIP3    H165875   4.589   2.096   0.155 -0.6989  1.6929 -0.1010
14820TIP3    H265876   4.611   2.166   0.287  0.4244  0.3168  0.4740
14821TIP3   OH265877   0.040   1.061   0.379 -0.0963 -0.2941  0.7258
14821TIP3    H165878   0.016   1.074   0.471 -1.1252  1.0950  0.2842
14821TIP3    H265879  -0.039   1.082   0.330  0.1732 -1.8700 -0.4623
14822TIP3   OH265880   0.165   4.751   5.807 -0.4544  0.4851 -0.2965
14822TIP3    H165881   0.105   4.718   5.740 -0.8523  1.2311 -0.3200
14822TIP3    H265882   0.248   4.763   5.762 -0.9579  1.8646 -0.9067
14823TIP3   OH265883   0.376   2.965   2.023 -0.1130 -0.2628  0.2911
14823TIP3    H165884   0.333   3.045   2.054 -0.2035 -0.0435 -0.3989
14823TIP3    H265885   0.345   2.897   2.083 -1.1880 -0.0518 -0.0209
14824TIP3   OH265886   0.901   2.578  14.367 -0.1223  0.2053  0.0887
14824TIP3    H165887   0.889   2.511  14.300  0.6074  1.2004 -1.0897
14824TIP3    H265888   0.980   2.625  14.340  0.7455  0.0518  2.1661
14825TIP3   OH265889   6.725   4.089  16.795 -0.3119  0.7449 -0.4639
14825TIP3    H165890   6.723   4.170  16.745 -1.8468  0.6909 -0.5499
14825TIP3    H265891   6.634   4.058  16.794 -0.4385  0.7426  2.3248
14826TIP3   OH265892   5.305   0.802  16.507  0.4151  0.2729  0.3343
14826TIP3    H165893   5.249   0.735  16.468 -1.4799  3.3984 -2.9114
14826TIP3    H265894   5.282   0.801  16.600 -2.1812 -1.2115 -0.2178
14827TIP3   OH265895   2.082   6.706   4.729  0.4655  0.2300 -0.1018
14827TIP3    H165896   2.003   6.691   4.678 -0.0448 -0.2245  0.7995
14827TIP3    H265897   2.088   6.631   4.787  1.3689  0.4366  0.0961
14828TIP3   OH265898   1.903   4.757  16.318 -0.1193  0.2438  0.7712
14828TIP3    H165899   1.950   4.682  16.356 -0.5486  0.5827  2.0338
14828TIP3    H265900   1.972   4.819  16.293  0.2105 -0.3407  0.2131
14829TIP3   OH265901   5.036   5.567   3.721 -0.7287  0.4858 -0.2811
14829TIP3    H165902   5.084   5.494   3.760  0.7342  0.9394 -1.1417
14829TIP3    H265903   5.049   5.557   3.627  0.5156  2.4766 -0.3729
14830TIP3   OH265904   3.452   4.937  13.002  0.0440 -0.0143  0.4311
14830TIP3    H165905   3.419   5.012  12.953 -0.5655 -0.6364 -0.1167
14830TIP3    H265906   3.384   4.917  13.066 -0.0342 -0.4253  0.2252
14831TIP3   OH265907   5.981   2.520  16.870  0.2144  0.1418 -0.1167
14831TIP3    H165908   6.073   2.497  16.879 -0.2000 -1.4209  0.4509
14831TIP3    H265909   5.981   2.598  16.814  1.9062  0.6456  0.5275
14832TIP3   OH265910   3.478   5.033   5.002 -0.6597 -0.5279 -0.3299
14832TIP3    H165911   3.469   5.126   5.023 -1.4437 -0.4419 -0.9951
14832TIP3    H265912   3.390   4.997   5.013 -1.0086 -0.5981 -2.7944
14833TIP3   OH265913   5.259   2.932   1.301  0.5196  0.4490  0.6591
14833TIP3    H165914   5.170   2.934   1.266  0.5245  1.1961  0.6770
14833TIP3    H265915   5.281   2.839   1.305  1.2547  0.2798 -3.1923
14834TIP3   OH265916   3.830   5.379   0.133 -0.3835 -0.0281 -0.1542
14834TIP3    H165917   3.807   5.449   0.072 -1.2239 -1.4154 -1.4736
14834TIP3    H265918   3.912   5.343   0.098 -0.4401 -0.3014 -0.0072
14835TIP3   OH265919   3.455   2.433   1.484 -0.0992  0.1899  0.2491
14835TIP3    H165920   3.383   2.491   1.510 -0.6893 -0.9552  1.2652
14835TIP3    H265921   3.533   2.476   1.519 -0.3983  0.9218  0.0446
14836TIP3   OH265922   3.188   5.516  11.632 -0.1163  0.7780 -0.1309
14836TIP3    H165923   3.224   5.572  11.701 -2.0489  0.9427  0.8167
14836TIP3    H265924   3.194   5.569  11.553 -1.6572  2.2711  0.6960
14837TIP3   OH265925   5.870   0.014   3.662 -0.0675  0.3662 -0.6379
14837TIP3    H165926   5.889   0.086   3.722  1.5858 -0.7291  0.2316
14837TIP3    H265927   5.915  -0.061   3.700 -2.1541 -1.2676 -1.2444
14838TIP3   OH265928   3.593   4.620   5.022 -0.1045  0.7823  0.3167
14838TIP3    H165929   3.667   4.629   5.081  0.3678 -0.8986  0.0216
14838TIP3    H265930   3.629   4.581   4.943 -0.9602  1.8022 -0.6112
14839TIP3   OH265931   5.168   1.688  11.854 -0.0547 -0.0673 -0.0650
14839TIP3    H165932   5.100   1.638  11.900 -0.4018  0.8606  0.4392
14839TIP3    H265933   5.120   1.757  11.808  0.6393  1.3612  1.2791
14840TIP3   OH265934   1.878   4.431  11.753 -0.7306 -0.2625  0.2909
14840TIP3    H165935   1.826   4.408  11.830 -2.7835 -0.4734 -1.0915
14840TIP3    H265936   1.966   4.447  11.788 -1.0370 -2.4999  2.3789
14841TIP3   OH265937   1.343   5.646  14.919 -0.3005  0.2156  0.7295
14841TIP3    H165938   1.265   5.700  14.916  0.2322  0.9942  0.6039
14841TIP3    H265939   1.339   5.602  15.004 -2.3257 -2.0102 -0.3830
14842TIP3   OH265940   3.198   5.894  16.286  0.4105 -0.0289 -0.3195
14842TIP3    H165941   3.270   5.834  16.271  0.0517 -0.3710 -0.6815
14842TIP3    H265942   3.182   5.889  16.380  1.5085  0.8021 -0.0686
14843TIP3   OH265943   4.435   4.670  11.750  0.1887  0.1552 -0.3578
14843TIP3    H165944   4.491   4.600  11.783  0.4063  0.8873  0.8801
14843TIP3    H265945   4.492   4.747  11.748 -0.5181  0.7037  0.0345
14844TIP3   OH265946   3.432   5.472   1.022 -0.5645 -0.2170  0.2505
14844TIP3    H165947   3.353   5.521   1.047  0.4419  0.2091  2.9238
14844TIP3    H265948   3.448   5.414   1.096  2.3893  0.6818  0.4474
14845TIP3   OH265949   4.784   2.976   2.118 -0.0174 -0.6265  0.1098
14845TIP3    H165950   4.705   2.931   2.147 -1.0277  1.6630  1.0762
14845TIP3    H265951   4.762   3.069   2.121  2.2540  0.0185 -1.0085
14846TIP3   OH265952   6.170   4.485   5.904  0.1187  0.0265 -0.1777
14846TIP3    H165953   6.135   4.404   5.868  2.6488 -0.9308 -0.7120
14846TIP3    H265954   6.185   4.466   5.997  0.5078 -0.0756 -0.2567
14847TIP3   OH265955   5.210   2.848  12.124  0.4131  0.3718  0.4792
14847TIP3    H165956   5.264   2.769  12.121  3.2343  2.2097 -0.8405
14847TIP3    H265957   5.272   2.920  12.136 -2.1373  2.3987  3.0623
14848TIP3   OH265958   2.446   6.383   4.247 -0.7863 -0.2263 -0.1347
14848TIP3    H165959   2.416   6.474   4.250  1.7402  0.6644  0.4363
14848TIP3    H265960   2.500   6.378   4.168 -2.3393 -1.7850 -1.1851
14849TIP3   OH265961   4.668   3.169  16.928  0.0922 -0.6449 -0.7154
14849TIP3    H165962   4.723   3.093  16.948 -0.2540 -1.1590 -1.6464
14849TIP3    H265963   4.589   3.155  16.981 -0.2098 -1.2377 -1.3106
14850TIP3   OH265964   6.061   5.661   2.505 -0.3610  0.1188  0.1546
14850TIP3    H165965   5.989   5.686   2.563 -1.3878 -0.6873 -0.7360
14850TIP3    H265966   6.076   5.739   2.452 -0.2536  0.4481  0.6617
14851TIP3   OH265967   6.670   5.928   3.136 -0.4111  0.4690  0.9271
14851TIP3    H165968   6.701   6.019   3.130  0.2893  0.2014  0.2532
14851TIP3    H265969   6.611   5.919   3.061  1.6858 -0.4028 -0.7489
14852TIP3   OH265970   5.483   5.288   1.861  0.0078 -0.7104  0.1738
14852TIP3    H165971   5.401   5.329   1.887  0.1227 -1.2579  1.4676
14852TIP3    H265972   5.465   5.194   1.863  0.1271 -0.7951 -1.4506
14853TIP3   OH265973   5.292   2.827   5.603  0.0187  0.3432 -0.0967
14853TIP3    H165974   5.323   2.745   5.641 -1.3823 -0.0234  0.3000
14853TIP3    H265975   5.370   2.882   5.599  0.8442 -0.7608  0.2665
14854TIP3   OH265976   1.699   5.154  15.625 -0.1694  0.0286 -0.8528
14854TIP3    H165977   1.742   5.073  15.596 -2.3189 -0.7386 -2.0728
14854TIP3    H265978   1.643   5.127  15.698  0.1657  0.7225 -0.3213
14855TIP3   OH265979   4.237   1.732   4.799  0.5208  0.4006  0.4929
14855TIP3    H165980   4.209   1.644   4.774  0.5280  0.2564  0.9827
14855TIP3    H265981   4.158   1.785   4.793  0.5280  0.3755  0.1434
14856TIP3   OH265982   5.521   1.150  16.518  0.5603  0.0944 -0.3107
14856TIP3    H165983   5.528   1.086  16.589  2.0832  0.2214 -0.3097
14856TIP3    H265984   5.434   1.188  16.528  1.4224  1.6110  2.8123
14857TIP3   OH265985   2.190   6.296   2.449  0.6857  0.1760  0.7232
14857TIP3    H165986   2.235   6.293   2.533 -0.7657  0.3683  1.5277
14857TIP3    H265987   2.248   6.248   2.389  1.4623 -0.4725  1.9600
14858TIP3   OH265988   3.471   5.490   4.843  0.2604 -0.2551 -0.1132
14858TIP3    H165989   3.545   5.472   4.785  0.9904 -0.6972  0.9324
14858TIP3    H265990   3.476   5.423   4.911 -0.6752  0.1470  0.3804
14859TIP3   OH265991   5.146   1.420   1.400  0.0625  0.2263 -0.1592
14859TIP3    H165992   5.114   1.398   1.488 -0.0703  0.4294 -0.1579
14859TIP3    H265993   5.145   1.336   1.354  1.7650 -0.2145  0.5428
14860TIP3   OH265994   6.758   1.003  14.866  0.8020 -0.0656  0.6084
14860TIP3    H165995   6.767   1.090  14.828  0.5585 -0.7625 -1.1378
14860TIP3    H265996   6.689   1.012  14.932  1.5198  1.2758  1.2088
14861TIP3   OH265997   3.941   3.545  16.604 -1.3677  0.6710 -0.0287
14861TIP3    H165998   3.896   3.605  16.545 -3.0594  1.8258  2.3085
14861TIP3    H265999   4.022   3.590  16.627 -1.5909  1.0518  0.0134
14862TIP3   OH266000   0.234   2.278   5.796 -0.4424  0.3703  0.3281
14862TIP3    H166001   0.242   2.306   5.888 -1.5491  0.7744  0.3193
14862TIP3    H266002   0.241   2.359   5.746 -0.9307  0.2951  0.1297
14863TIP3   OH266003   0.385   2.012   0.329  0.1453 -0.3695  0.7300
14863TIP3    H166004   0.317   2.049   0.273 -0.5130 -1.1385  0.9964
14863TIP3    H266005   0.396   2.075   0.400 -0.2357 -0.2046  0.6437
14864TIP3   OH266006   4.500   0.294   2.179 -0.0166  0.6300  0.0340
14864TIP3    H166007   4.489   0.276   2.085 -0.0344 -0.2924  0.1982
14864TIP3    H266008   4.428   0.247   2.221 -0.2704  1.4013  0.4849
14865TIP3   OH266009   6.133   6.319  12.729 -0.1157  0.3046 -0.3647
14865TIP3    H166010   6.133   6.329  12.633 -0.8520 -0.3480 -0.4398
14865TIP3    H266011   6.204   6.376  12.758 -0.0746  0.7466 -1.2762
14866TIP3   OH266012   4.709   2.109   1.995 -0.5864  0.2061 -0.1625
14866TIP3    H166013   4.671   2.070   2.073 -1.5148 -0.1702 -0.7935
14866TIP3    H266014   4.706   2.040   1.929  0.5484  0.3944 -0.4399
14867TIP3   OH266015   0.676   2.840   2.332 -0.1207 -0.1104  0.2947
14867TIP3    H166016   0.704   2.889   2.254  0.4329  0.4607  0.8391
14867TIP3    H266017   0.740   2.769   2.339 -1.7895 -1.8999 -1.3695
14868TIP3   OH266018   4.895   4.530  16.769  0.0741  0.5281  0.3791
14868TIP3    H166019   4.926   4.443  16.797  0.3755  0.3573 -0.4748
14868TIP3    H266020   4.810   4.539  16.813 -0.6847 -0.8567 -0.7044
14869TIP3   OH266021   3.718   3.556  11.684  0.2426 -0.7665 -0.2711
14869TIP3    H166022   3.787   3.602  11.637  1.0805 -1.6739  0.0287
14869TIP3    H266023   3.643   3.615  11.681  1.2778  0.6059  0.1222
14870TIP3   OH266024   0.370   2.741   3.265  0.7527 -0.1932  0.5150
14870TIP3    H166025   0.325   2.796   3.201 -0.7154 -1.8726  0.0471
14870TIP3    H266026   0.399   2.665   3.215 -0.1982 -1.4171  1.7623
14871TIP3   OH266027   4.191   1.271   0.259 -0.1159 -0.0303  0.1084
14871TIP3    H166028   4.099   1.245   0.265 -0.2561  0.0022 -1.3739
14871TIP3    H266029   4.202   1.337   0.328 -1.3197  0.2632  0.0556
14872TIP3   OH266030   6.040   0.482  14.465 -0.3672 -0.3937 -0.1409
14872TIP3    H166031   5.987   0.410  14.499 -0.3559 -1.2485 -1.8526
14872TIP3    H266032   6.125   0.470  14.507  0.1522 -2.4274 -1.6282
14873TIP3   OH266033   2.611   2.188  11.915  0.3030  0.4842 -0.0548
14873TIP3    H166034   2.653   2.245  11.979 -0.3891  0.9048  0.0231
14873TIP3    H266035   2.603   2.241  11.836  0.1024  0.3374 -0.1346
14874TIP3   OH266036   6.012   2.031   6.292 -0.0844 -0.4772  0.5205
14874TIP3    H166037   5.925   2.069   6.280 -0.9987 -2.7556 -0.6358
14874TIP3    H266038   5.998   1.957   6.351  0.8814 -1.4019 -0.3634
14875TIP3   OH266039   5.949   2.980  16.665 -0.0136 -0.2868 -0.2573
14875TIP3    H166040   6.042   2.996  16.685 -0.1762  0.4677 -0.0555
14875TIP3    H266041   5.947   2.973  16.570  0.0182  1.5340 -0.4378
14876TIP3   OH266042   4.106   0.861   5.833 -0.0772 -0.7869 -0.2689
14876TIP3    H166043   4.199   0.844   5.848  0.0745  0.5204  0.4536
14876TIP3    H266044   4.061   0.808   5.898  0.3348  0.7559  1.3536
14877TIP3   OH266045   6.550   4.862  16.630  0.1496  0.2106 -0.3473
14877TIP3    H166046   6.483   4.804  16.594 -0.3443  0.8541 -0.4850
14877TIP3    H266047   6.580   4.915  16.556 -0.4870  1.1676  0.0530
14878TIP3   OH266048   1.631   2.938   0.359 -0.3347  0.4530  0.0394
14878TIP3    H166049   1.654   2.933   0.452 -1.1223 -0.0853  0.2172
14878TIP3    H266050   1.582   3.019   0.351  1.5120  1.5840 -0.3335
14879TIP3   OH266051   6.073   2.268   0.027 -0.1599  0.6880  0.3357
14879TIP3    H166052   6.129   2.197  -0.004  0.0081  0.6704  0.6750
14879TIP3    H266053   6.028   2.299  -0.052 -1.2595 -0.6814  0.3835
14880TIP3   OH266054   0.881   2.712  16.721  0.5266  0.1351 -0.0089
14880TIP3    H166055   0.858   2.664  16.642  0.6586  0.8717 -0.5053
14880TIP3    H266056   0.975   2.730  16.712  0.1323  2.0935 -0.7572
14881TIP3   OH266057   3.751   2.187  10.705 -0.1387  0.2155  0.0394
14881TIP3    H166058   3.712   2.101  10.687 -0.1713  0.4017 -0.8518
14881TIP3    H266059   3.786   2.215  10.620 -0.1329  1.0861  0.3202
14882TIP3   OH266060   3.215   2.331  14.943 -0.1622 -0.0017  0.4425
14882TIP3    H166061   3.232   2.417  14.980  0.0709  0.1797 -0.0804
14882TIP3    H266062   3.267   2.271  14.997 -0.1087  0.2132  0.6319
14883TIP3   OH266063   5.941   6.225  13.337 -0.9377  0.1406 -0.4167
14883TIP3    H166064   5.910   6.163  13.272 -1.3795  1.7053 -1.7726
14883TIP3    H266065   6.028   6.251  13.306 -0.6978  0.1189  0.2076
14884TIP3   OH266066   5.726   0.541  11.483 -0.7289 -0.1651 -0.2779
14884TIP3    H166067   5.804   0.499  11.445 -1.4285 -2.0251  0.2728
14884TIP3    H266068   5.730   0.631  11.449  1.5521 -0.2417 -0.4073
14885TIP3   OH266069   0.231   3.074   1.083 -0.0271 -0.0655 -0.5469
14885TIP3    H166070   0.251   3.117   1.166  0.6105 -0.9660 -0.2088
14885TIP3    H266071   0.152   3.118   1.051  0.6075  1.3340 -0.2388
14886TIP3   OH266072   2.431   0.047  12.309  0.2258  0.0334  0.4010
14886TIP3    H166073   2.373   0.017  12.238 -1.2809  1.6857  0.8352
14886TIP3    H266074   2.499  -0.020  12.315 -0.3703 -0.8466 -1.6822
14887TIP3   OH266075   3.677   0.521   5.052 -0.1695 -0.6762 -0.2366
14887TIP3    H166076   3.587   0.495   5.071  0.0733 -0.5511  1.2400
14887TIP3    H266077   3.730   0.448   5.084  0.3088 -0.1561  0.1810
14888TIP3   OH266078   1.736   0.184   3.183 -0.2129 -0.2712  0.2237
14888TIP3    H166079   1.689   0.103   3.204  0.0001 -0.3693  0.3370
14888TIP3    H266080   1.761   0.174   3.091  0.6594 -0.7764  0.4991
14889TIP3   OH266081   3.869   5.932   4.442  0.5987  0.2224  0.2876
14889TIP3    H166082   3.952   5.886   4.455 -0.1069 -0.8930  1.0470
14889TIP3    H266083   3.889   6.003   4.380  1.6317 -1.4556 -1.4031
14890TIP3   OH266084   4.726   0.904   2.867 -0.1148 -0.4616  0.0339
14890TIP3    H166085   4.650   0.907   2.924  0.4652 -0.9225  0.8462
14890TIP3    H266086   4.717   0.982   2.811 -1.4919 -0.8429 -0.3059
14891TIP3   OH266087   5.623   1.889  12.413 -0.2607  0.1360  0.2723
14891TIP3    H166088   5.625   1.807  12.463  0.1756 -1.9296 -2.8488
14891TIP3    H266089   5.598   1.863  12.324  1.4267  3.1856 -1.2764
14892TIP3   OH266090   1.371   1.072  17.020 -0.1544 -0.2888 -0.1278
14892TIP3    H166091   1.308   1.108  17.082 -0.3178 -2.1231  0.8315
14892TIP3    H266092   1.318   1.017  16.962  0.4500 -1.4386  0.3704
14893TIP3   OH266093   3.613   1.590   5.461 -0.4093  0.7047 -0.1616
14893TIP3    H166094   3.688   1.647   5.480  0.6643  0.1830 -2.4325
14893TIP3    H266095   3.653   1.509   5.429 -1.9566 -0.3365  0.4650
14894TIP3   OH266096   2.622   5.916  11.369 -0.3198 -0.3657 -0.2246
14894TIP3    H166097   2.545   5.860  11.375 -0.6854  0.1285 -0.2753
14894TIP3    H266098   2.668   5.885  11.291 -0.4763 -0.6466 -0.2081
14895TIP3   OH266099   3.454   2.406   3.918 -0.4239  0.3359 -0.5903
14895TIP3    H166100   3.514   2.332   3.921  0.1225  0.6798 -2.0196
14895TIP3    H266101   3.376   2.372   3.874 -2.4976 -0.8427  3.5003
14896TIP3   OH266102   4.820   3.350  10.454  0.0894 -0.4203 -0.0139
14896TIP3    H166103   4.860   3.431  10.484 -2.1070  0.9096 -0.4616
14896TIP3    H266104   4.873   3.281  10.493  1.8865  1.2116  0.5691
14897TIP3   OH266105   0.421   1.761  14.619  0.0225  0.0004 -0.5673
14897TIP3    H166106   0.448   1.725  14.534  0.2185 -0.3582 -0.3551
14897TIP3    H266107   0.357   1.829  14.596 -0.4882 -0.5975 -0.9699
14898TIP3   OH266108   2.219   1.553   2.725  0.8344  0.4253  0.3722
14898TIP3    H166109   2.175   1.505   2.794 -1.3709  0.9864 -0.5473
14898TIP3    H266110   2.296   1.500   2.704  2.3253  0.8315  3.9999
14899TIP3   OH266111   4.964   3.532  11.171 -0.5131 -0.3211 -0.0778
14899TIP3    H166112   5.002   3.526  11.259 -0.6066  2.5046  0.2340
14899TIP3    H266113   5.035   3.505  11.113  0.2115 -0.2730  0.7644
14900TIP3   OH266114   2.323   5.558   5.563  0.1855 -0.0788 -0.1777
14900TIP3    H166115   2.357   5.539   5.651 -0.4157 -2.4996 -0.3903
14900TIP3    H266116   2.229   5.543   5.570 -0.0010  0.5551 -1.0604
14901TIP3   OH266117   6.720   0.713   2.894 -0.1014 -0.0992  0.7709
14901TIP3    H166118   6.730   0.798   2.852 -1.5596 -1.1438 -1.9727
14901TIP3    H266119   6.635   0.717   2.938  0.2779  0.1552  1.4984
14902TIP3   OH266120   0.629   1.839  15.471  0.7219  0.6318  0.4055
14902TIP3    H166121   0.637   1.923  15.516  2.3284 -0.1202  1.6565
14902TIP3    H266122   0.545   1.804  15.500  1.1796  0.7056  1.9310
14903TIP3   OH266123   6.154   4.235  12.986  0.9634 -0.3060 -0.1191
14903TIP3    H166124   6.247   4.212  12.991  0.9334 -0.2464  0.9040
14903TIP3    H266125   6.114   4.190  13.060  0.5363  1.3039  0.6904
14904TIP3   OH266126   5.642   5.766   1.134 -0.4910 -0.1668 -0.0833
14904TIP3    H166127   5.733   5.746   1.112  0.2530  1.0494  1.7037
14904TIP3    H266128   5.602   5.787   1.049  1.3908  1.1547 -0.7302
14905TIP3   OH266129   6.013   5.276  13.692  0.1357  0.2206 -0.3942
14905TIP3    H166130   5.974   5.195  13.658 -0.1891  0.4500 -0.5824
14905TIP3    H266131   5.956   5.301  13.765 -0.1712  0.6417 -0.7700
14906TIP3   OH266132   2.957   1.774  12.160  0.1346 -0.2597  0.8267
14906TIP3    H166133   3.051   1.772  12.146 -0.1109 -2.4994 -1.3053
14906TIP3    H266134   2.941   1.853  12.211  3.0605  0.6323  0.5129
14907TIP3   OH266135   2.859   6.639   5.828  0.0709 -0.5418  0.0149
14907TIP3    H166136   2.794   6.705   5.849  1.7943  0.5194  2.5463
14907TIP3    H266137   2.808   6.563   5.799 -2.0359  1.2634 -1.3371
14908TIP3   OH266138   5.126   0.137   4.547 -0.3097  0.5284  0.1045
14908TIP3    H166139   5.062   0.066   4.541 -1.0331  1.1594  0.1680
14908TIP3    H266140   5.206   0.101   4.509 -1.1429  0.2048 -1.4226
14909TIP3   OH266141   0.818   0.920   0.070 -0.3165 -0.3823  0.1332
14909TIP3    H166142   0.843   0.873   0.150 -2.8393  1.2369  2.0507
14909TIP3    H266143   0.840   1.012   0.089 -0.8433  0.0139 -1.0908
14910TIP3   OH266144   3.188   1.653   4.108  0.1780 -0.3060  0.5042
14910TIP3    H166145   3.153   1.741   4.126  0.1214 -0.4475  1.0805
14910TIP3    H266146   3.185   1.608   4.192 -0.2175 -1.0119  0.1239
14911TIP3   OH266147   1.874   2.771   1.108 -0.0249  0.2107  0.8332
14911TIP3    H166148   1.949   2.798   1.161  0.5023  1.0126 -0.2726
14911TIP3    H266149   1.855   2.848   1.054 -1.9411  0.1689  1.3981
14912TIP3   OH266150   5.677   2.023  11.978  0.2775  0.0706  0.0981
14912TIP3    H166151   5.648   2.027  11.887  0.2276 -1.1595  0.0376
14912TIP3    H266152   5.634   1.945  12.013  1.2554 -0.1637  0.8240
14913TIP3   OH266153   2.003   1.957   1.333  0.4279  0.0639 -0.2003
14913TIP3    H166154   2.064   1.994   1.269  0.0146  0.9329 -0.1026
14913TIP3    H266155   1.917   1.967   1.291 -0.0215  1.9905  1.0757
14914TIP3   OH266156   1.770   3.373   2.856  0.0716  0.1547  0.1346
14914TIP3    H166157   1.837   3.441   2.847 -0.0709  0.4035  0.8641
14914TIP3    H266158   1.741   3.357   2.766 -1.3996  2.5792  0.0703
14915TIP3   OH266159   0.365   1.204  17.185 -0.4605  0.7092  0.4787
14915TIP3    H166160   0.356   1.198  17.280  1.4255 -3.3920  0.6103
14915TIP3    H266161   0.302   1.141  17.151  0.8945 -0.0478 -0.7510
14916TIP3   OH266162   6.126   2.119   2.764  0.2498 -0.1466  0.1879
14916TIP3    H166163   6.168   2.204   2.777 -1.1682  0.5434  0.5434
14916TIP3    H266164   6.097   2.120   2.673  0.5846 -0.4231  0.0762
14917TIP3   OH266165   5.777   1.436  12.573 -0.2364  0.0386 -0.4617
14917TIP3    H166166   5.831   1.476  12.504 -0.7346  0.4785 -0.5969
14917TIP3    H266167   5.782   1.342  12.554 -0.7874  0.1883 -1.4212
14918TIP3   OH266168   0.767   4.391   2.106 -0.2088  0.4065 -0.1181
14918TIP3    H166169   0.844   4.365   2.157 -0.3658 -0.4212 -0.2852
14918TIP3    H266170   0.765   4.486   2.112  0.6116  0.4124  0.2066
14919TIP3   OH266171   6.391   5.534   2.100 -0.0236 -0.6068  0.5505
14919TIP3    H166172   6.320   5.583   2.143 -1.4311 -0.7554 -1.4859
14919TIP3    H266173   6.360   5.443   2.099  0.1384 -0.6592 -0.4255
14920TIP3   OH266174   4.155   5.650  11.070 -0.3023  0.1254 -0.5006
14920TIP3    H166175   4.143   5.650  10.975  1.4788  2.5351 -0.7983
14920TIP3    H266176   4.087   5.709  11.103  0.2562  0.7396 -0.4580
14921TIP3   OH266177   6.511   2.690  16.792 -0.2909  0.2188  0.4741
14921TIP3    H166178   6.577   2.690  16.861  0.7328 -0.3505 -0.4749
14921TIP3    H266179   6.437   2.738  16.830 -0.2668 -1.1800  2.4076
14922TIP3   OH266180   0.269   1.282  12.078 -0.1224  0.1121 -0.4038
14922TIP3    H166181   0.213   1.239  12.013 -0.1102  0.5123 -0.6839
14922TIP3    H266182   0.256   1.375  12.063  0.6055  0.2104 -0.4683
14923TIP3   OH266183   1.277   4.553   1.602  0.4457  0.0251  0.0314
14923TIP3    H166184   1.366   4.522   1.622  0.6818  1.3208  1.1004
14923TIP3    H266185   1.220   4.498   1.657  0.7732  0.6697  1.0425
14924TIP3   OH266186   5.075   1.260   4.881  0.1021  0.2383 -0.1083
14924TIP3    H166187   5.165   1.283   4.901 -0.6005  1.5509  1.8642
14924TIP3    H266188   5.054   1.311   4.802  1.1283 -0.2958 -0.7515
14925TIP3   OH266189   4.426   5.297   3.182 -0.5126 -0.2835  0.2120
14925TIP3    H166190   4.419   5.389   3.206 -0.4049 -1.1457  4.1326
14925TIP3    H266191   4.502   5.293   3.123  0.5259  1.9447  1.3015
14926TIP3   OH266192   2.184   4.704   5.744  0.2128  0.0388  0.3255
14926TIP3    H166193   2.118   4.685   5.810 -1.6400 -0.2021 -1.4993
14926TIP3    H266194   2.143   4.681   5.660  2.9641 -1.0769 -0.8607
14927TIP3   OH266195   5.840   4.069   4.097  0.3097  0.0577 -0.2560
14927TIP3    H166196   5.876   4.040   4.181 -2.3857 -2.2304  0.2681
14927TIP3    H266197   5.872   4.006   4.034 -1.1859 -0.9315 -0.0873
14928TIP3   OH266198   0.121   1.984   3.066  0.3043 -0.0691  0.6330
14928TIP3    H166199   0.039   1.950   3.101 -0.7686  1.4968 -0.2502
14928TIP3    H266200   0.135   1.937   2.984 -0.2856  0.4225  0.2488
14929TIP3   OH266201   2.215   0.640  13.227 -0.2666  0.5798 -0.0658
14929TIP3    H166202   2.135   0.605  13.187 -0.9541 -1.2292  2.6346
14929TIP3    H266203   2.243   0.573  13.289  1.6915  2.4271  1.2072
14930TIP3   OH266204   1.970   2.620   4.965 -0.4392 -0.9021 -0.4023
14930TIP3    H166205   2.045   2.667   5.002 -1.2371 -1.8829  2.8044
14930TIP3    H266206   1.913   2.689   4.933 -0.0136  0.1582  0.9835
14931TIP3   OH266207   1.441   5.638  13.631  0.1282  0.1867 -0.0201
14931TIP3    H166208   1.530   5.649  13.662 -0.1229 -0.2133  0.8781
14931TIP3    H266209   1.397   5.720  13.653 -0.5649 -0.7872  2.5628
14932TIP3   OH266210   1.571   5.208  17.227  0.5106  0.2318 -0.1250
14932TIP3    H166211   1.648   5.214  17.283 -0.1034 -0.3946  0.8253
14932TIP3    H266212   1.572   5.117  17.196 -0.2649 -0.0212  0.5524
14933TIP3   OH266213   5.850   0.746  12.502  0.1484 -0.5705 -0.7425
14933TIP3    H166214   5.756   0.733  12.514  0.2638 -0.3757  0.5408
14933TIP3    H266215   5.857   0.828  12.453 -0.3529 -0.9898 -1.5471
14934TIP3   OH266216   3.957   0.315   5.681  0.2039 -0.4411  0.1337
14934TIP3    H166217   3.914   0.324   5.766 -1.4042 -1.2507 -0.5470
14934TIP3    H266218   3.969   0.221   5.670 -0.1463 -0.3915 -0.7831
14935TIP3   OH266219   3.768   2.922   3.055 -0.3456 -0.5245 -0.6674
14935TIP3    H166220   3.815   2.917   2.972 -0.7156 -0.3675 -0.8842
14935TIP3    H266221   3.719   3.003   3.051 -0.9145 -0.8616 -0.5835
14936TIP3   OH266222   3.248   5.899  14.739 -0.6405 -0.0605  0.0094
14936TIP3    H166223   3.170   5.935  14.781  1.2971  1.0464  2.9950
14936TIP3    H266224   3.283   5.971  14.687 -0.7069 -0.0189  0.0220
14937TIP3   OH266225   4.365   0.295   3.867  0.5374  0.2392 -0.4437
14937TIP3    H166226   4.320   0.379   3.861 -2.4688 -1.2145  0.0268
14937TIP3    H266227   4.298   0.230   3.846  2.4759 -2.1203  0.2158
14938TIP3   OH266228   3.089   6.398  13.898 -0.0935  0.8670  0.2209
14938TIP3    H166229   3.035   6.476  13.894  0.3444  1.1944  0.5875
14938TIP3    H266230   3.175   6.426  13.865 -0.4812  0.0415 -1.5985
14939TIP3   OH266231   4.020   4.111   2.801  1.1633  0.0968  0.7865
14939TIP3    H166232   4.034   4.193   2.754  1.3112 -0.5814 -0.4040
14939TIP3    H266233   4.066   4.123   2.884 -0.7445  2.0621  1.6664
14940TIP3   OH266234   0.898   1.680   0.906 -0.2669 -0.1429 -0.3344
14940TIP3    H166235   0.805   1.701   0.900 -0.5079 -0.7366  0.9332
14940TIP3    H266236   0.905   1.593   0.869 -0.1340  0.0974 -0.8741
14941TIP3   OH266237   2.518   3.471   4.295 -0.7611 -0.5382  0.7716
14941TIP3    H166238   2.516   3.414   4.218  2.0800 -2.2558  1.8411
14941TIP3    H266239   2.543   3.557   4.261  0.4889 -1.2780 -0.2544
14942TIP3   OH266240   4.015   3.449  16.935 -0.6438  0.1425  0.2213
14942TIP3    H166241   4.055   3.404  16.860 -0.6311 -0.3391  0.5134
14942TIP3    H266242   3.928   3.472  16.904 -1.2431 -1.5010  0.5768
14943TIP3   OH266243   2.835   3.497   0.260 -0.3192 -0.2588 -0.1137
14943TIP3    H166244   2.879   3.413   0.276 -0.8085 -0.5128 -0.0770
14943TIP3    H266245   2.845   3.545   0.342 -0.6675 -0.5717  0.1142
14944TIP3   OH266246   6.434   2.162   3.781  0.0077 -0.0288  0.0536
14944TIP3    H166247   6.381   2.189   3.856 -1.6813  3.7432 -2.2195
14944TIP3    H266248   6.396   2.078   3.754 -1.8761  0.4200  1.1228
14945TIP3   OH266249   6.489   1.926   6.175 -0.4093  1.2488  0.1502
14945TIP3    H166250   6.550   1.995   6.200  0.7354  0.4513 -0.3604
14945TIP3    H266251   6.528   1.846   6.208 -0.4889  0.5570 -1.3645
14946TIP3   OH266252   3.727   6.484  13.490  0.3561  0.0486  0.1998
14946TIP3    H166253   3.712   6.479  13.396 -0.4421  0.7802  0.2766
14946TIP3    H266254   3.809   6.533  13.499  0.3027  0.1918 -0.1071
14947TIP3   OH266255   1.948   1.725  11.697  0.5763  0.5701  0.2364
14947TIP3    H166256   1.917   1.702  11.785 -0.4021 -2.5553 -0.8134
14947TIP3    H266257   1.946   1.643  11.648  0.5698  2.2867 -2.8972
14948TIP3   OH266258   1.704   4.046  16.572 -0.6234 -0.1007  0.4538
14948TIP3    H166259   1.617   4.021  16.541 -0.5693  0.3286 -0.0535
14948TIP3    H266260   1.749   4.078  16.494 -0.3368  0.5921  0.8970
14949TIP3   OH266261   2.937   3.368  12.760 -0.5307  0.1280  0.3443
14949TIP3    H166262   3.021   3.399  12.794 -0.7413 -0.9447  1.9165
14949TIP3    H266263   2.918   3.290  12.810 -1.5831 -0.7307 -1.2968
14950TIP3   OH266264   3.072   5.102   2.596 -0.2472  0.1457  0.5206
14950TIP3    H166265   3.120   5.174   2.554 -0.7544 -0.2772 -0.8540
14950TIP3    H266266   3.131   5.027   2.589 -0.1798  0.1649  0.9061
14951TIP3   OH266267   3.956   4.138  12.420 -0.4483  0.5840  0.2909
14951TIP3    H166268   4.026   4.153  12.483 -1.3582  0.3113  1.4287
14951TIP3    H266269   3.880   4.182  12.459 -1.4096 -0.8821  0.1800
14952TIP3   OH266270   1.562   4.307   4.413  0.5728  0.2136 -0.6349
14952TIP3    H166271   1.519   4.296   4.328 -0.3314 -1.0272 -0.0487
14952TIP3    H266272   1.636   4.247   4.410 -1.1500 -2.1234  0.4884
14953TIP3   OH266273   2.154   5.590  13.823  0.1506 -0.1920  0.2640
14953TIP3    H166274   2.081   5.648  13.844  0.9889  0.8683  0.3267
14953TIP3    H266275   2.130   5.506  13.862 -0.6914  0.3402  0.9235
14954TIP3   OH266276   0.083   1.866   4.889 -0.3901 -0.0664 -0.4708
14954TIP3    H166277   0.028   1.862   4.967  1.4934 -0.6810  0.9036
14954TIP3    H266278   0.132   1.784   4.890  1.3611  0.9214 -0.9664
14955TIP3   OH266279   5.661   3.763   4.218 -0.0021  0.1279  0.3755
14955TIP3    H166280   5.645   3.684   4.269  3.1487 -1.4479 -0.7786
14955TIP3    H266281   5.745   3.795   4.251  0.7560  0.6305 -1.8872
14956TIP3   OH266282   1.609   1.068   3.892  0.8247 -0.5859 -0.1785
14956TIP3    H166283   1.595   1.018   3.812 -3.0752  0.6060 -0.4534
14956TIP3    H266284   1.622   1.158   3.862  1.5572 -0.4568  0.4933
14957TIP3   OH266285   5.764   6.663  12.648 -0.2608 -0.0869  0.6969
14957TIP3    H166286   5.757   6.753  12.680 -1.2305 -0.3490  1.2618
14957TIP3    H266287   5.690   6.653  12.588  1.0514  0.1339 -1.0523
14958TIP3   OH266288   1.596   2.628  12.041  0.0323 -0.0705 -0.7809
14958TIP3    H166289   1.586   2.533  12.035 -0.7664 -0.1484  1.2663
14958TIP3    H266290   1.533   2.662  11.978 -0.0917 -0.8768 -1.1145
14959TIP3   OH266291   4.781   5.492   4.636  0.2111 -0.1565  0.6543
14959TIP3    H166292   4.769   5.489   4.731  2.0018  0.7495  0.9378
14959TIP3    H266293   4.828   5.574   4.620 -2.0086  0.8855 -1.2792
14960TIP3   OH266294   4.179   4.551   5.456 -0.1675  0.4943  0.1220
14960TIP3    H166295   4.209   4.468   5.494 -0.2927 -0.3513 -1.4980
14960TIP3    H266296   4.233   4.562   5.377 -1.3103  1.0521 -0.6146
14961TIP3   OH266297   6.227   0.111  17.114 -0.4291 -0.8912 -0.0988
14961TIP3    H166298   6.297   0.047  17.128 -0.6607 -1.1998 -0.3343
14961TIP3    H266299   6.167   0.068  17.052 -2.2330 -1.7202  2.0782
14962TIP3   OH266300   1.771   3.944  13.515  0.6422 -0.5837 -0.3503
14962TIP3    H166301   1.811   3.925  13.600 -0.3076 -0.2488  0.1886
14962TIP3    H266302   1.679   3.961  13.535  0.5789  0.3435 -1.3369
14963TIP3   OH266303   3.266   1.570  15.879  0.3800  0.1865  0.1465
14963TIP3    H166304   3.241   1.662  15.878  1.6985  0.5685 -1.2262
14963TIP3    H266305   3.189   1.523  15.849 -0.7647  0.6683  2.1285
14964TIP3   OH266306   3.809   0.545  13.740 -0.1647  0.7622 -0.1716
14964TIP3    H166307   3.800   0.451  13.754 -0.0498  0.9238  1.1016
14964TIP3    H266308   3.792   0.557  13.647 -0.5947 -0.4623 -0.2691
14965TIP3   OH266309   0.190   3.108   2.608  0.0005 -0.2611  0.3752
14965TIP3    H166310   0.241   3.153   2.540  0.8117 -2.5183 -0.6406
14965TIP3    H266311   0.248   3.106   2.684 -0.3361  0.9832  0.6946
14966TIP3   OH266312   4.806   5.661   0.675  0.0689  0.2600 -0.1353
14966TIP3    H166313   4.862   5.593   0.711  0.0695  1.2929  1.9622
14966TIP3    H266314   4.726   5.658   0.728  0.2294  2.1155  0.2939
14967TIP3   OH266315   1.451   2.515   5.105  0.8543  0.1440 -0.2183
14967TIP3    H166316   1.360   2.511   5.135  1.2489  0.4682  1.0548
14967TIP3    H266317   1.451   2.462   5.025 -0.5839  0.6822 -0.6175
14968TIP3   OH266318   3.931   6.302  15.691  0.2568  0.0839 -0.3191
14968TIP3    H166319   3.933   6.207  15.677 -0.6910 -0.0441  0.3007
14968TIP3    H266320   3.949   6.312  15.784 -2.5816  0.2892  0.2864
14969TIP3   OH266321   2.049   6.326  12.231 -0.2281  0.5606  0.1318
14969TIP3    H166322   1.986   6.287  12.170 -1.6514  1.1022  1.1843
14969TIP3    H266323   2.009   6.410  12.257  1.2428  1.2359  0.3525
14970TIP3   OH266324   5.133   0.524   5.870 -0.6567 -0.6600 -0.0443
14970TIP3    H166325   5.225   0.501   5.873 -0.3138  0.6871  0.6305
14970TIP3    H266326   5.114   0.559   5.957 -1.7439 -0.7026 -0.2461
14971TIP3   OH266327   2.634   4.496   4.220  0.0826  0.6822 -0.0177
14971TIP3    H166328   2.563   4.551   4.185 -2.0338 -1.0479  1.2930
14971TIP3    H266329   2.664   4.543   4.297  2.0012  2.5110 -1.7458
14972TIP3   OH266330   1.154   0.013  12.172  0.0736  0.4770  0.5077
14972TIP3    H166331   1.071  -0.034  12.180  1.1370 -1.4475  0.8246
14972TIP3    H266332   1.139   0.076  12.101 -1.1513 -0.9739 -0.5960
14973TIP3   OH266333   4.505   6.527   3.614  0.1571  0.5017 -0.6681
14973TIP3    H166334   4.491   6.621   3.619 -0.8913  0.2955  1.9029
14973TIP3    H266335   4.425   6.493   3.575  1.0249  0.7072 -2.7526
14974TIP3   OH266336   6.519   4.395  15.310  0.2784  0.2654  0.2211
14974TIP3    H166337   6.460   4.322  15.287 -0.9299  0.1297  3.2723
14974TIP3    H266338   6.604   4.368  15.276 -0.5705 -1.5616 -0.6321
14975TIP3   OH266339   3.044   4.247  12.112  0.1532 -0.0772 -0.9957
14975TIP3    H166340   3.078   4.183  12.175 -0.7775 -0.4902 -0.8944
14975TIP3    H266341   3.039   4.329  12.161 -2.2634 -0.7766  0.0692
14976TIP3   OH266342   2.044   2.429   1.105  0.0274 -0.8953 -0.2124
14976TIP3    H166343   2.096   2.460   1.179 -0.2127 -1.8108  0.3526
14976TIP3    H266344   2.093   2.458   1.028  0.3648 -0.0723  0.2931
14977TIP3   OH266345   6.746   4.774   4.499  0.2511 -0.1272  0.5120
14977TIP3    H166346   6.701   4.819   4.428 -2.0445 -0.9329  1.3479
14977TIP3    H266347   6.695   4.795   4.577  0.8856 -1.7216  1.4051
14978TIP3   OH266348   0.612   6.554   6.143 -0.3023 -0.2342 -0.5895
14978TIP3    H166349   0.613   6.641   6.103 -1.2076 -0.1371 -0.4215
14978TIP3    H266350   0.520   6.529   6.144 -0.3073 -0.2573  1.3917
14979TIP3   OH266351   0.370   0.015  14.697 -0.1664  0.5050  0.2848
14979TIP3    H166352   0.408   0.102  14.689 -0.4364  0.4561 -2.1823
14979TIP3    H266353   0.412  -0.037  14.629  0.5455 -1.5598  2.1669
14980TIP3   OH266354   5.499   3.141   5.309 -0.0496 -0.2147 -0.5000
14980TIP3    H166355   5.424   3.196   5.334 -1.6613 -1.4285 -2.3480
14980TIP3    H266356   5.569   3.168   5.368 -1.7317  1.4660  0.8686
14981TIP3   OH266357   2.698   2.687  12.404 -0.2170 -0.0960 -0.2437
14981TIP3    H166358   2.709   2.711  12.496 -1.0625  1.9876 -0.6376
14981TIP3    H266359   2.607   2.710  12.384  0.4331  1.0813 -2.0356
14982TIP3   OH266360   5.488   2.857   3.359 -0.4845 -0.0437 -0.6022
14982TIP3    H166361   5.574   2.887   3.389 -0.8807  0.0901  0.4164
14982TIP3    H266362   5.438   2.841   3.439 -1.5670  0.3046 -1.1885
14983TIP3   OH266363   3.427   5.162   1.634 -0.2009  0.0032  0.2771
14983TIP3    H166364   3.356   5.126   1.581  0.5215  1.4539 -1.7663
14983TIP3    H266365   3.473   5.086   1.668 -2.0481 -0.9584  0.7343
14984TIP3   OH266366   4.769   4.040   0.174 -0.2802 -0.0752 -0.3216
14984TIP3    H166367   4.717   4.120   0.177 -1.5955 -0.4777 -4.8433
14984TIP3    H266368   4.749   3.995   0.255 -3.4796  1.8970  0.1543
14985TIP3   OH266369   1.050   1.342  12.547  0.0175 -0.1485  0.5126
14985TIP3    H166370   1.021   1.425  12.585 -2.1630 -0.3149 -0.6065
14985TIP3    H266371   1.145   1.350  12.542 -0.0624  1.9270  1.2248
14986TIP3   OH266372   3.495   4.527  14.559 -0.3794  0.3378  1.1023
14986TIP3    H166373   3.455   4.546  14.474 -0.9170  1.4856  1.5884
14986TIP3    H266374   3.552   4.602  14.576 -0.3106  0.1426  1.7703
14987TIP3   OH266375   4.298   3.593   3.668  0.6847  0.0685 -0.2200
14987TIP3    H166376   4.359   3.614   3.739  1.6247 -0.1786 -0.9297
14987TIP3    H266377   4.320   3.503   3.644  0.7047  0.3151 -1.1372
14988TIP3   OH266378   0.390   3.396  13.832  0.0550  0.1989  0.4752
14988TIP3    H166379   0.386   3.478  13.881 -1.8956 -0.4355  1.5076
14988TIP3    H266380   0.303   3.387  13.793 -0.3843 -2.1737  1.8057
14989TIP3   OH266381   6.626   2.577  11.364 -0.2531 -0.3530  0.3478
14989TIP3    H166382   6.667   2.538  11.287  1.5163 -0.3116  1.2029
14989TIP3    H266383   6.663   2.528  11.438 -0.1453  1.0905  1.2879
14990TIP3   OH266384   5.763   2.141   4.006  1.0695  0.2475 -0.6827
14990TIP3    H166385   5.724   2.092   4.079 -0.0092  1.4209 -0.4401
14990TIP3    H266386   5.824   2.079   3.966  0.2350 -1.0781  0.0088
14991TIP3   OH266387   0.879   5.310   5.331 -0.3620  0.0084 -0.2858
14991TIP3    H166388   0.886   5.402   5.304  0.0458  0.4861  1.3158
14991TIP3    H266389   0.892   5.312   5.426 -0.9728 -1.6461 -0.1360
14992TIP3   OH266390   5.062   0.643   0.705  0.5213  0.0819 -0.2903
14992TIP3    H166391   5.063   0.722   0.651 -0.6674  0.1730 -0.2051
14992TIP3    H266392   4.983   0.652   0.759  0.8490 -0.7481  0.3532
14993TIP3   OH266393   2.305   5.588   0.498  0.5815 -0.6179 -0.4582
14993TIP3    H166394   2.269   5.553   0.417 -0.0601  0.4358 -0.6415
14993TIP3    H266395   2.239   5.650   0.529  1.6351  0.3442 -0.0948
14994TIP3   OH266396   2.384   4.102   1.923 -0.1564  0.0074 -0.1381
14994TIP3    H166397   2.360   4.140   1.839 -0.1284 -1.1632 -0.6854
14994TIP3    H266398   2.313   4.040   1.943  0.3951 -0.5440  0.1524
14995TIP3   OH266399   3.939   6.674   4.773 -0.2843 -0.2052 -0.4271
14995TIP3    H166400   3.881   6.750   4.781 -0.6308 -0.3214 -1.5743
14995TIP3    H266401   3.980   6.666   4.859 -1.7038  0.1034  0.3146
14996TIP3   OH266402   2.586   6.244  15.054 -0.1075  0.4808  0.1189
14996TIP3    H166403   2.533   6.178  15.098 -0.4198 -0.0307 -1.0010
14996TIP3    H266404   2.529   6.321  15.048  0.3027  0.9304  1.5457
14997TIP3   OH266405   5.013   2.266   4.658  0.1352  0.5883  0.4373
14997TIP3    H166406   4.930   2.224   4.635 -0.0599  1.2055 -0.0161
14997TIP3    H266407   5.075   2.194   4.664 -0.0169  0.2766 -1.1337
14998TIP3   OH266408   3.905   3.388  16.095 -0.2030  0.2080 -0.2796
14998TIP3    H166409   3.894   3.480  16.117 -0.2962  0.2467 -0.4886
14998TIP3    H266410   3.848   3.374  16.020 -0.0458  0.0259 -0.3664
14999TIP3   OH266411   5.309   4.607  16.957 -0.3987  0.4959 -0.5368
14999TIP3    H166412   5.224   4.641  16.985 -0.0709  0.6840  0.2523
14999TIP3    H266413   5.324   4.531  17.014 -1.3018 -1.2780 -2.5335
15000TIP3   OH266414   4.818   2.061  14.885 -0.8290 -0.4087 -0.6715
15000TIP3    H166415   4.845   1.969  14.894  0.7729  0.1325  0.3590
15000TIP3    H266416   4.753   2.073  14.954 -0.1022 -0.4337  0.0202
15001TIP3   OH266417   0.807   4.458   0.811  0.5041  0.5109 -0.2068
15001TIP3    H166418   0.780   4.439   0.721 -0.4336  0.9303 -0.0300
15001TIP3    H266419   0.885   4.513   0.801  0.7632  0.0587 -0.7475
15002TIP3   OH266420   3.548   6.625   0.149 -0.1427 -0.2903 -0.0160
15002TIP3    H166421   3.511   6.709   0.121 -0.6274  0.2559  2.0803
15002TIP3    H266422   3.499   6.560   0.099 -2.9679  0.4883  1.5320
15003TIP3   OH266423   2.247   2.951   2.396  0.4596 -0.1669 -0.1448
15003TIP3    H166424   2.327   3.003   2.392  1.0238 -0.8574  1.4682
15003TIP3    H266425   2.187   3.004   2.448  0.2593 -0.1642 -0.3745
15004TIP3   OH266426   1.479   6.276  12.798  0.3005  0.4712 -0.6511
15004TIP3    H166427   1.507   6.213  12.732  0.5014 -0.5459  0.3751
15004TIP3    H266428   1.551   6.277  12.861  0.0218  1.2815 -0.3383
15005TIP3   OH266429   3.300   0.990  13.496 -0.3423  0.4171  0.1551
15005TIP3    H166430   3.256   1.073  13.474 -1.8755 -0.6497 -1.0260
15005TIP3    H266431   3.303   0.942  13.413  0.8138 -0.6023  0.7566
15006TIP3   OH266432   6.343   5.130   1.060  0.3297 -0.7452 -0.4994
15006TIP3    H166433   6.266   5.149   1.114  0.2669  1.8154 -1.3207
15006TIP3    H266434   6.413   5.112   1.122 -0.5816 -1.5969  0.3038
15007TIP3   OH266435   4.121   0.755   4.114 -0.3498  0.0739 -0.2608
15007TIP3    H166436   4.146   0.692   4.047 -1.5687 -2.2839  1.3376
15007TIP3    H266437   4.203   0.793   4.144  0.2767  0.5797 -2.4187
15008TIP3   OH266438   5.586   5.252   3.371  0.3266 -0.0297  0.9218
15008TIP3    H166439   5.502   5.280   3.408 -1.0845  0.0353 -2.0619
15008TIP3    H266440   5.580   5.156   3.369 -0.3926  0.0147 -0.6597
15009TIP3   OH266441   2.432   2.799   1.835  0.4702 -0.1586 -0.2658
15009TIP3    H166442   2.415   2.894   1.837 -1.2996 -0.4186  2.6071
15009TIP3    H266443   2.484   2.783   1.914  0.8304 -1.5858 -0.7773
15010TIP3   OH266444   5.672   3.016   2.014  0.0655  0.2569 -0.0939
15010TIP3    H166445   5.740   3.078   1.988  0.7917 -0.2948  0.4773
15010TIP3    H266446   5.606   3.070   2.058 -0.4728  0.9835 -1.6955
15011TIP3   OH266447   3.842   6.271  13.795  0.0709 -0.3081 -0.3735
15011TIP3    H166448   3.781   6.345  13.795  0.7300  0.2485 -0.0933
15011TIP3    H266449   3.822   6.223  13.875  1.0900  0.8266  0.6275
15012TIP3   OH266450   6.573   6.485  11.552  0.2757 -0.0537  0.4033
15012TIP3    H166451   6.610   6.428  11.485  0.8383  0.2228  0.4717
15012TIP3    H266452   6.518   6.427  11.605  2.3956 -1.0045  1.7050
15013TIP3   OH266453   0.454   2.085   2.613 -0.0486 -0.1804 -0.5240
15013TIP3    H166454   0.463   2.120   2.524 -0.3020 -0.7490 -0.7818
15013TIP3    H266455   0.359   2.072   2.625  0.0773 -1.5252 -0.7522
15014TIP3   OH266456   5.390   4.695  14.472  0.6264 -0.0909  0.1915
15014TIP3    H166457   5.378   4.603  14.495  2.6361 -0.0542  1.6668
15014TIP3    H266458   5.467   4.723  14.522  1.5226  1.7613 -2.0187
15015TIP3   OH266459   6.487   2.703  13.365 -0.5491  0.3215 -0.3718
15015TIP3    H166460   6.508   2.793  13.340 -1.0313  0.4643 -0.2817
15015TIP3    H266461   6.564   2.652  13.340 -0.2448  0.7712 -0.3591
15016TIP3   OH266462   1.619   2.754   4.406 -0.3171  0.2919  0.4812
15016TIP3    H166463   1.633   2.802   4.324  0.1436  0.0425  0.4070
15016TIP3    H266464   1.526   2.762   4.424 -0.3908  0.4818  0.0153
15017TIP3   OH266465   4.873   1.967   1.273 -0.2677 -0.3740 -0.2563
15017TIP3    H166466   4.951   1.921   1.242 -0.6909 -1.9176  0.8395
15017TIP3    H266467   4.802   1.934   1.218 -0.0891  1.6947 -1.8585
15018TIP3   OH266468   2.534   4.306  12.797 -0.0999  0.1769  0.4129
15018TIP3    H166469   2.538   4.338  12.707 -0.4470  0.7278  0.5865
15018TIP3    H266470   2.536   4.211  12.789 -1.3467  0.1769 -0.2607
15019TIP3   OH266471   6.776   1.231  11.083 -0.1808 -0.3082  0.5375
15019TIP3    H166472   6.730   1.304  11.124 -0.4942 -0.2297  0.0597
15019TIP3    H266473   6.868   1.256  11.086 -0.4406  1.2189 -1.6923
15020TIP3   OH266474   5.529   5.012   1.142  0.1740  0.0756 -0.1936
15020TIP3    H166475   5.478   4.933   1.123  2.0549 -1.3109  0.3263
15020TIP3    H266476   5.465   5.083   1.132 -1.9202 -1.5722  0.6357
15021TIP3   OH266477   2.869   0.810   3.296 -0.1483  0.0415 -0.0589
15021TIP3    H166478   2.931   0.844   3.360  0.8587  0.1626 -1.0657
15021TIP3    H266479   2.817   0.886   3.270 -0.4121  0.0362  0.4468
15022TIP3   OH266480   4.940   6.143   1.333 -0.1021 -0.2656  0.4987
15022TIP3    H166481   4.926   6.237   1.345  1.3893 -0.1232  1.3495
15022TIP3    H266482   5.035   6.132   1.342 -0.3830 -2.0272  1.8504
15023TIP3   OH266483   6.094   1.601   0.014 -0.8471  0.1723 -0.2058
15023TIP3    H166484   6.044   1.600   0.096  0.8235  0.1980  0.8795
15023TIP3    H266485   6.139   1.686   0.015 -2.3071  1.0422 -2.1669
15024TIP3   OH266486   4.311   0.391   0.975  0.4142  0.6335  0.3051
15024TIP3    H166487   4.357   0.333   0.913 -0.0743 -2.4801  2.5899
15024TIP3    H266488   4.257   0.447   0.919  2.1212  0.0266 -2.1601
15025TIP3   OH266489   3.125   5.061   2.281 -0.2306  0.2192  0.2308
15025TIP3    H166490   3.129   5.139   2.225 -1.2718  0.5257  0.5539
15025TIP3    H266491   3.036   5.062   2.316  0.3942  0.0635  1.9286
15026TIP3   OH266492   2.846   2.166  15.355  0.0230 -0.1193 -0.2335
15026TIP3    H166493   2.875   2.080  15.387 -1.3267 -0.7794 -0.6892
15026TIP3    H266494   2.906   2.228  15.395  0.6425 -1.2291  0.6203
15027TIP3   OH266495   3.986   5.416   4.571  0.2272  0.1086 -0.8577
15027TIP3    H166496   4.040   5.494   4.555  0.7783 -0.3764 -1.4465
15027TIP3    H266497   4.030   5.370   4.641  0.1712  0.0814 -0.8404
15028TIP3   OH266498   0.858   3.977  13.819  0.1871  0.3047  0.1374
15028TIP3    H166499   0.836   4.070  13.811 -0.6494  0.1595  0.6286
15028TIP3    H266500   0.940   3.976  13.869 -0.8046  0.7154  1.8383
15029TIP3   OH266501   0.132   1.676   0.132  0.4151 -0.2333  0.3149
15029TIP3    H166502   0.153   1.627   0.052  0.1437 -0.4487  0.3713
15029TIP3    H266503   0.094   1.758   0.101  0.5851 -0.1896  0.2209
15030TIP3   OH266504   2.579   6.045  14.289  0.7714  0.1045  0.3343
15030TIP3    H166505   2.651   5.983  14.297  0.8744  0.1118 -0.4822
15030TIP3    H266506   2.579   6.071  14.197 -0.7949 -0.5320  0.1215
15031TIP3   OH266507   5.945   1.728   0.532 -0.2049 -0.5864  0.2061
15031TIP3    H166508   5.913   1.680   0.608 -0.6394  0.5619  0.7746
15031TIP3    H266509   6.040   1.719   0.536 -0.3034 -1.9554 -0.1001
15032TIP3   OH266510   3.598   5.333  11.195  0.0556  0.0280  0.2863
15032TIP3    H166511   3.673   5.319  11.253 -1.6143 -3.3201  1.9034
15032TIP3    H266512   3.532   5.373  11.251 -0.0668  1.1471 -0.6184
15033TIP3   OH266513   0.244   6.710   2.952 -0.0434  0.3881  0.8915
15033TIP3    H166514   0.185   6.636   2.962 -0.6036  0.9348  1.8202
15033TIP3    H266515   0.267   6.711   2.859 -0.3173 -0.7171  0.8062
15034TIP3   OH266516   0.237   1.972  14.524 -0.2038  0.9126  0.2433
15034TIP3    H166517   0.216   2.046  14.581  0.5711  2.0816 -0.9252
15034TIP3    H266518   0.321   1.996  14.484  0.5816 -1.0710  0.5863
15035TIP3   OH266519   3.594   1.388   1.967 -0.3144  0.3641 -0.1342
15035TIP3    H166520   3.688   1.381   1.978 -0.0909  0.2829 -1.8509
15035TIP3    H266521   3.563   1.297   1.969 -0.7054  0.4837  2.7616
15036TIP3   OH266522   1.982   2.066  11.193 -0.9360  0.3503  0.1201
15036TIP3    H166523   2.000   2.054  11.286 -0.3117 -2.5030 -0.2631
15036TIP3    H266524   2.068   2.060  11.151 -1.3832 -0.1873 -0.7512
15037TIP3   OH266525   3.564   3.480  14.673 -0.0280 -0.0662 -0.1633
15037TIP3    H166526   3.629   3.545  14.644 -1.1704  1.3841  0.3863
15037TIP3    H266527   3.539   3.434  14.593  1.2348 -0.2563 -0.4741
15038TIP3   OH266528   0.266   5.237  15.748  0.3817 -0.5772 -0.0529
15038TIP3    H166529   0.345   5.186  15.767 -0.7882 -1.8616  1.6640
15038TIP3    H266530   0.249   5.220  15.655  1.0146 -1.8991  0.0428
15039TIP3   OH266531   1.865   3.390  12.782 -0.2923  0.1775 -0.1643
15039TIP3    H166532   1.796   3.366  12.720  0.2366 -1.3683 -0.1963
15039TIP3    H266533   1.852   3.331  12.856  0.2340  0.7320  0.3730
15040TIP3   OH266534   4.795   2.237  13.897 -0.0764 -0.4804  0.4142
15040TIP3    H166535   4.808   2.327  13.928  0.6542  1.0859 -3.8291
15040TIP3    H266536   4.862   2.186  13.944  2.0133  1.9415  0.2709
15041TIP3   OH266537   5.941   0.983  10.554 -0.3741  0.2120 -0.1479
15041TIP3    H166538   5.892   1.062  10.577 -0.6433 -0.3862  1.5062
15041TIP3    H266539   6.029   0.998  10.589 -0.7130 -0.6104  1.1283
15042TIP3   OH266540   5.169   3.724  11.258 -0.3408 -0.0117 -0.2488
15042TIP3    H166541   5.102   3.744  11.324 -0.0767  0.6041 -0.1615
15042TIP3    H266542   5.226   3.660  11.301 -1.9630 -2.0514 -1.0104
15043TIP3   OH266543   5.561   0.254  16.961  0.7664 -0.4859 -0.5864
15043TIP3    H166544   5.612   0.175  16.979 -0.2136 -0.9957  0.0294
15043TIP3    H266545   5.626   0.324  16.958  1.5240 -1.1492 -0.0512
15044TIP3   OH266546   2.680   5.584  13.551  0.3664 -0.4016 -0.1237
15044TIP3    H166547   2.604   5.579  13.609  0.0551  1.5846 -0.2836
15044TIP3    H266548   2.678   5.504  13.500 -0.7962 -1.0239  0.8699
15045TIP3   OH266549   1.752   4.111   0.768 -0.1931 -0.3828 -0.3209
15045TIP3    H166550   1.829   4.063   0.798  0.2896  0.7732  0.3244
15045TIP3    H266551   1.777   4.144   0.681 -0.1462 -0.4361 -0.3276
15046TIP3   OH266552   4.732   2.056   5.163  0.2067  0.0562 -0.3919
15046TIP3    H166553   4.643   2.044   5.129 -0.3883  0.9617  0.7719
15046TIP3    H266554   4.740   2.151   5.177  1.8560  0.1732 -1.7378
15047TIP3   OH266555   0.000   3.041  17.233  0.0259 -0.5434 -0.3048
15047TIP3    H166556  -0.052   2.986  17.174 -0.2742 -0.5305 -0.0553
15047TIP3    H266557   0.011   3.123  17.185 -0.6028 -0.3702 -0.1669
15048TIP3   OH266558   1.517   0.005   5.442  0.9124 -0.3735  0.0611
15048TIP3    H166559   1.554   0.067   5.379  0.8791  0.3292  0.7031
15048TIP3    H266560   1.507   0.057   5.522  1.0369 -1.2628  0.6677
15049TIP3   OH266561   1.955   1.637   2.651  0.0743 -0.1836  0.6258
15049TIP3    H166562   2.043   1.605   2.671  0.3289  0.2637  0.2423
15049TIP3    H266563   1.940   1.611   2.560 -0.5757 -1.0966  0.9829
15050TIP3   OH266564   4.452   3.584  14.701  0.7490 -0.9845 -0.5496
15050TIP3    H166565   4.415   3.672  14.695  1.2128 -0.8073 -0.8764
15050TIP3    H266566   4.482   3.577  14.792  0.4890 -0.9013 -0.4551
15051TIP3   OH266567   1.841   4.314  16.476  0.6555 -0.3278  0.1812
15051TIP3    H166568   1.917   4.256  16.464  0.9774  0.0850  0.2264
15051TIP3    H266569   1.799   4.316  16.390 -0.5749 -2.2970  0.6487
15052TIP3   OH266570   4.486   4.110   2.922 -0.3778  0.1326 -0.3334
15052TIP3    H166571   4.460   4.074   2.838 -0.5191  0.5491 -0.4735
15052TIP3    H266572   4.446   4.197   2.924 -0.1475  0.2333  0.0442
15053TIP3   OH266573   0.594   3.175   3.227  0.3147 -0.2812  0.3406
15053TIP3    H166574   0.536   3.111   3.185  0.0663 -1.0477  1.7826
15053TIP3    H266575   0.540   3.253   3.238 -0.0948 -0.5982  0.6110
15054TIP3   OH266576   3.887   0.884  14.704 -0.1862  0.6580 -0.3630
15054TIP3    H166577   3.857   0.975  14.698 -0.3155  0.6532  0.1195
15054TIP3    H266578   3.833   0.836  14.641 -0.7487  0.7617  0.0338
15055TIP3   OH266579   1.517   5.867  16.866  0.6372  0.4899 -0.0266
15055TIP3    H166580   1.429   5.839  16.843  0.2391  1.3562  0.4232
15055TIP3    H266581   1.570   5.846  16.788  0.4283 -1.6920  0.3476
15056TIP3   OH266582   1.168   0.072  11.306  0.3699  0.6746 -0.2813
15056TIP3    H166583   1.245   0.095  11.253  0.1541  1.5352 -0.2436
15056TIP3    H266584   1.199   0.078  11.396  0.1814  1.3538 -0.2557
15057TIP3   OH266585   5.234   4.254   4.642 -0.3968 -0.5486 -0.3724
15057TIP3    H166586   5.245   4.264   4.548 -2.6529 -4.0856 -1.2174
15057TIP3    H266587   5.308   4.199   4.669  0.0223  0.1261 -0.1121
15058TIP3   OH266588   0.102   5.055  13.874  0.0379  0.1198 -0.3518
15058TIP3    H166589   0.046   4.978  13.878  0.1216  0.0087 -1.1160
15058TIP3    H266590   0.086   5.101  13.956  0.4325 -1.0178  0.3869
15059TIP3   OH266591   4.368   0.257   4.539 -0.0890 -0.2172  0.5055
15059TIP3    H166592   4.408   0.180   4.500  1.9209  0.6805  0.6749
15059TIP3    H266593   4.308   0.290   4.471  1.3870 -0.1632 -0.8224
15060TIP3   OH266594   2.411   1.505   4.697 -0.2894 -0.9957 -0.0025
15060TIP3    H166595   2.333   1.561   4.688  0.4383  0.2585  1.1403
15060TIP3    H266596   2.381   1.432   4.752 -0.9582 -1.1360 -0.5409
15061TIP3   OH266597   0.549   2.028  14.749  0.3923 -0.3922  0.7520
15061TIP3    H166598   0.556   2.091  14.676  0.3001  0.2929  1.3250
15061TIP3    H266599   0.529   1.945  14.706 -0.8250  0.2236  0.0582
15062TIP3   OH266600   1.692   5.490   3.129 -0.4062 -0.7566  0.3507
15062TIP3    H166601   1.710   5.459   3.218  0.2369  0.2447  0.5873
15062TIP3    H266602   1.634   5.565   3.142  0.8174  0.2759  0.0342
15063TIP3   OH266603   3.158   1.238  12.829  0.3184 -0.0529 -0.0827
15063TIP3    H166604   3.175   1.156  12.874 -1.1924  0.9745  2.5952
15063TIP3    H266605   3.204   1.304  12.881  1.6861  0.8677 -2.2899
15064TIP3   OH266606   3.295   5.650  16.317  0.1902 -0.2143 -0.0663
15064TIP3    H166607   3.214   5.631  16.364  0.7620 -1.5142  0.4708
15064TIP3    H266608   3.306   5.577  16.257  1.0116 -0.1251 -0.0426
15065TIP3   OH266609   6.456   0.859  13.545  0.7568 -0.4980 -0.1098
15065TIP3    H166610   6.537   0.861  13.596  1.1933  0.0762 -0.8055
15065TIP3    H266611   6.417   0.946  13.557  1.1749 -0.1413 -1.2274
15066TIP3   OH266612   0.989   5.684   2.965 -0.0253 -0.3525 -0.7060
15066TIP3    H166613   0.909   5.633   2.952 -0.1287 -0.1067 -1.0594
15066TIP3    H266614   1.060   5.624   2.943 -0.0304 -1.0092  0.9274
15067TIP3   OH266615   0.440   6.724   1.399 -0.3815  0.4201  0.1461
15067TIP3    H166616   0.476   6.650   1.349 -0.5667 -0.2716  1.0065
15067TIP3    H266617   0.509   6.746   1.461 -0.5666  0.5664  0.3010
15068TIP3   OH266618   6.589   6.166  17.016  0.1506  0.1516 -0.4000
15068TIP3    H166619   6.615   6.124  17.098 -0.1979 -1.3417 -1.0186
15068TIP3    H266620   6.533   6.238  17.043 -0.3450 -0.6075  0.6659
15069TIP3   OH266621   4.992   4.992  13.272 -0.6277 -0.1272 -0.3383
15069TIP3    H166622   5.004   4.899  13.292  0.7242 -0.0630 -0.7502
15069TIP3    H266623   5.023   5.037  13.350  2.7990  0.0614 -1.6333
15070TIP3   OH266624   0.890   1.338  13.812 -0.9539 -0.4436  0.2634
15070TIP3    H166625   0.841   1.415  13.838 -1.9591 -0.2548 -1.8970
15070TIP3    H266626   0.935   1.364  13.731 -0.0420 -1.6432  0.3518
15071TIP3   OH266627   6.711   4.513   2.551  0.8292 -0.7858  0.1186
15071TIP3    H166628   6.749   4.598   2.530 -0.2499 -0.3013  0.0182
15071TIP3    H266629   6.679   4.523   2.640  0.3025 -0.9293 -0.0514
15072TIP3   OH266630   2.473   2.351   5.676 -0.4600  0.5296 -0.4496
15072TIP3    H166631   2.522   2.427   5.708  0.6727  0.4062 -1.7975
15072TIP3    H266632   2.455   2.299   5.754  1.0876  0.8600  0.1636
15073TIP3   OH266633   1.335   5.364   0.191  0.2468 -0.8053 -1.1609
15073TIP3    H166634   1.414   5.310   0.193  1.5748  1.0229 -0.3938
15073TIP3    H266635   1.360   5.441   0.140 -0.3400  0.7394  0.7607
15074TIP3   OH266636   1.730   6.001   3.735 -0.2315  0.8540 -0.1157
15074TIP3    H166637   1.645   6.034   3.765 -0.3362  0.1408  0.4109
15074TIP3    H266638   1.739   5.916   3.779  0.9363  1.1005  0.1490
15075TIP3   OH266639   2.347   4.199  15.421  0.0516  0.6095 -0.1783
15075TIP3    H166640   2.341   4.131  15.488 -0.9324 -0.2413 -1.0859
15075TIP3    H266641   2.420   4.255  15.449  0.0028 -0.0295  1.2959
15076TIP3   OH266642   5.863   5.882   1.438  0.1835 -0.0931 -0.1769
15076TIP3    H166643   5.861   5.891   1.534 -0.9785 -0.1829 -0.1719
15076TIP3    H266644   5.795   5.818   1.419 -0.5639  0.9433 -1.1548
15077TIP3   OH266645   0.787   1.781   3.119  0.0695  0.4216 -0.1674
15077TIP3    H166646   0.720   1.714   3.108 -0.9148  1.4858 -0.8298
15077TIP3    H266647   0.848   1.766   3.046 -0.9060  1.0877 -1.1516
15078TIP3   OH266648   1.073   0.473   3.226 -0.3215 -0.0916  0.0003
15078TIP3    H166649   1.150   0.449   3.278 -0.5157 -0.2093  0.2312
15078TIP3    H266650   1.018   0.395   3.226 -0.7644  0.2208  0.4162
15079TIP3   OH266651   0.408   3.512  16.350 -0.8916  0.0723 -0.2486
15079TIP3    H166652   0.483   3.558  16.387 -0.8304 -0.3980  0.2170
15079TIP3    H266653   0.340   3.579  16.340  0.0417  0.8198 -2.0181
15080TIP3   OH266654   0.597   2.126  12.389 -0.2535  0.7561  0.8589
15080TIP3    H166655   0.668   2.062  12.390  0.0090  1.0164  0.0686
15080TIP3    H266656   0.592   2.159  12.478 -0.1412 -0.0991  1.1850
15081TIP3   OH266657   5.958   1.669  17.042  0.6527 -0.3727  0.9499
15081TIP3    H166658   5.942   1.578  17.014  0.3531 -0.6396  1.9447
15081TIP3    H266659   6.018   1.661  17.116  0.6507  0.2519  1.0212
15082TIP3   OH266660   6.064   5.897  13.360 -0.3857 -0.0775  0.1928
15082TIP3    H166661   6.088   5.909  13.268 -0.8302 -0.4509  0.0250
15082TIP3    H266662   5.982   5.847  13.357  0.4845 -1.6266  0.8158
15083TIP3   OH266663   6.496   5.669  12.058 -0.1396  0.2649 -0.2528
15083TIP3    H166664   6.488   5.642  12.149 -1.8087  0.2185 -0.3863
15083TIP3    H266665   6.406   5.684  12.029  0.2036 -1.3140 -2.3845
15084TIP3   OH266666   6.105   5.469   2.860 -0.1437  0.0781 -0.3780
15084TIP3    H166667   6.126   5.533   2.792 -0.6292  0.3562 -0.2700
15084TIP3    H266668   6.190   5.436   2.889  0.0420 -0.9943 -2.0047
15085TIP3   OH266669   5.456   1.409   5.478  0.3386  0.3900 -0.2079
15085TIP3    H166670   5.438   1.501   5.457 -3.1891 -0.0349  0.2708
15085TIP3    H266671   5.461   1.366   5.393  1.9222  0.9742 -0.4332
15086TIP3   OH266672   6.777   4.610   3.188 -0.8323 -0.2545  0.1797
15086TIP3    H166673   6.765   4.575   3.277  0.1990  2.2049  1.3708
15086TIP3    H266674   6.828   4.542   3.143 -1.3684 -1.5541  1.4241
15087TIP3   OH266675   5.477   1.476  10.889  0.1276  0.6903  0.3516
15087TIP3    H166676   5.388   1.477  10.856 -0.1875  0.2042  1.1698
15087TIP3    H266677   5.532   1.472  10.810 -0.6308 -3.2245 -0.1408
15088TIP3   OH266678   2.905   2.372  15.105  0.2951  0.2386 -0.2038
15088TIP3    H166679   2.877   2.321  15.028  2.6143 -1.6774  0.1026
15088TIP3    H266680   2.905   2.309  15.177 -0.9387  1.7873  1.2135
15089TIP3   OH266681   1.054   3.174   2.231  0.3461  0.1859 -0.6116
15089TIP3    H166682   1.083   3.265   2.240  0.9145 -0.1056  0.6437
15089TIP3    H266683   1.019   3.151   2.317 -2.8314  0.2163 -1.7334
15090TIP3   OH266684   1.154   3.971  12.608 -0.1700  0.1574  0.1301
15090TIP3    H166685   1.211   4.021  12.550 -2.0143  1.4876 -0.6067
15090TIP3    H266686   1.097   3.922  12.549 -0.0958 -0.8457  0.8571
15091TIP3   OH266687   5.418   3.997   2.234  0.2155  0.2625 -0.4844
15091TIP3    H166688   5.375   3.925   2.281  1.7005 -0.5020 -0.2495
15091TIP3    H266689   5.413   3.972   2.142  0.4896  0.0033 -0.4271
15092TIP3   OH266690   5.030   3.202  13.860  0.0008  0.6596  0.1557
15092TIP3    H166691   4.960   3.266  13.875 -2.6721 -1.4050 -2.2573
15092TIP3    H266692   5.058   3.218  13.770  0.5795 -0.3642  0.1401
15093TIP3   OH266693   2.604   1.036  14.797 -0.1790 -0.3161  0.8740
15093TIP3    H166694   2.694   1.008  14.783 -0.2455 -0.7612  1.3275
15093TIP3    H266695   2.551   0.957  14.786 -0.5851  0.0603 -0.0075
15094TIP3   OH266696   2.719   5.962  13.674  0.0320  0.0515 -0.5841
15094TIP3    H166697   2.814   5.951  13.678 -0.1512 -1.2863  1.3114
15094TIP3    H266698   2.699   5.965  13.580  1.8211 -0.9105 -1.0400
15095TIP3   OH266699   2.383   4.512  11.803 -0.5227  0.4551 -0.5699
15095TIP3    H166700   2.454   4.456  11.769  0.0904  0.3186  0.8660
15095TIP3    H266701   2.418   4.548  11.884 -1.8654  0.9385 -0.1825
15096TIP3   OH266702   1.956   1.551   1.651  0.4567  0.4541  0.2472
15096TIP3    H166703   2.012   1.481   1.618 -0.5838 -0.2420 -0.0729
15096TIP3    H266704   1.953   1.615   1.580  0.0813  0.0435 -0.1095
15097TIP3   OH266705   0.996   5.328  13.431  0.0523  0.2801 -0.7033
15097TIP3    H166706   0.964   5.396  13.372  1.3564  1.3618 -0.2166
15097TIP3    H266707   1.078   5.298  13.392  0.5099  0.4273  0.1271
15098TIP3   OH266708   0.584   2.389   5.553 -0.2722 -0.3148 -0.6260
15098TIP3    H166709   0.580   2.295   5.573 -1.2057 -0.2356 -0.3926
15098TIP3    H266710   0.585   2.432   5.638  2.3636 -0.1479 -0.6774
15099TIP3   OH266711   3.820   0.295   5.917 -0.3761  0.3939  0.0078
15099TIP3    H166712   3.893   0.302   5.979 -0.6218 -0.6237  0.4229
15099TIP3    H266713   3.806   0.201   5.906 -2.6606  0.5472  1.1434
15100TIP3   OH266714   3.002   5.902  13.721  0.5329 -0.1429 -0.1620
15100TIP3    H166715   3.075   5.889  13.659  0.6296 -0.1030 -0.0575
15100TIP3    H266716   2.969   5.814  13.736  1.5648 -0.3646  0.9969
15101TIP3   OH266717   6.669   5.845  16.716  0.3588 -0.8091  0.2001
15101TIP3    H166718   6.688   5.938  16.723 -3.3398  0.1358 -0.2514
15101TIP3    H266719   6.663   5.815  16.807 -0.1963 -0.1799  0.3766
15102TIP3   OH266720   1.228   4.549   4.251  0.2819  0.4997  0.4603
15102TIP3    H166721   1.164   4.494   4.206 -0.4879  2.0266 -0.4054
15102TIP3    H266722   1.311   4.527   4.210  0.0540 -0.3233  0.4277
15103TIP3   OH266723   1.577   3.435   4.239 -0.5779  0.4112 -0.2313
15103TIP3    H166724   1.484   3.412   4.235 -0.5752 -0.3442  2.2125
15103TIP3    H266725   1.578   3.525   4.273 -0.4091  0.9617 -1.6328
15104TIP3   OH266726   1.651   0.687   4.197  0.4285 -0.0269  0.7839
15104TIP3    H166727   1.693   0.706   4.281 -0.8363  0.5994  1.2963
15104TIP3    H266728   1.718   0.641   4.146  1.1197 -0.6821  2.2417
15105TIP3   OH266729   3.910   6.275  15.110  0.2943  0.1944 -0.5694
15105TIP3    H166730   3.966   6.340  15.151  0.8577 -0.9946  0.6366
15105TIP3    H266731   3.825   6.319  15.099  0.6046  1.0531  0.3905
15106TIP3   OH266732   4.126   4.887  12.019 -0.3878  0.4772  0.2062
15106TIP3    H166733   4.214   4.922  12.005 -0.7156  1.8795  1.3864
15106TIP3    H266734   4.128   4.800  11.979  1.0085  1.1381 -1.2517
15107TIP3   OH266735   1.094   6.489  11.325 -0.4599  0.5584 -0.3732
15107TIP3    H166736   1.053   6.564  11.369 -0.2988 -0.0479  0.8677
15107TIP3    H266737   1.087   6.418  11.389  0.8781 -0.0441 -0.8648
15108TIP3   OH266738   5.043   3.861  11.746  0.1076 -0.1089 -0.2564
15108TIP3    H166739   4.986   3.796  11.785 -0.8257  0.9122  0.1358
15108TIP3    H266740   5.001   3.945  11.766  1.3245  0.6211 -0.6554
15109TIP3   OH266741   2.558   3.773   6.277  0.1821 -0.1604  0.1115
15109TIP3    H166742   2.519   3.851   6.238  0.6065 -0.0759 -0.1566
15109TIP3    H266743   2.652   3.786   6.267  0.3313  0.0835  1.5778
15110TIP3   OH266744   6.164   6.274  13.209 -0.0720  0.4580  0.0445
15110TIP3    H166745   6.247   6.227  13.204 -0.4556 -0.1221 -1.2242
15110TIP3    H266746   6.153   6.313  13.123 -0.2787  2.0445  0.7398
15111TIP3   OH266747   2.086   5.583  16.555 -0.3281  0.4801 -0.1548
15111TIP3    H166748   2.004   5.589  16.604 -0.1771  0.4658  0.1031
15111TIP3    H266749   2.059   5.562  16.465 -0.5980  0.3026 -0.0348
15112TIP3   OH266750   2.224   3.503  13.650 -0.0215  0.1057 -0.0480
15112TIP3    H166751   2.281   3.442  13.698 -1.1045 -1.6123 -0.8368
15112TIP3    H266752   2.268   3.587  13.657  0.8753 -0.4754  2.2336
15113TIP3   OH266753   1.750   4.547  13.916  0.3637 -0.1165  0.1089
15113TIP3    H166754   1.710   4.556  13.830  0.3102  1.3733  0.2640
15113TIP3    H266755   1.844   4.537  13.897  0.3725  0.3754 -0.1209
15114TIP3   OH266756   1.698   6.339   6.504 -0.2469 -0.1675  0.5522
15114TIP3    H166757   1.758   6.396   6.454 -0.5672 -0.1056  0.2351
15114TIP3    H266758   1.756   6.288   6.561  0.0254  0.7252  1.1017
15115TIP3   OH266759   3.845   3.430  14.710  0.0630 -0.9724  0.6405
15115TIP3    H166760   3.786   3.377  14.763 -0.5365 -0.0110  0.9737
15115TIP3    H266761   3.894   3.367  14.658 -0.8491 -1.8273  0.7786
15116TIP3   OH266762   0.992   4.431  15.864 -0.4278  0.2858 -0.0369
15116TIP3    H166763   1.075   4.474  15.847 -0.7833  1.2354  0.5828
15116TIP3    H266764   0.932   4.467  15.799 -0.5935  0.3191  0.1335
15117TIP3   OH266765   6.185   2.889  12.085  0.3356 -0.2443 -0.2236
15117TIP3    H166766   6.190   2.831  12.010  0.6718 -0.2696 -0.1835
15117TIP3    H266767   6.264   2.942  12.080 -1.2061  2.1109 -1.7819
15118TIP3   OH266768   6.305   5.692  14.849 -0.2100  0.1317 -0.5209
15118TIP3    H166769   6.373   5.743  14.893  0.0032  0.4144 -1.1564
15118TIP3    H266770   6.279   5.747  14.775 -0.9459 -0.0927 -0.4317
15119TIP3   OH266771   6.288   0.024  15.147  0.0439  0.0785  0.4018
15119TIP3    H166772   6.359  -0.014  15.198 -1.1433 -1.4085  1.0380
15119TIP3    H266773   6.311   0.005  15.056  0.4655 -0.3910  0.5992
15120TIP3   OH266774   1.856   3.563  11.245 -0.1179 -0.0579  0.0853
15120TIP3    H166775   1.899   3.648  11.232 -0.4669  0.2192  0.6886
15120TIP3    H266776   1.870   3.543  11.338  1.0377 -1.2679 -0.3337
15121TIP3   OH266777   4.794   5.015   4.097  0.7806  0.1303 -0.4204
15121TIP3    H166778   4.863   4.960   4.135  1.3571  0.8817 -0.3510
15121TIP3    H266779   4.800   4.998   4.002  1.1304  0.2586 -0.4250
15122TIP3   OH266780   4.889   2.026   0.308 -0.2034 -0.0892  0.0436
15122TIP3    H166781   4.856   1.944   0.345  0.8700 -1.1574 -1.2869
15122TIP3    H266782   4.810   2.073   0.280 -0.7596 -1.5870 -1.0133
15123TIP3   OH266783   1.271   1.060   3.282 -0.5101  0.4010  0.1663
15123TIP3    H166784   1.214   0.984   3.296 -0.4933  0.2458 -0.5540
15123TIP3    H266785   1.347   1.025   3.236  0.2576  0.5792  1.2579
15124TIP3   OH266786   5.897   5.565  14.290  0.1397 -0.4508 -0.4543
15124TIP3    H166787   5.883   5.487  14.235  0.9138 -0.4514 -0.6653
15124TIP3    H266788   5.814   5.613  14.284 -1.2162 -2.3742  1.5440
15125TIP3   OH266789   5.310   0.145   3.882 -0.0762  0.3252  0.4640
15125TIP3    H166790   5.216   0.141   3.899  0.0282  0.1494  0.9903
15125TIP3    H266791   5.323   0.231   3.841 -0.9562 -0.8860 -2.6756
15126TIP3   OH266792   2.428   6.719   2.842  0.2757  0.4018  0.1097
15126TIP3    H166793   2.466   6.650   2.787 -0.8432 -1.7186  1.8325
15126TIP3    H266794   2.494   6.788   2.842  1.8441 -0.9975 -1.0739
15127TIP3   OH266795   3.568   6.705  16.695  0.1869 -0.1763  0.0224
15127TIP3    H166796   3.506   6.760  16.646  2.0493  0.4371 -1.8380
15127TIP3    H266797   3.556   6.617  16.659 -1.6648 -0.7384  1.8527
15128TIP3   OH266798   4.036   2.330  11.508 -0.6275  0.4372  0.2711
15128TIP3    H166799   3.966   2.288  11.457 -1.0295  0.8869  0.4480
15128TIP3    H266800   4.006   2.420  11.520 -0.2515  0.4972  0.7839
15129TIP3   OH266801   3.029   6.759   0.358  0.9559 -0.1448  0.3441
15129TIP3    H166802   2.961   6.741   0.422  0.2178 -1.4969 -0.7439
15129TIP3    H266803   3.033   6.854   0.351  0.3316 -0.0190  1.6145
15130TIP3   OH266804   1.067   2.362   0.055 -0.9545  0.5966  0.2979
15130TIP3    H166805   1.046   2.449   0.087 -3.6406  0.0419  0.2443
15130TIP3    H266806   1.087   2.311   0.134 -0.4653  0.9723  0.4196
15131TIP3   OH266807   1.528   2.118  16.004 -0.0495 -0.4220 -0.1712
15131TIP3    H166808   1.557   2.176  15.935 -2.1788 -0.6359 -1.3278
15131TIP3    H266809   1.568   2.033  15.983 -0.3157 -0.3728 -0.8773
15132TIP3   OH266810   0.858   5.837   3.601  0.2309 -0.2413 -0.6439
15132TIP3    H166811   0.806   5.881   3.668  1.0838 -0.5730  0.2573
15132TIP3    H266812   0.875   5.905   3.536 -0.6634  0.0704 -0.5713
15133TIP3   OH266813   3.902   5.295  13.291 -0.0230 -0.1377  0.0048
15133TIP3    H166814   3.938   5.383  13.284  1.2905 -0.5902  0.7466
15133TIP3    H266815   3.855   5.281  13.209 -0.2981  1.2602 -0.1007
15134TIP3   OH266816   6.753   1.402   5.310  0.1528  0.4091 -0.1391
15134TIP3    H166817   6.680   1.353   5.347  0.9644 -0.6658  0.0962
15134TIP3    H266818   6.719   1.438   5.228 -0.9664  0.8678  0.5123
15135TIP3   OH266819   1.305   6.731   4.197  0.6180  0.1993 -0.1363
15135TIP3    H166820   1.369   6.802   4.206 -0.3375  0.9728  0.8085
15135TIP3    H266821   1.222   6.775   4.180  0.4247 -0.8303 -2.1281
15136TIP3   OH266822   6.477   4.369  11.377  0.4232 -0.7230  0.3218
15136TIP3    H166823   6.501   4.420  11.454 -1.5872 -1.3888  1.4749
15136TIP3    H266824   6.389   4.399  11.355  0.9404 -0.5714 -1.7428
15137TIP3   OH266825   5.590   1.711  15.391 -0.3790  0.9587  0.8132
15137TIP3    H166826   5.612   1.783  15.333 -0.0759  0.9880  0.9628
15137TIP3    H266827   5.674   1.668  15.409 -0.2864  1.6531  2.1606
15138TIP3   OH266828   5.452   1.324   5.860  0.2310 -0.5223 -0.1264
15138TIP3    H166829   5.474   1.300   5.950 -1.2207  0.4068  0.5128
15138TIP3    H266830   5.529   1.370   5.828  0.4139  0.0021  0.9926
15139TIP3   OH266831   5.313   5.593   5.050  0.2519 -0.6131  0.8133
15139TIP3    H166832   5.224   5.630   5.053  0.4737 -0.1480  1.7866
15139TIP3    H266833   5.305   5.520   4.989 -0.5583  0.0682  0.0683
15140TIP3   OH266834   5.567   0.244  14.656  0.0408 -0.2724 -0.6777
15140TIP3    H166835   5.483   0.283  14.677  0.1035 -1.7345  2.9559
15140TIP3    H266836   5.630   0.315  14.666 -0.0934 -0.5411  3.5830
15141TIP3   OH266837   1.213   5.714   5.569  0.0229  0.6356  0.4792
15141TIP3    H166838   1.262   5.657   5.629 -1.0802 -0.2824  0.5394
15141TIP3    H266839   1.136   5.742   5.619 -0.6658  0.2390 -0.3370
15142TIP3   OH266840   6.665   5.392  13.498  0.0879 -0.5441 -0.0686
15142TIP3    H166841   6.572   5.372  13.505  0.1833 -0.9412  0.0727
15142TIP3    H266842   6.706   5.344  13.570  0.5964 -1.6061 -1.0204
15143TIP3   OH266843   4.502   1.837   3.524  0.6180 -0.3017 -0.2324
15143TIP3    H166844   4.543   1.918   3.493 -0.3663 -0.2090 -1.3678
15143TIP3    H266845   4.416   1.864   3.556  0.3568 -0.8550 -0.4433
15144TIP3   OH266846   5.015   0.034   2.130 -0.4521 -0.1537  0.7703
15144TIP3    H166847   5.060   0.025   2.214 -1.3200  0.2506  1.2986
15144TIP3    H266848   4.941   0.092   2.149  1.3028  2.9349 -1.0269
15145TIP3   OH266849   3.948   3.045  15.682 -0.1928  0.1342 -1.0011
15145TIP3    H166850   3.869   3.074  15.727 -0.0219  0.7622 -1.0930
15145TIP3    H266851   4.019   3.090  15.726 -0.1909  2.7144 -3.3385
15146TIP3   OH266852   3.738   3.566   5.022  0.2759  0.2416  0.1034
15146TIP3    H166853   3.735   3.532   4.932  1.5511  0.1475  0.0779
15146TIP3    H266854   3.799   3.639   5.019 -0.1774  0.6661  0.7736
15147TIP3   OH266855   5.337   5.188   1.236  0.6198 -0.3628 -0.0412
15147TIP3    H166856   5.400   5.255   1.209  1.9367 -0.9810  1.3287
15147TIP3    H266857   5.325   5.202   1.329 -0.8956 -0.6083 -0.1812
15148TIP3   OH266858   5.905   4.229   3.495 -0.2551 -0.2520 -0.3611
15148TIP3    H166859   5.844   4.218   3.422  1.4461  1.8995 -2.2595
15148TIP3    H266860   5.966   4.297   3.466  2.1059 -1.1382  2.0480
15149TIP3   OH266861   1.573   1.286   2.623 -0.1452 -0.1666  0.1721
15149TIP3    H166862   1.636   1.288   2.695  2.0559  1.5937 -1.6682
15149TIP3    H266863   1.497   1.334   2.657  1.2433  1.5161  1.0125
15150TIP3   OH266864   6.371   2.113  12.417 -0.2458  0.6075  0.0879
15150TIP3    H166865   6.391   2.102  12.324  0.0160  0.4964  0.1572
15150TIP3    H266866   6.275   2.111  12.421 -0.2507 -2.3216  0.1668
15151TIP3   OH266867   2.085   0.888  10.711 -0.3256  0.3357  0.4596
15151TIP3    H166868   2.167   0.924  10.679 -0.7148  0.1290 -0.8141
15151TIP3    H266869   2.040   0.963  10.750 -0.4209  0.9029 -0.7029
15152TIP3   OH266870   2.488   5.984  15.159 -0.3984 -0.0092  0.1387
15152TIP3    H166871   2.544   5.938  15.097 -1.6746  0.8542 -1.7625
15152TIP3    H266872   2.404   5.940  15.152 -0.2884 -0.6093  2.1597
15153TIP3   OH266873   1.870   6.017   3.490 -0.3981  0.7686 -0.3967
15153TIP3    H166874   1.842   5.991   3.577 -0.6526  1.1653 -0.3562
15153TIP3    H266875   1.793   6.003   3.434  0.3556 -1.4662 -0.9913
15154TIP3   OH266876   4.344   1.006   0.962 -0.4527  0.4165  0.2781
15154TIP3    H166877   4.307   0.997   1.050 -2.0124 -0.3201 -0.4148
15154TIP3    H266878   4.274   0.978   0.903 -0.5744  3.6752 -1.3874
15155TIP3   OH266879   6.388   0.660   3.791  0.0429  0.5637 -0.0083
15155TIP3    H166880   6.305   0.619   3.816  0.4774  0.5889  1.5820
15155TIP3    H266881   6.415   0.612   3.713 -1.3217  0.3691 -0.3878
15156TIP3   OH266882   1.428   2.880   4.754  0.1289  0.2403  0.1872
15156TIP3    H166883   1.478   2.958   4.776  1.5802 -0.7315  0.4356
15156TIP3    H266884   1.355   2.879   4.816  0.4377  1.0625  0.5642
15157TIP3   OH266885   1.048   6.476   2.996  0.3302  0.1290 -0.8966
15157TIP3    H166886   1.038   6.415   3.069 -0.2717 -0.6064 -1.5694
15157TIP3    H266887   0.965   6.469   2.948  0.3799  1.2389 -1.1682
15158TIP3   OH266888   2.620   4.175   0.009  0.1584  0.6586 -0.0414
15158TIP3    H166889   2.716   4.168   0.009  0.1316  0.2793  0.2781
15158TIP3    H266890   2.596   4.171   0.101 -0.2456 -0.4461 -0.1720
15159TIP3   OH266891   0.877   4.025  15.535 -0.2391 -0.1434  0.5519
15159TIP3    H166892   0.782   4.022  15.549 -0.5672  1.1582 -1.0388
15159TIP3    H266893   0.887   4.070  15.451  1.7129 -2.7128 -0.7084
15160TIP3   OH266894   2.607   2.731   0.950  0.4580  0.1335  0.3365
15160TIP3    H166895   2.612   2.802   1.014  1.9635 -0.2645  0.7117
15160TIP3    H266896   2.651   2.657   0.993  0.5488 -0.4619 -0.7394
15161TIP3   OH266897   5.533   1.221  16.099 -0.5535 -0.3918  0.4609
15161TIP3    H166898   5.584   1.194  16.175  1.2644 -1.2790 -1.0049
15161TIP3    H266899   5.444   1.189  16.117 -0.1095 -0.7970  2.0787
15162TIP3   OH266900   2.700   3.967   2.840  0.0217  0.0183  0.1108
15162TIP3    H166901   2.701   4.032   2.770  0.9061  0.0534  0.1415
15162TIP3    H266902   2.769   3.905   2.817  0.6464  0.2821  1.1623
15163TIP3   OH266903   4.840   0.627   2.211  0.2129  0.0417  0.5327
15163TIP3    H166904   4.814   0.576   2.135  0.4650  0.6051  0.0649
15163TIP3    H266905   4.763   0.627   2.268  0.4363 -1.4953  0.9050
15164TIP3   OH266906   1.686   4.842   5.070 -0.4792  0.1864 -0.0278
15164TIP3    H166907   1.737   4.788   5.131 -0.7913  1.4950  1.4734
15164TIP3    H266908   1.751   4.886   5.017 -0.0596  0.8597  1.0086
15165TIP3   OH266909   0.182   5.562  14.415  0.2319 -0.3170  0.1550
15165TIP3    H166910   0.091   5.534  14.421  0.7054 -1.6412  3.6219
15165TIP3    H266911   0.178   5.658  14.417 -1.0592 -0.3473 -0.1220
15166TIP3   OH266912   4.633   1.334  13.715  0.6487  0.0657  0.3113
15166TIP3    H166913   4.592   1.324  13.629 -1.1073  0.6955  1.0428
15166TIP3    H266914   4.714   1.382  13.697  2.0845 -2.6937 -1.3912
15167TIP3   OH266915   1.693   0.264  10.478 -0.6166 -0.1813  0.0896
15167TIP3    H166916   1.643   0.345  10.477  0.5458  0.5531 -0.6459
15167TIP3    H266917   1.722   0.252  10.387 -0.5059 -1.2461  0.2501
15168TIP3   OH266918   1.043   1.666  16.002  0.4007 -0.0803  0.0571
15168TIP3    H166919   1.100   1.718  15.946 -0.8415  0.5667 -0.6328
15168TIP3    H266920   0.986   1.619  15.942 -0.2543 -0.1812  0.7390
15169TIP3   OH266921   2.722   1.777  11.565  0.3678  0.0185  0.0703
15169TIP3    H166922   2.790   1.725  11.608  1.5259  2.1261  0.8802
15169TIP3    H266923   2.702   1.847  11.627 -1.7725  0.1140 -0.6309
15170TIP3   OH266924   2.837   5.537  15.971 -0.0450  0.0664  0.3442
15170TIP3    H166925   2.812   5.476  16.040 -0.7946 -0.5628 -0.4714
15170TIP3    H266926   2.933   5.533  15.968 -0.0575 -0.5566  0.7535
15171TIP3   OH266927   2.598   5.183   5.263  0.3679 -0.2113 -0.1652
15171TIP3    H166928   2.632   5.270   5.241 -1.3752  0.9445  1.4186
15171TIP3    H266929   2.618   5.173   5.356 -0.6425 -0.9322 -0.0138
15172TIP3   OH266930   0.828   6.708  13.840 -0.0285 -0.4430  0.3349
15172TIP3    H166931   0.896   6.651  13.878 -0.5433 -1.7190 -0.5842
15172TIP3    H266932   0.761   6.714  13.909 -1.1850 -3.1372 -0.4331
15173TIP3   OH266933   2.178   5.826   1.875  0.5869 -0.8554  0.1465
15173TIP3    H166934   2.241   5.858   1.940  0.3805  0.7736 -0.3886
15173TIP3    H266935   2.111   5.895   1.872  0.1522 -1.3078 -1.1631
15174TIP3   OH266936   4.924   4.837   1.678  0.1994 -0.6102 -0.4496
15174TIP3    H166937   4.916   4.932   1.679  1.8213 -0.4377 -1.0713
15174TIP3    H266938   4.853   4.806   1.734 -0.1010  0.9769  0.0899
15175TIP3   OH266939   0.175   5.379  15.178 -0.4763  0.4388  0.4656
15175TIP3    H166940   0.142   5.306  15.230  0.1144  0.7527  1.3023
15175TIP3    H266941   0.181   5.452  15.240  2.5358  0.2065  0.6033
15176TIP3   OH266942   0.516   5.690  11.424 -0.2155  0.0902 -0.4922
15176TIP3    H166943   0.496   5.703  11.517 -1.2273  0.2288 -0.7167
15176TIP3    H266944   0.560   5.771  11.397  1.2606 -0.4605  0.1584
15177TIP3   OH266945   6.585   4.983  14.159 -0.7551  0.8109 -0.4356
15177TIP3    H166946   6.657   5.046  14.167 -0.8903  0.9076  0.0658
15177TIP3    H266947   6.512   5.034  14.123 -0.1769  0.3985 -2.3102
15178TIP3   OH266948   2.927   1.775   5.969 -0.6320  0.3511 -0.3062
15178TIP3    H166949   2.901   1.734   6.052  1.0503 -0.2980 -0.0577
15178TIP3    H266950   2.976   1.707   5.923 -0.4164  1.1334 -1.2593
15179TIP3   OH266951   6.028   6.072  11.389  0.0609 -0.4589  0.1618
15179TIP3    H166952   6.112   6.034  11.417  0.1092 -0.3245  0.2025
15179TIP3    H266953   5.963   6.029  11.443  0.3111  1.1004  1.8043
15180TIP3   OH266954   6.782   2.556  13.873  0.0471  0.0144  0.4576
15180TIP3    H166955   6.738   2.604  13.802 -1.5397  0.4572  1.6881
15180TIP3    H266956   6.747   2.467  13.867 -0.0625  0.0435  0.6417
15181TIP3   OH266957   1.115   4.732  16.040 -0.1888  0.0377  0.1125
15181TIP3    H166958   1.115   4.636  16.039  1.6240  0.0131 -0.2109
15181TIP3    H266959   1.074   4.757  15.957 -1.3011 -0.4204  0.4989
15182TIP3   OH266960   2.706   4.279   1.314 -0.4907  0.9149  0.0731
15182TIP3    H166961   2.797   4.309   1.307  0.4051 -1.6814 -1.0264
15182TIP3    H266962   2.662   4.319   1.239 -0.2981  2.2287  0.6343
15183TIP3   OH266963   1.408   4.835  15.979 -0.0868  0.0403 -0.0374
15183TIP3    H166964   1.327   4.882  15.997  0.1873  0.7298 -0.5490
15183TIP3    H266965   1.454   4.834  16.062 -0.3946  0.0930  0.1368
15184TIP3   OH266966   5.231   1.298  15.408 -0.8972 -0.4024  0.0101
15184TIP3    H166967   5.232   1.235  15.480  2.1976  0.9659  1.3531
15184TIP3    H266968   5.288   1.369  15.437 -1.3433  1.3248 -2.9027
15185TIP3   OH266969   2.380   0.037  15.316  0.7324 -0.3562  0.1762
15185TIP3    H166970   2.364   0.027  15.410 -1.5121  1.2091  0.0232
15185TIP3    H266971   2.474   0.053  15.310  0.7946  0.4185  2.2707
15186TIP3   OH266972   4.299   1.453  13.672  0.3095 -0.1492 -0.1607
15186TIP3    H166973   4.382   1.484  13.637  0.8623 -0.8495  0.5160
15186TIP3    H266974   4.310   1.359  13.683 -1.4809 -0.7646 -2.5777
15187TIP3   OH266975   0.406   1.347  13.790  0.4988  0.2623 -0.6316
15187TIP3    H166976   0.431   1.422  13.736  0.1123 -0.2429 -1.5266
15187TIP3    H266977   0.314   1.331  13.769  0.2642  0.2074  0.3696
15188TIP3   OH266978   0.060   6.195   1.207  0.2274  0.5629  0.3375
15188TIP3    H166979  -0.011   6.220   1.148  0.4309  0.7928  0.1886
15188TIP3    H266980   0.103   6.122   1.162 -0.3302 -0.0269  0.7436
15189TIP3   OH266981   3.570   4.963   2.937  0.1807 -0.2747  0.0304
15189TIP3    H166982   3.650   4.948   2.887  0.2864  0.0475  0.0992
15189TIP3    H266983   3.535   5.045   2.903 -1.4392 -1.6068 -1.7188
15190TIP3   OH266984   0.749   2.902  13.099  0.3181 -0.3450  0.0008
15190TIP3    H166985   0.691   2.871  13.030  0.8128 -1.1528 -0.0625
15190TIP3    H266986   0.707   2.982  13.131 -0.8517 -0.9229 -0.0177
15191TIP3   OH266987   3.902   1.688   2.449 -0.7840 -0.1520 -0.1086
15191TIP3    H166988   3.970   1.645   2.499 -1.7795  0.5763  1.9715
15191TIP3    H266989   3.844   1.617   2.421  0.2197 -0.6510 -1.0184
15192TIP3   OH266990   4.264   5.028   5.387 -0.6865  0.6466 -0.3918
15192TIP3    H166991   4.216   5.096   5.340 -1.3660  1.0725  0.8733
15192TIP3    H266992   4.353   5.032   5.350 -0.5819  2.5394 -0.0521
15193TIP3   OH266993   0.757   0.031   5.293  0.4412 -0.3460 -0.2215
15193TIP3    H166994   0.674   0.038   5.247  1.0993  1.7050 -1.2604
15193TIP3    H266995   0.734   0.029   5.385 -0.7925 -0.7042 -0.5263
15194TIP3   OH266996   0.599   6.587   0.208 -0.0067 -0.3400 -0.1438
15194TIP3    H166997   0.538   6.532   0.159  0.3861 -0.4106 -0.5598
15194TIP3    H266998   0.685   6.557   0.181  0.2691 -1.8320  2.2129
15195TIP3   OH266999   3.760   2.233   1.292  0.7769  0.1203 -0.4991
15195TIP3    H167000   3.816   2.155   1.290 -0.6649 -0.9889 -0.0508
15195TIP3    H267001   3.745   2.254   1.200  2.3865  0.8111 -0.6313
15196TIP3   OH267002   4.789   4.225  15.764  0.3148 -0.0926 -0.0970
15196TIP3    H167003   4.851   4.162  15.729  1.0969  0.1514  0.8041
15196TIP3    H267004   4.802   4.222  15.859  0.3553  1.3857 -0.0246
15197TIP3   OH267005   3.406   4.116   1.032 -0.6671 -0.3423 -0.6497
15197TIP3    H167006   3.433   4.066   1.110  1.0646  0.2898 -0.7912
15197TIP3    H267007   3.387   4.203   1.066 -0.2409 -0.1581 -0.8766
15198TIP3   OH267008   4.923   1.858   2.833  0.4676  0.2131  0.6495
15198TIP3    H167009   4.867   1.819   2.766  1.9189  1.3304 -1.2984
15198TIP3    H267010   4.875   1.843   2.915 -1.7546 -0.5205 -0.6877
15199TIP3   OH267011   0.311   6.370  16.789  0.1324 -0.5241  0.0771
15199TIP3    H167012   0.364   6.304  16.835  0.1859 -0.3204  0.3164
15199TIP3    H267013   0.323   6.450  16.842 -0.0868 -0.3754 -0.0992
15200TIP3   OH267014   2.992   4.160  15.598 -0.3601  0.1870  0.6088
15200TIP3    H167015   2.968   4.253  15.600  1.1317  0.6129  0.2419
15200TIP3    H267016   2.952   4.127  15.518  0.4675  0.9460 -0.1472
15201TIP3   OH267017   6.137   2.825   3.679  0.6910 -0.4829  0.1782
15201TIP3    H167018   6.168   2.752   3.626 -0.8141 -0.4297 -0.8281
15201TIP3    H267019   6.189   2.900   3.650  0.8019 -0.7316 -0.2730
15202TIP3   OH267020   2.363   6.508   0.336 -0.0570  0.3102  0.0353
15202TIP3    H167021   2.349   6.520   0.430  1.3988  1.3228  0.1531
15202TIP3    H267022   2.452   6.475   0.330 -0.3191 -0.2424 -0.9844
15203TIP3   OH267023   1.256   2.069  15.952  0.2008  0.6715  0.0937
15203TIP3    H167024   1.341   2.068  15.996 -1.5289 -0.8549  3.8229
15203TIP3    H267025   1.252   1.985  15.906  0.0539 -0.0525  1.3995
15204TIP3   OH267026   0.903   4.456   4.608  0.2073 -0.0392  0.1502
15204TIP3    H167027   0.952   4.539   4.610  0.2407 -0.0630  0.3033
15204TIP3    H267028   0.939   4.405   4.680  0.1866 -0.1887  0.0541
15205TIP3   OH267029   3.009   2.091  16.291  0.4327 -0.3687  0.3014
15205TIP3    H167030   2.946   2.125  16.354  0.7421  0.3063  0.2573
15205TIP3    H267031   3.008   1.996  16.304  0.7017 -0.2212  1.5306
15206TIP3   OH267032   0.976   5.791   5.807 -0.2806 -0.2208 -0.1123
15206TIP3    H167033   0.944   5.707   5.777  0.1009 -0.2798 -0.3689
15206TIP3    H267034   0.976   5.785   5.903 -0.5513 -0.3970 -0.1241
15207TIP3   OH267035   1.561   4.438  15.049  0.0423  0.1565  0.6416
15207TIP3    H167036   1.554   4.527  15.084  1.4429 -0.3574  2.3178
15207TIP3    H267037   1.540   4.381  15.122  1.2542 -0.9324  0.1747
15208TIP3   OH267038   2.215   2.378   3.258  0.1917 -0.1497 -0.2337
15208TIP3    H167039   2.177   2.465   3.261  1.2390  0.5262 -3.1702
15208TIP3    H267040   2.147   2.323   3.219  0.3090 -0.1353 -0.4626
15209TIP3   OH267041   2.022   5.549  15.643 -0.5240  0.2828 -0.1836
15209TIP3    H167042   2.094   5.596  15.602 -0.3429  0.3446  0.2028
15209TIP3    H267043   1.986   5.610  15.707 -0.4465 -0.0141  0.1455
15210TIP3   OH267044   6.022   4.378  10.868  0.3613  0.3092 -0.6656
15210TIP3    H167045   5.936   4.419  10.872  0.8248  1.2280  0.3104
15210TIP3    H267046   6.073   4.436  10.811  1.7321  2.6077  2.5930
15211TIP3   OH267047   4.191   5.159   4.698  0.5168  0.3133  0.4046
15211TIP3    H167048   4.238   5.077   4.710  0.3200  0.2088  0.4731
15211TIP3    H267049   4.256   5.227   4.713  0.6598  0.1692  0.4334
15212TIP3   OH267050   2.617   1.199   4.243 -0.6386  0.2366  0.6021
15212TIP3    H167051   2.590   1.271   4.299  1.3293  0.0902  1.8589
15212TIP3    H267052   2.704   1.224   4.212  0.0394 -1.4919  0.9629
15213TIP3   OH267053   4.692   4.330  11.655 -0.1948 -0.1491  0.6341
15213TIP3    H167054   4.785   4.347  11.640 -0.1148 -0.1540  1.1118
15213TIP3    H267055   4.672   4.375  11.737 -0.5027 -0.5377  0.7764
15214TIP3   OH267056   2.203   6.521  12.696 -0.1750 -0.2878  0.3185
15214TIP3    H167057   2.185   6.429  12.679  0.6984 -0.4003 -0.0465
15214TIP3    H267058   2.292   6.535  12.664 -0.7232  0.9749 -0.7860
15215TIP3   OH267059   1.602   2.716  11.165 -0.0192 -0.1229 -0.1979
15215TIP3    H167060   1.597   2.796  11.113  0.3066 -0.9626 -1.5834
15215TIP3    H267061   1.525   2.718  11.221 -0.3619  0.8398 -0.6826
15216TIP3   OH267062   2.370   4.579  16.143 -0.3008  0.2748 -0.5078
15216TIP3    H167063   2.294   4.594  16.199 -0.8942  0.0912 -1.2586
15216TIP3    H267064   2.441   4.626  16.187 -1.2285  1.9870 -0.7440
15217TIP3   OH267065   6.772   1.456  12.991  0.1742  0.2367  0.0140
15217TIP3    H167066   6.779   1.396  13.066  2.2237  0.5537  0.1207
15217TIP3    H267067   6.683   1.440  12.957 -1.0367  0.4323  2.7705
15218TIP3   OH267068   4.529   1.797  13.074 -0.6767 -0.0957 -0.3205
15218TIP3    H167069   4.505   1.710  13.043 -0.4252  0.1972 -1.3679
15218TIP3    H267070   4.507   1.796  13.167 -1.7910 -0.8780 -0.5708
15219TIP3   OH267071   2.954   1.775   3.560  0.1483  0.4400 -0.1609
15219TIP3    H167072   2.861   1.774   3.586  0.4139 -1.8688  0.9618
15219TIP3    H267073   2.954   1.745   3.470 -0.2500  1.4188 -0.4997
15220TIP3   OH267074   4.816   6.762   5.646 -0.4063  0.0034  0.4772
15220TIP3    H167075   4.748   6.829   5.636 -0.5375 -0.3798 -1.6232
15220TIP3    H267076   4.771   6.680   5.626  0.5729 -0.3074 -0.4869
15221TIP3   OH267077   4.188   3.801  15.133 -0.0030 -0.7460 -0.4753
15221TIP3    H167078   4.266   3.824  15.183  0.6249 -1.9275 -0.8722
15221TIP3    H267079   4.119   3.857  15.169  1.2264  1.0761 -0.8149
15222TIP3   OH267080   4.982   1.507  11.685 -0.0776  0.0871 -0.9803
15222TIP3    H167081   5.066   1.548  11.666 -0.9369  2.7354  0.3946
15222TIP3    H267082   4.963   1.455  11.607  3.5295 -2.0149 -0.6611
15223TIP3   OH267083   1.541   4.327  16.478  0.0109  0.4006 -0.6621
15223TIP3    H167084   1.494   4.410  16.479 -0.6036  0.0629  0.5941
15223TIP3    H267085   1.616   4.340  16.535  1.2694  0.8074 -2.3415
15224TIP3   OH267086   1.453   2.393  15.109  0.2737 -0.3022  0.3350
15224TIP3    H167087   1.507   2.464  15.145 -1.1914  1.4563 -0.7772
15224TIP3    H267088   1.477   2.389  15.017  0.6446 -1.5769  0.4735
15225TIP3   OH267089   6.455   0.090   3.140  0.0094  0.3428  0.8660
15225TIP3    H167090   6.359   0.087   3.143 -0.0840  1.4050 -0.1934
15225TIP3    H267091   6.477   0.180   3.161  0.7260  0.2982  0.3681
15226TIP3   OH267092   2.517   5.572   5.377  0.3296 -0.3186  0.3587
15226TIP3    H167093   2.427   5.557   5.406  0.6882 -0.1807  1.6474
15226TIP3    H267094   2.553   5.631   5.444  2.1683 -2.4485  1.3580
15227TIP3   OH267095   0.623   0.253  13.339  0.5135  0.0272 -0.4660
15227TIP3    H167096   0.675   0.174  13.355  2.6720  1.3100 -0.7358
15227TIP3    H267097   0.600   0.248  13.247 -0.7057 -1.0031 -0.1356
15228TIP3   OH267098   3.413   3.053  16.186 -0.2588 -0.0797 -0.0743
15228TIP3    H167099   3.465   2.986  16.142 -0.4064 -1.0063  1.0972
15228TIP3    H267100   3.357   3.090  16.118  0.1079 -0.8762 -0.8179
15229TIP3   OH267101   4.156   2.743   4.821 -0.1831 -0.0748 -0.3972
15229TIP3    H167102   4.217   2.735   4.748  0.8437  2.9151 -0.0147
15229TIP3    H267103   4.210   2.729   4.899 -0.4883  0.2325 -0.1238
15230TIP3   OH267104   3.711   1.611  11.747  0.1016 -0.1236  0.5085
15230TIP3    H167105   3.743   1.547  11.683  0.3417  1.3535 -0.9051
15230TIP3    H267106   3.729   1.571  11.832  3.5372 -0.4287 -0.2365
15231TIP3   OH267107   2.455   4.717   2.934 -0.3750  0.3759 -0.0216
15231TIP3    H167108   2.383   4.720   2.870  0.8525  0.8636 -1.4417
15231TIP3    H267109   2.476   4.808   2.951  1.0584  0.2667 -1.0149
15232TIP3   OH267110   4.691   4.864   6.026  0.4656  0.1584 -0.1062
15232TIP3    H167111   4.628   4.934   6.045  0.4469  0.3076 -0.6975
15232TIP3    H267112   4.677   4.800   6.096  2.0354  1.7554  1.7954
15233TIP3   OH267113   6.728   1.407   5.758  0.2920 -0.0208 -0.3215
15233TIP3    H167114   6.821   1.385   5.765  0.1193 -0.3367  1.3554
15233TIP3    H267115   6.683   1.334   5.801 -0.5749  1.2175  0.9463
15234TIP3   OH267116   6.191   2.274   5.668  0.2359  0.0753 -0.6545
15234TIP3    H167117   6.241   2.254   5.747 -0.2147 -1.0880 -0.6369
15234TIP3    H267118   6.110   2.224   5.677  0.1721 -0.0762 -1.8367
15235TIP3   OH267119   2.348   3.363   2.396 -0.0317 -0.2697  0.4448
15235TIP3    H167120   2.354   3.285   2.452 -0.9837 -0.1270  0.7607
15235TIP3    H267121   2.270   3.409   2.427 -0.3321  0.0393 -0.7319
15236TIP3   OH267122   4.263   5.432  14.416  0.3419 -0.4500  0.0773
15236TIP3    H167123   4.243   5.469  14.502  0.4884 -1.0147  0.3653
15236TIP3    H267124   4.195   5.465  14.358  0.4741  0.2571  0.3267
15237TIP3   OH267125   1.410   2.009  16.309  0.0625  0.0824 -0.1067
15237TIP3    H167126   1.411   1.919  16.276  1.0935 -1.0281  2.6381
15237TIP3    H267127   1.349   2.006  16.383  1.8653  1.0006  1.4966
15238TIP3   OH267128   0.775   5.595  14.456 -0.3632  0.2755  0.1858
15238TIP3    H167129   0.801   5.521  14.510 -1.2535 -1.5005 -1.7010
15238TIP3    H267130   0.857   5.642  14.440  0.6479 -1.5996 -0.4466
15239TIP3   OH267131   0.185   4.723  14.181 -0.3529 -0.4060  0.4792
15239TIP3    H167132   0.160   4.639  14.220 -0.4783  0.3589  2.1248
15239TIP3    H267133   0.246   4.762  14.243  1.5983 -0.2808 -1.3968
15240TIP3   OH267134   2.411   4.526   0.239  0.1609  0.1372 -0.0498
15240TIP3    H167135   2.315   4.528   0.232  0.2727  0.2625 -2.6210
15240TIP3    H267136   2.434   4.611   0.276 -0.7348 -0.2626  1.5093
15241TIP3   OH267137   6.420   0.110  16.851 -0.2850  0.1610  0.0972
15241TIP3    H167138   6.442   0.028  16.808 -1.5805 -0.1598 -0.0046
15241TIP3    H267139   6.324   0.113  16.849 -0.2691  1.5361  0.3571
15242TIP3   OH267140   1.422   0.878   0.340 -0.4127  0.3051  0.4067
15242TIP3    H167141   1.390   0.790   0.323  0.0850  0.2892 -0.5179
15242TIP3    H267142   1.371   0.934   0.282  1.1010  0.2943 -0.9948
15243TIP3   OH267143   0.263   1.715   2.679  0.4439 -0.0424  0.2804
15243TIP3    H167144   0.331   1.724   2.612  0.1920 -0.8653 -0.1011
15243TIP3    H267145   0.301   1.657   2.744  0.0600 -0.6467 -0.0188
15244TIP3   OH267146   1.818   6.316  12.702 -0.0440  0.1494  0.0110
15244TIP3    H167147   1.891   6.288  12.756  1.4903  0.5811 -1.7486
15244TIP3    H267148   1.743   6.264  12.733  0.7145  0.4674  2.5634
15245TIP3   OH267149   4.662   3.956  12.635  0.3342 -0.0340  0.2298
15245TIP3    H167150   4.663   3.863  12.658  0.3407 -0.3048 -0.8133
15245TIP3    H267151   4.750   3.987  12.656 -0.4300  0.4360  3.1875
15246TIP3   OH267152   1.934   5.173  14.456  0.0773  0.7613 -0.2693
15246TIP3    H167153   2.022   5.151  14.424 -0.2268  1.8251 -1.9470
15246TIP3    H267154   1.878   5.164  14.379 -0.9980  1.7488  0.3790
15247TIP3   OH267155   3.286   2.368  11.799 -0.6722 -0.0349 -0.0136
15247TIP3    H167156   3.261   2.420  11.876  0.1995 -1.0261  0.9775
15247TIP3    H267157   3.332   2.430  11.742 -0.3926  0.4879  0.7625
15248TIP3   OH267158   0.574   3.816  14.617 -0.3698  0.2392  0.3510
15248TIP3    H167159   0.547   3.742  14.563  0.0313  0.0627  0.3888
15248TIP3    H267160   0.658   3.843  14.580 -0.3769  0.4905  0.5180
15249TIP3   OH267161   5.919   6.488  11.230 -0.4094  0.0713 -0.1124
15249TIP3    H167162   5.885   6.459  11.145  0.3357  1.9379 -1.1103
15249TIP3    H267163   6.014   6.484  11.220 -0.3064 -0.8724  1.0867
15250TIP3   OH267164   1.199   4.318   3.893 -0.1193 -0.1850 -0.3666
15250TIP3    H167165   1.209   4.297   3.800  1.6394 -2.3151  0.1972
15250TIP3    H267166   1.259   4.390   3.908  1.3265 -1.3109 -0.5017
15251TIP3   OH267167   3.337   3.060   3.408  0.4584  0.0583 -0.6584
15251TIP3    H167168   3.305   3.096   3.325  3.5098 -0.0684 -2.0440
15251TIP3    H267169   3.428   3.037   3.390  1.1401 -0.3267  2.6719
15252TIP3   OH267170   3.458   5.129  16.477 -0.4559 -0.1409  0.0454
15252TIP3    H167171   3.527   5.135  16.411 -0.2176  1.7195  0.4269
15252TIP3    H267172   3.403   5.056  16.447 -0.1989  0.4716 -2.0656
15253TIP3   OH267173   1.270   4.572  11.899 -0.1773 -0.8741 -0.4407
15253TIP3    H167174   1.333   4.500  11.908  1.5629  0.3027 -2.4059
15253TIP3    H267175   1.280   4.601  11.809 -2.3596  0.4990 -0.2968
15254TIP3   OH267176   2.424   0.146   1.906 -0.2874  0.0927  0.2815
15254TIP3    H167177   2.410   0.125   1.814  0.6077  0.2917  0.0923
15254TIP3    H267178   2.392   0.069   1.954 -0.2993 -0.2160 -0.2209
15255TIP3   OH267179   4.950   0.533   0.200 -0.2982 -0.2878  0.3351
15255TIP3    H167180   4.981   0.443   0.208  0.4588  0.0064  0.8053
15255TIP3    H267181   4.920   0.556   0.288  0.5592  0.2867  0.4834
15256TIP3   OH267182   3.382   0.294  15.253  0.1912  0.2467  0.0406
15256TIP3    H167183   3.417   0.210  15.284 -0.7961 -0.5744 -1.0053
15256TIP3    H267184   3.290   0.292  15.277 -0.7748 -0.6557 -3.2273
15257TIP3   OH267185   6.623   0.125   0.697 -0.6557  0.7464 -0.4089
15257TIP3    H167186   6.569   0.046   0.689 -0.7278  0.2657  3.2255
15257TIP3    H267187   6.569   0.195   0.660 -2.3260 -0.2800 -0.0130
15258TIP3   OH267188   2.537   0.211   5.972 -0.6838  0.1722  0.2569
15258TIP3    H167189   2.560   0.130   5.928 -0.5069  0.1300  0.4278
15258TIP3    H267190   2.443   0.204   5.988 -0.6203 -0.1109  0.5073
15259TIP3   OH267191   2.743   5.484   3.827  0.4119 -0.2159  0.4640
15259TIP3    H167192   2.724   5.505   3.736 -0.2978  1.0018  0.8690
15259TIP3    H267193   2.837   5.504   3.837  0.0527  1.6350  0.4879
15260TIP3   OH267194   4.520   0.167  13.937  0.2835  0.4845  0.0970
15260TIP3    H167195   4.548   0.109  14.008  1.4827 -0.1293 -0.8447
15260TIP3    H267196   4.522   0.112  13.859  0.6631  1.5859 -0.6902
15261TIP3   OH267197   4.027   3.867   3.849 -0.2400  0.6023  0.0300
15261TIP3    H167198   4.101   3.886   3.906  1.6618 -2.4456 -1.1871
15261TIP3    H267199   4.055   3.896   3.763 -1.0670  0.7420 -0.2001
15262TIP3   OH267200   2.135   3.574   1.961 -0.5412 -0.5678 -0.0093
15262TIP3    H167201   2.058   3.519   1.976  0.5929 -1.8511  1.4671
15262TIP3    H267202   2.129   3.642   2.028 -1.7621  1.0024 -1.6180
15263TIP3   OH267203   1.400   6.495   1.034 -0.5275  0.2020 -0.3141
15263TIP3    H167204   1.319   6.482   0.986  0.0593  0.0805 -1.2908
15263TIP3    H267205   1.380   6.466   1.123 -1.8375  1.1209 -0.2826
15264TIP3   OH267206   2.681   1.684  16.886 -0.2553 -0.0230 -0.1373
15264TIP3    H167207   2.675   1.779  16.899  0.9586  0.5865 -3.1759
15264TIP3    H267208   2.771   1.668  16.860 -0.8708 -1.7447 -1.4333
15265TIP3   OH267209   5.044   2.315   1.461  0.6166  0.1777  0.3564
15265TIP3    H167210   5.059   2.255   1.387  0.9712 -1.0215  1.3752
15265TIP3    H267211   5.084   2.398   1.433  0.6175 -0.2102 -0.8518
15266TIP3   OH267212   5.751   2.541  10.682 -0.6537  0.7259  0.2534
15266TIP3    H167213   5.705   2.483  10.743  0.1908  1.5461  1.7593
15266TIP3    H267214   5.690   2.612  10.665 -2.4322 -1.3292 -3.0666
15267TIP3   OH267215   2.325   3.344  11.337 -0.1702 -0.4020  0.9029
15267TIP3    H167216   2.247   3.339  11.393 -1.4157 -2.4931 -0.8638
15267TIP3    H267217   2.354   3.434  11.344 -3.9925  1.0664  0.0898
15268TIP3   OH267218   6.262   3.248  16.937  0.1498 -0.1119  0.4745
15268TIP3    H167219   6.258   3.185  16.864 -1.1517 -0.7703  1.0629
15268TIP3    H267220   6.279   3.194  17.014  1.8652  0.6183  0.6566
15269TIP3   OH267221   4.167   2.380   3.746  0.2585 -0.4242 -0.0492
15269TIP3    H167222   4.187   2.298   3.792 -2.9149 -1.1815  0.2092
15269TIP3    H267223   4.113   2.430   3.808 -0.0681  0.6981 -1.1905
15270TIP3   OH267224   5.391   1.479   3.183 -0.2763 -0.1122 -0.7097
15270TIP3    H167225   5.363   1.563   3.219  0.4203 -1.1167  2.4861
15270TIP3    H267226   5.461   1.502   3.121 -0.6900  1.6832 -0.5760
15271TIP3   OH267227   5.615   4.025  15.262 -0.1548 -0.2218  0.7500
15271TIP3    H167228   5.546   4.060  15.206 -1.7112 -0.5906  2.3570
15271TIP3    H267229   5.571   3.961  15.318  1.7462 -1.4265  0.9702
15272TIP3   OH267230   3.631   3.345   6.383 -0.3718  0.6107 -0.4114
15272TIP3    H167231   3.688   3.420   6.403  1.8782 -1.4717  1.7763
15272TIP3    H267232   3.688   3.269   6.395 -3.3193 -1.6069  0.6613
15273TIP3   OH267233   2.203   0.188  12.763  0.1195 -0.1668  0.1370
15273TIP3    H167234   2.228   0.278  12.784 -0.0787 -0.1855  0.4578
15273TIP3    H267235   2.285   0.145  12.741  0.2016  0.1249 -0.1431
15274TIP3   OH267236   4.472   5.045   3.940  0.2615  0.3052  0.0855
15274TIP3    H167237   4.460   5.102   4.016 -3.6238  0.4937 -0.4574
15274TIP3    H267238   4.522   5.098   3.877 -0.6839  2.0001  0.7158
15275TIP3   OH267239   0.496   0.942   3.940 -0.1204  0.3248 -0.0380
15275TIP3    H167240   0.420   0.909   3.988  2.6224 -0.4157  4.3726
15275TIP3    H267241   0.502   1.034   3.965  0.5640  0.2957 -0.0807
15276TIP3   OH267242   4.733   1.610   4.647 -0.0400 -0.0836  0.1812
15276TIP3    H167243   4.757   1.545   4.714  1.0538 -0.3211 -0.4178
15276TIP3    H267244   4.639   1.596   4.633 -0.4198  0.3191  2.0170
15277TIP3   OH267245   5.638   6.663   2.997 -0.7799 -0.9290  0.1139
15277TIP3    H167246   5.637   6.572   3.027  1.7737 -1.0098  0.1632
15277TIP3    H267247   5.662   6.658   2.905 -0.7107 -0.3061  0.0939
15278TIP3   OH267248   6.603   4.691   3.659  0.0120  0.1401  0.2196
15278TIP3    H167249   6.610   4.786   3.656  2.7356  0.0949  1.6597
15278TIP3    H267250   6.592   4.671   3.752 -1.3781 -0.9552 -0.1473
15279TIP3   OH267251   2.456   5.846  12.825  0.6458  0.0367 -0.0218
15279TIP3    H167252   2.421   5.901  12.895 -1.5341 -0.6516 -0.4976
15279TIP3    H267253   2.480   5.908  12.755 -2.8339  0.4717 -1.0112
15280TIP3   OH267254   6.526   2.936  13.189 -0.7741 -0.5278 -0.6111
15280TIP3    H167255   6.605   2.955  13.138 -1.0704  0.2481 -0.8058
15280TIP3    H267256   6.475   2.876  13.134 -1.4113  0.8382 -1.5761
15281TIP3   OH267257   5.204   0.542  16.144 -0.2657  0.5843  0.9618
15281TIP3    H167258   5.205   0.626  16.097 -1.2597  0.9254  1.5267
15281TIP3    H267259   5.286   0.541  16.193  0.5194  0.4861 -0.2962
15282TIP3   OH267260   2.576   3.612  15.145 -0.6119 -0.6431  0.3822
15282TIP3    H167261   2.635   3.536  15.139 -0.2751 -0.4970  1.7277
15282TIP3    H267262   2.635   3.687  15.153 -0.9778 -0.4570  1.3327
15283TIP3   OH267263   2.080   5.260   2.923 -0.2005  0.2375  0.0417
15283TIP3    H167264   2.046   5.211   2.848  1.6334 -2.5150  0.8574
15283TIP3    H267265   2.017   5.245   2.993  0.9669 -2.2588  0.6667
15284TIP3   OH267266   6.675   2.988   2.982  0.1038 -0.2066  0.2246
15284TIP3    H167267   6.661   3.038   2.901 -0.9078  0.1710  0.6074
15284TIP3    H267268   6.598   3.009   3.036  0.6662 -0.6079  1.2027
15285TIP3   OH267269   1.983   6.505   3.839 -0.4856 -0.3341 -0.5182
15285TIP3    H167270   1.897   6.465   3.828 -1.0741  0.9623 -0.8859
15285TIP3    H267271   1.966   6.589   3.882  0.5357  0.1367 -0.9722
15286TIP3   OH267272   2.521   0.403  17.252  0.0602 -0.1117 -0.4007
15286TIP3    H167273   2.546   0.470  17.316  1.1323 -1.7965  1.0396
15286TIP3    H267274   2.593   0.340  17.253 -1.9160 -2.5268  0.0767
15287TIP3   OH267275   6.486   3.568   0.099 -0.6084  0.0973 -0.5591
15287TIP3    H167276   6.580   3.575   0.116 -1.0209  0.2121  2.0595
15287TIP3    H267277   6.474   3.478   0.069  0.2394 -0.1453 -0.2006
15288TIP3   OH267278   0.294   5.157  11.767 -0.3727 -0.0892 -0.5587
15288TIP3    H167279   0.203   5.128  11.772 -0.0733 -0.9837 -0.0598
15288TIP3    H267280   0.335   5.122  11.846  0.0932  1.4808 -0.0682
15289TIP3   OH267281   0.985   3.313  12.888 -0.1904 -0.4045 -0.1044
15289TIP3    H167282   0.982   3.311  12.983 -1.5550  0.0094 -0.1155
15289TIP3    H267283   1.077   3.331  12.867  0.6798 -3.1175  1.0262
15290TIP3   OH267284   0.106   4.949  11.643 -0.0196 -0.3010  0.3145
15290TIP3    H167285   0.061   4.917  11.722  1.1150 -0.3984  0.9574
15290TIP3    H267286   0.146   4.870  11.605  1.0911  0.0213  0.7697
15291TIP3   OH267287   6.482   5.959  15.869 -0.2326  0.2309  0.0378
15291TIP3    H167288   6.397   5.914  15.877  0.3508 -1.0703 -0.6505
15291TIP3    H267289   6.480   5.995  15.780  0.1767 -0.3504 -0.2118
15292TIP3   OH267290   5.018   5.447  15.071  0.3474  0.7551  0.6180
15292TIP3    H167291   4.980   5.533  15.087 -0.1166  1.0871 -1.8611
15292TIP3    H267292   4.945   5.394  15.039  1.3849  0.7782 -2.1305
15293TIP3   OH267293   3.579   4.289   4.311  0.5469 -0.0229  0.0863
15293TIP3    H167294   3.582   4.380   4.280 -1.0473 -0.2141 -0.7251
15293TIP3    H267295   3.581   4.296   4.407  0.5433  0.8584  0.0269
15294TIP3   OH267296   4.370   5.487   2.879  0.3498  0.1397 -0.0606
15294TIP3    H167297   4.379   5.573   2.837 -0.2433 -0.9156 -2.4944
15294TIP3    H267298   4.458   5.465   2.908  0.7433  1.0073 -0.5535
15295TIP3   OH267299   5.045   3.247   0.433 -0.0919  0.2952 -0.1777
15295TIP3    H167300   5.139   3.251   0.446  0.0223  0.1878 -0.9335
15295TIP3    H267301   5.030   3.288   0.348 -1.0038  2.7521  1.0705
15296TIP3   OH267302   5.263   4.976  12.046  0.4396 -0.4896  0.2842
15296TIP3    H167303   5.337   4.993  12.105  1.5869  0.1417 -1.2863
15296TIP3    H267304   5.288   4.898  11.997  0.6065  0.3652 -1.0468
15297TIP3   OH267305   0.885   2.738   1.242  0.3750 -0.2179 -0.1370
15297TIP3    H167306   0.825   2.812   1.255  0.5765 -0.3149  1.5781
15297TIP3    H267307   0.963   2.777   1.204  0.4611  0.4788  0.7049
15298TIP3   OH267308   2.462   1.448   5.098 -0.0116  0.3141 -0.2036
15298TIP3    H167309   2.377   1.473   5.061 -0.6545 -1.0941  0.2428
15298TIP3    H267310   2.506   1.401   5.028 -0.6009 -1.0177  0.2835
15299TIP3   OH267311   2.765   6.647   6.156 -0.1490  0.0141  0.2785
15299TIP3    H167312   2.831   6.712   6.181 -1.5781  0.7729  2.3723
15299TIP3    H267313   2.811   6.588   6.097  1.9024  1.5035  0.2663
15300TIP3   OH267314   3.205   1.377  16.646 -0.5365 -0.1587 -0.2476
15300TIP3    H167315   3.200   1.342  16.735 -0.2014 -1.4071 -0.7003
15300TIP3    H267316   3.256   1.312  16.597  0.1913  1.0110 -1.1159
15301TIP3   OH267317   3.265   5.491  15.179  0.7915  0.2357 -0.4501
15301TIP3    H167318   3.245   5.398  15.190  1.1899  0.2263  0.2752
15301TIP3    H267319   3.345   5.493  15.127  0.2049  0.2114 -1.3771
15302TIP3   OH267320   5.769   5.438  11.995  0.5292 -0.0135  0.0313
15302TIP3    H167321   5.767   5.469  11.905  0.6149 -1.9510 -0.6941
15302TIP3    H267322   5.681   5.406  12.012  0.7509 -0.5190  0.2875
15303TIP3   OH267323   2.153   6.560   0.922 -0.1966  0.1609 -0.9608
15303TIP3    H167324   2.179   6.542   0.832  1.2856  0.7760 -0.6768
15303TIP3    H267325   2.229   6.537   0.975 -0.4469  1.3737 -0.0262
15304TIP3   OH267326   6.432   5.861  11.164  0.4180 -0.3863 -0.1050
15304TIP3    H167327   6.349   5.862  11.117  0.7466 -2.0160 -0.7746
15304TIP3    H267328   6.498   5.884  11.098  0.4398  2.3414  0.7247
15305TIP3   OH267329   5.970   4.367  14.943 -1.0656 -0.4471 -0.1328
15305TIP3    H167330   6.002   4.282  14.973  1.4892  1.2479  2.4550
15305TIP3    H267331   6.037   4.398  14.883 -2.0087 -0.1933 -1.0958
15306TIP3   OH267332   4.259   1.384   2.443 -0.3575 -0.0245 -0.5657
15306TIP3    H167333   4.256   1.446   2.516  0.7517 -0.5036 -0.1007
15306TIP3    H267334   4.350   1.383   2.416 -0.0908 -2.3679  0.2240
15307TIP3   OH267335   3.822   5.473  14.777 -0.2093 -0.1812 -0.1162
15307TIP3    H167336   3.741   5.522  14.760 -0.0180 -0.1672 -1.0116
15307TIP3    H267337   3.873   5.531  14.833 -1.5405 -0.9086  1.9985
15308TIP3   OH267338   4.172   5.520  11.467  0.8509  0.1711  0.1903
15308TIP3    H167339   4.122   5.451  11.423  1.3917  0.2856 -0.6166
15308TIP3    H267340   4.106   5.588  11.486  0.7623  0.5592 -1.3535
15309TIP3   OH267341   1.472   4.387  11.902 -0.6092 -0.1364 -0.2527
15309TIP3    H167342   1.525   4.325  11.853 -0.3520 -1.4885  1.6217
15309TIP3    H267343   1.409   4.332  11.950 -0.2622  0.9753  1.5967
15310TIP3   OH267344   2.120   2.009  11.412  0.1957 -0.1911 -0.2492
15310TIP3    H167345   2.209   2.013  11.376  0.2513 -1.1525 -0.2685
15310TIP3    H267346   2.125   2.059  11.493  0.3245  1.1536 -1.0673
15311TIP3   OH267347   3.578   6.035   6.110 -0.1735 -0.2702 -0.1275
15311TIP3    H167348   3.613   6.110   6.159 -1.6756 -0.2908  1.0953
15311TIP3    H267349   3.585   5.962   6.172 -1.5990 -0.4212 -0.1122
15312TIP3   OH267350   0.079   4.006  16.243 -0.3497 -0.2601 -0.3118
15312TIP3    H167351   0.040   4.031  16.159  0.7073  0.8615 -0.4859
15312TIP3    H267352   0.171   3.988  16.223  0.1048  0.7767  0.7183
15313TIP3   OH267353   1.255   4.315   2.055 -0.5553  0.1145  0.3305
15313TIP3    H167354   1.262   4.396   2.004  1.2227 -0.0999  0.1578
15313TIP3    H267355   1.167   4.283   2.038 -1.0082  1.5869 -0.2524
15314TIP3   OH267356   6.145   1.565  14.368  0.1406  0.2038 -0.2395
15314TIP3    H167357   6.088   1.576  14.292  2.6434  2.5696 -1.9919
15314TIP3    H267358   6.197   1.487  14.348 -2.5853 -2.3560  1.6585
15315TIP3   OH267359   0.374   6.529  16.452  0.1528 -0.0099 -0.3470
15315TIP3    H167360   0.436   6.563  16.389  0.0609 -0.9838 -0.9788
15315TIP3    H267361   0.288   6.553  16.418  0.0696 -1.1155 -0.9765
15316TIP3   OH267362   1.864   5.046  12.926 -0.2428 -0.2142  0.0674
15316TIP3    H167363   1.926   5.034  12.855 -0.2378 -0.6543  0.1423
15316TIP3    H267364   1.847   5.140  12.928  0.1579 -0.1363 -0.1721
15317TIP3   OH267365   2.708   6.599  13.463  0.0337 -0.0495  0.1133
15317TIP3    H167366   2.624   6.624  13.425 -0.9413 -0.5946  1.8499
15317TIP3    H267367   2.700   6.505  13.480  1.1658 -0.1968 -0.0782
15318TIP3   OH267368   6.595   6.419  14.178 -0.2146  0.3223  0.2398
15318TIP3    H167369   6.614   6.325  14.172 -1.0185  0.0956  1.0468
15318TIP3    H267370   6.547   6.429  14.260 -1.1297  1.2730 -0.3869
15319TIP3   OH267371   3.070   0.759  14.756 -0.1887 -0.3427 -0.1088
15319TIP3    H167372   3.062   0.710  14.838  2.4455  0.0055  0.4523
15319TIP3    H267373   3.093   0.693  14.691 -1.8209 -0.5492 -0.5188
15320TIP3   OH267374   5.293   1.223   1.555  0.2844  0.2757  0.5443
15320TIP3    H167375   5.357   1.158   1.584  1.6273  0.6602 -1.3897
15320TIP3    H267376   5.326   1.306   1.590  0.7516  0.4442 -0.2747
15321TIP3   OH267377   3.377   6.730   5.228  0.7680 -0.0816 -0.1371
15321TIP3    H167378   3.376   6.786   5.306  1.4836  0.7348 -0.7018
15321TIP3    H267379   3.420   6.649   5.258 -1.0858 -0.7273  0.9187
15322TIP3   OH267380   5.373   2.492  16.692 -0.6159  0.2511 -0.4573
15322TIP3    H167381   5.445   2.430  16.679 -0.3683  0.2340  0.8904
15322TIP3    H267382   5.308   2.467  16.626 -0.3284 -1.1508 -0.2437
15323TIP3   OH267383   3.119   2.783   0.819  0.5767  0.1526  0.0430
15323TIP3    H167384   3.062   2.792   0.742 -0.2373 -0.3129  0.5720
15323TIP3    H267385   3.155   2.871   0.833 -2.1493  1.2040  1.2906
15324TIP3   OH267386   5.118   2.441  16.842  0.0988 -0.6234 -0.6800
15324TIP3    H167387   5.104   2.346  16.835 -1.2099 -0.4089 -1.3885
15324TIP3    H267388   5.135   2.469  16.752  0.2090 -0.1485 -0.5150
15325TIP3   OH267389   1.310   0.433   0.024  0.4826 -0.6382 -0.4457
15325TIP3    H167390   1.352   0.485   0.093 -0.4136 -1.9590  1.1841
15325TIP3    H267391   1.352   0.462  -0.057  1.2282  1.3491  0.5709
15326TIP3   OH267392   4.742   1.863   4.834  0.0638  0.0024  0.0674
15326TIP3    H167393   4.731   1.824   4.921 -1.9844 -0.8026 -0.4792
15326TIP3    H267394   4.703   1.798   4.774 -1.9989  2.1309 -1.0576
15327TIP3   OH267395   2.673   6.750   3.309 -0.4802  0.3114 -0.0816
15327TIP3    H167396   2.702   6.832   3.348  2.8239 -0.8195  0.1366
15327TIP3    H267397   2.647   6.696   3.383  2.2949 -0.5530  0.3573
15328TIP3   OH267398   6.670   1.160  12.582  0.5235  0.0727 -0.0448
15328TIP3    H167399   6.585   1.143  12.541  1.0018 -2.7629 -0.0735
15328TIP3    H267400   6.726   1.089  12.551  2.3327  0.7054  1.5725
15329TIP3   OH267401   6.776   3.041   2.354  1.2694 -0.2173 -0.4487
15329TIP3    H167402   6.722   3.120   2.352  2.3573  0.5296 -1.2857
15329TIP3    H267403   6.845   3.060   2.417  0.8919 -0.9610  0.2157
15330TIP3   OH267404   5.940   3.450  12.277  0.2147 -0.7129 -0.1845
15330TIP3    H167405   5.892   3.413  12.350  0.2822  0.2038  0.3429
15330TIP3    H267406   6.028   3.465  12.311  0.2284 -0.2237 -0.4250
15331TIP3   OH267407   4.117   2.823  13.310 -0.0847 -0.3032 -0.0494
15331TIP3    H167408   4.143   2.838  13.220 -0.3735 -0.5215 -0.1710
15331TIP3    H267409   4.091   2.731  13.313 -1.1969 -0.0062 -0.0276
15332TIP3   OH267410   4.158   0.152  14.551  0.7119 -0.5965  0.8590
15332TIP3    H167411   4.160   0.244  14.521  0.3338 -1.2690 -1.4859
15332TIP3    H267412   4.241   0.140  14.597  0.9975  0.7834  0.7638
15333TIP3   OH267413   0.197   2.031   2.684  0.3268 -0.3742  0.3674
15333TIP3    H167414   0.216   1.950   2.730  0.0390 -0.5105  0.2527
15333TIP3    H267415   0.135   2.006   2.615 -0.2140  0.0289  0.6872
15334TIP3   OH267416   0.823   3.638   1.801 -0.3243  0.3246 -0.4233
15334TIP3    H167417   0.729   3.636   1.817 -0.2199  0.0244  0.1768
15334TIP3    H267418   0.845   3.731   1.794 -0.4272  0.4625  0.9098
15335TIP3   OH267419   0.278   5.094  14.230  0.0569  0.5035  0.0143
15335TIP3    H167420   0.239   5.105  14.317 -0.8426  1.5044 -0.4820
15335TIP3    H267421   0.223   5.148  14.173  0.6847 -0.0691 -1.1612
15336TIP3   OH267422   0.115   4.013   2.025 -0.5752 -0.5026  0.1062
15336TIP3    H167423   0.186   3.948   2.027 -0.2772 -0.2047 -0.5458
15336TIP3    H267424   0.116   4.052   2.113 -1.1642 -1.8049  0.7179
15337TIP3   OH267425   4.470   5.022   6.137 -0.1845 -1.0681 -0.0229
15337TIP3    H167426   4.479   5.079   6.213 -0.4145  0.5321 -1.1483
15337TIP3    H267427   4.378   4.997   6.136 -0.3536 -0.4482 -0.2081
15338TIP3   OH267428   5.547   0.534  12.757  0.3766 -0.2843  0.4519
15338TIP3    H167429   5.563   0.542  12.851  0.0332 -2.3945  0.7470
15338TIP3    H267430   5.604   0.462  12.729  2.0890  1.6713 -1.4471
15339TIP3   OH267431   3.432   3.884  11.323  0.9492  0.4982  0.3279
15339TIP3    H167432   3.439   3.944  11.398  1.2370  1.0317 -0.1155
15339TIP3    H267433   3.341   3.892  11.295  1.6211  3.0413 -1.5567
15340TIP3   OH267434   2.960   4.592   4.989 -0.4326  0.0083  0.1295
15340TIP3    H167435   2.926   4.518   4.939 -1.8670 -1.0487  2.4989
15340TIP3    H267436   2.884   4.627   5.035  0.6861  1.2852  1.0895
15341TIP3   OH267437   0.714   4.149   6.566  0.4405  0.3987 -0.2112
15341TIP3    H167438   0.737   4.076   6.624 -1.9248 -0.2452  0.0317
15341TIP3    H267439   0.718   4.112   6.478 -1.9308 -0.4744 -0.0236
15342TIP3   OH267440   1.504   3.009  16.936 -0.2614 -0.0253  0.1488
15342TIP3    H167441   1.599   3.011  16.925 -0.1906  1.9051  0.7216
15342TIP3    H267442   1.471   2.958  16.862  1.1921 -0.5020 -0.1884
15343TIP3   OH267443   4.561   5.723  14.638  0.3109  0.4041  0.4450
15343TIP3    H167444   4.569   5.803  14.690 -2.1515  1.2387 -0.3420
15343TIP3    H267445   4.467   5.711  14.626  0.6513 -2.1086 -0.2726
15344TIP3   OH267446   1.040   5.745   1.809  0.0448  0.2515  0.3933
15344TIP3    H167447   1.124   5.791   1.805 -1.3301  3.1524  1.7961
15344TIP3    H267448   0.990   5.780   1.735 -0.3812 -0.5144  0.3055
15345TIP3   OH267449   2.680   6.352  11.251 -0.1074  0.2809  0.2844
15345TIP3    H167450   2.675   6.264  11.288  0.4954  0.6158  1.2116
15345TIP3    H267451   2.619   6.352  11.177  1.4240 -1.5621 -1.0841
15346TIP3   OH267452   3.460   4.989   2.621  0.3097  0.1700  0.2769
15346TIP3    H167453   3.455   4.909   2.673  1.8828  0.5214  1.0395
15346TIP3    H267454   3.422   5.057   2.677 -0.8681  0.0219 -0.3027
15347TIP3   OH267455   2.605   1.702   0.831  0.6124 -0.0970 -0.2402
15347TIP3    H167456   2.558   1.653   0.764  0.7698 -0.1404 -0.3191
15347TIP3    H267457   2.663   1.760   0.782 -0.5736  1.1979 -0.1949
15348TIP3   OH267458   6.530   1.849   0.123 -0.1578 -0.3431  0.2983
15348TIP3    H167459   6.618   1.820   0.102  0.3759 -0.0243  1.9483
15348TIP3    H267460   6.524   1.937   0.086  0.5867  0.0178  1.0013
15349TIP3   OH267461   1.372   6.098   2.466 -0.2415 -0.1627  0.1795
15349TIP3    H167462   1.304   6.122   2.403  0.9810 -1.1031 -1.5912
15349TIP3    H267463   1.330   6.034   2.524 -0.4571 -2.1096 -1.9768
15350TIP3   OH267464   5.041   5.512   4.791 -0.2428 -0.3169 -0.1610
15350TIP3    H167465   5.062   5.545   4.704  1.4491  0.3595  0.4641
15350TIP3    H267466   5.114   5.454   4.813  0.1124  0.6681  1.3836
15351TIP3   OH267467   1.285   4.921  15.601 -0.4807 -0.5725 -0.2581
15351TIP3    H167468   1.262   4.957  15.687  1.1217 -0.0779  0.0051
15351TIP3    H267469   1.356   4.859  15.619 -1.0493 -1.4806 -1.0846
15352TIP3   OH267470   3.045   1.224  16.443  0.0732 -0.0086  0.1402
15352TIP3    H167471   2.960   1.256  16.414  0.6553  1.2613 -0.2632
15352TIP3    H267472   3.042   1.229  16.539 -0.2516  0.1792  0.1197
15353TIP3   OH267473   5.817   3.714   5.445 -0.5651 -0.0396  0.0893
15353TIP3    H167474   5.832   3.620   5.454 -1.1481 -0.3738 -1.8919
15353TIP3    H267475   5.735   3.729   5.492 -1.4542 -0.9116 -1.1138
15354TIP3   OH267476   6.140   1.346   4.582 -0.0408  0.4865 -0.5509
15354TIP3    H167477   6.046   1.358   4.572 -0.0339  2.2731  1.0384
15354TIP3    H267478   6.149   1.271   4.640 -0.5403  1.1780  0.4273
15355TIP3   OH267479   4.481   4.393   1.337 -0.0487 -0.0466  0.0687
15355TIP3    H167480   4.509   4.316   1.287 -1.7376 -0.7359  0.0990
15355TIP3    H267481   4.429   4.444   1.275  0.7594  0.8890  0.1570
15356TIP3   OH267482   5.638   0.174   2.997  0.1309  0.0615  0.2065
15356TIP3    H167483   5.573   0.125   3.046  0.6208  0.3361  1.1485
15356TIP3    H267484   5.638   0.133   2.910 -2.8435  1.4401 -0.5452
15357TIP3   OH267485   0.311   6.185   4.786 -0.0767  0.3159  0.6890
15357TIP3    H167486   0.296   6.127   4.860  0.3294 -1.7516 -0.7576
15357TIP3    H267487   0.371   6.137   4.729 -1.6435  1.0741 -1.7668
15358TIP3   OH267488   0.710   1.184   0.952 -0.3716 -1.0054 -0.4847
15358TIP3    H167489   0.784   1.151   0.902  0.1319 -1.4586  0.5280
15358TIP3    H267490   0.634   1.167   0.897  0.1658 -1.5061 -1.0822
15359TIP3   OH267491   6.158   5.489   0.604  0.3075 -0.3552 -0.1084
15359TIP3    H167492   6.154   5.461   0.512  1.9680  1.1947 -0.7177
15359TIP3    H267493   6.188   5.411   0.651 -1.8561 -1.5684 -0.6223
15360TIP3   OH267494   3.445   5.052  11.189 -0.3474  0.5169 -0.1106
15360TIP3    H167495   3.452   4.973  11.135 -1.5669  0.2951  0.0143
15360TIP3    H267496   3.352   5.076  11.184 -0.1145  1.5928  0.3532
15361TIP3   OH267497   5.222   2.833  17.024  0.2706 -0.6397  0.1084
15361TIP3    H167498   5.276   2.771  16.975 -2.4422 -1.6115 -1.9445
15361TIP3    H267499   5.132   2.813  16.997 -1.0013  2.1496  1.7853
15362TIP3   OH267500   6.543   2.607   1.398  0.2587 -0.0587  0.0436
15362TIP3    H167501   6.580   2.533   1.350  0.2657  0.4835 -0.8069
15362TIP3    H267502   6.451   2.611   1.370  0.2976  0.3467 -0.0356
15363TIP3   OH267503   5.646   2.046  16.482 -0.4395  0.1328  0.1073
15363TIP3    H167504   5.642   1.973  16.544 -1.0712  1.1305  1.2799
15363TIP3    H267505   5.686   2.009  16.404 -2.2734 -1.9061  0.0478
15364TIP3   OH267506   0.619   4.018   5.122  0.6917  0.7667 -0.2601
15364TIP3    H167507   0.534   4.000   5.082  0.7711  0.7646 -0.4265
15364TIP3    H267508   0.643   4.105   5.090  0.8089  0.7167 -0.3083
15365TIP3   OH267509   0.053   1.767   5.358  0.3398  0.1934  0.1227
15365TIP3    H167510  -0.025   1.800   5.313  0.6919 -0.2306 -0.8284
15365TIP3    H267511   0.078   1.838   5.417 -0.8317  0.2830  0.5481
15366TIP3   OH267512   1.717   6.469   3.784 -0.0943 -0.0662 -0.0080
15366TIP3    H167513   1.634   6.474   3.831  0.1896  0.6836  0.4368
15366TIP3    H267514   1.694   6.484   3.692 -0.5069 -0.3392  0.0496
15367TIP3   OH267515   1.246   0.056  10.522  0.6543  0.3721  0.6617
15367TIP3    H167516   1.292   0.013  10.450  2.2075  1.7407  0.7954
15367TIP3    H267517   1.208   0.134  10.482  0.2342  0.3563  1.0247
15368TIP3   OH267518   1.884   4.634   3.104 -0.6966 -0.5305  0.1162
15368TIP3    H167519   1.905   4.686   3.181 -0.9370  0.1718 -0.2870
15368TIP3    H267520   1.845   4.553   3.139  0.1561 -0.6726  0.7594
15369TIP3   OH267521   3.854   1.480   5.679 -0.0794  0.0092  0.4560
15369TIP3    H167522   3.843   1.458   5.772  0.4296  0.5559  0.6554
15369TIP3    H267523   3.833   1.573   5.674 -0.2083 -0.0437  0.0023
15370TIP3   OH267524   5.883   0.974  12.356  0.2284  0.0241 -0.3706
15370TIP3    H167525   5.848   0.959  12.268  2.3781  0.9465 -1.4415
15370TIP3    H267526   5.976   0.953  12.350  0.4606  0.2501  1.6524
15371TIP3   OH267527   0.922   0.937  14.013 -0.1725  0.5924  0.7007
15371TIP3    H167528   0.829   0.956  13.998 -0.1794 -0.0572 -0.2291
15371TIP3    H267529   0.923   0.845  14.041  0.1595  0.7016  1.0468
15372TIP3   OH267530   1.725   4.473   5.028 -0.3914  0.5076  0.0784
15372TIP3    H167531   1.644   4.508   4.992 -0.0723 -0.1606 -1.4027
15372TIP3    H267532   1.712   4.378   5.029  0.3256  0.4003 -0.0912
15373TIP3   OH267533   5.027   2.246   5.443  0.1709  0.5121  0.1467
15373TIP3    H167534   5.037   2.240   5.538  0.1433  1.7178  0.2455
15373TIP3    H267535   5.102   2.199   5.407 -1.4468 -2.7203  0.6909
15374TIP3   OH267536   3.478   0.020  11.349 -0.2042  0.0633  0.2333
15374TIP3    H167537   3.506  -0.046  11.285  0.6136 -0.7181  1.3566
15374TIP3    H267538   3.532   0.096  11.330 -0.9322  0.3227 -0.8749
15375TIP3   OH267539   3.647   5.187   5.760  0.1132  0.2194 -0.2435
15375TIP3    H167540   3.659   5.213   5.852 -1.3092  0.8608 -0.2201
15375TIP3    H267541   3.711   5.117   5.747 -0.0172 -0.2532  1.3926
15376TIP3   OH267542   6.085   4.845  16.675 -0.2999 -0.9787 -0.0929
15376TIP3    H167543   6.034   4.817  16.751 -0.9924  0.0985 -0.1379
15376TIP3    H267544   6.150   4.776  16.663  0.4403 -0.7110  2.0560
15377TIP3   OH267545   4.550   3.925   1.073 -0.3085  0.4970  0.2594
15377TIP3    H167546   4.485   3.899   1.009  0.6826 -1.2562 -0.1026
15377TIP3    H267547   4.631   3.934   1.023  0.1299  0.7841  0.9957
15378TIP3   OH267548   6.161   5.534  12.690  0.1585 -0.1945 -0.2659
15378TIP3    H167549   6.077   5.578  12.700  1.4647  2.5429 -0.2674
15378TIP3    H267550   6.206   5.586  12.622  0.7445 -3.4161 -2.5630
15379TIP3   OH267551   4.655   3.164   0.592 -0.0064  0.2240 -0.4814
15379TIP3    H167552   4.743   3.126   0.595 -0.7163 -1.5261 -0.7017
15379TIP3    H267553   4.663   3.241   0.535  1.0048 -0.9870 -2.0348
15380TIP3   OH267554   2.298   2.714   2.245 -0.8229 -0.3505 -0.3542
15380TIP3    H167555   2.289   2.786   2.307 -1.1414  0.2771 -1.1243
15380TIP3    H267556   2.385   2.678   2.263 -0.4060  0.6194 -0.3697
15381TIP3   OH267557   1.451   0.717   0.101  0.4116  0.2170  0.3964
15381TIP3    H167558   1.467   0.807   0.073 -1.3791  0.3271 -0.3640
15381TIP3    H267559   1.512   0.705   0.174  1.7114  1.5455 -0.3914
15382TIP3   OH267560   0.240   4.096   4.007 -0.2937  0.5562 -1.0057
15382TIP3    H167561   0.162   4.151   3.999  0.0011  1.5703  1.8593
15382TIP3    H267562   0.226   4.047   4.088  2.6517  1.9514  0.4994
15383TIP3   OH267563   3.138   1.852  15.415  0.2377 -0.2761 -0.0301
15383TIP3    H167564   3.158   1.759  15.426 -0.8493 -0.6266 -0.7877
15383TIP3    H267565   3.208   1.897  15.461  0.8423 -1.4689  0.2709
15384TIP3   OH267566   4.516   2.627   2.390 -0.7771  0.1894  0.2982
15384TIP3    H167567   4.533   2.721   2.390  0.6581 -0.0424  0.0462
15384TIP3    H267568   4.515   2.603   2.297 -0.6984 -0.1215  0.3764
15385TIP3   OH267569   2.673   6.339   4.033  0.1202  0.4464  0.4119
15385TIP3    H167570   2.768   6.337   4.025  0.1905  2.0646  0.4527
15385TIP3    H267571   2.643   6.383   3.953 -0.5017  0.8127  0.8307
15386TIP3   OH267572   3.372   1.044   4.145  0.2681  0.4001  0.3301
15386TIP3    H167573   3.351   1.007   4.231  1.2983  0.3323  0.5654
15386TIP3    H267574   3.362   0.971   4.085 -0.0650  0.3462  0.4502
15387TIP3   OH267575   4.846   1.856  11.528 -0.6777 -0.0472  0.4019
15387TIP3    H167576   4.757   1.822  11.528 -0.8763  0.4683 -0.1426
15387TIP3    H267577   4.871   1.859  11.436 -0.3769  0.5466  0.5000
15388TIP3   OH267578   0.030   2.096  16.965  0.0791 -0.1181  0.0130
15388TIP3    H167579   0.012   2.188  16.944  0.0029  0.7833  3.4941
15388TIP3    H267580   0.105   2.098  17.023 -0.6468 -2.1333  1.1278
15389TIP3   OH267581   0.315   3.699  13.545 -0.1948 -0.6555  0.3072
15389TIP3    H167582   0.247   3.758  13.578  0.8725  0.1420  1.1793
15389TIP3    H267583   0.351   3.743  13.468 -0.1283 -0.6799  0.3241
15390TIP3   OH267584   1.534   0.453   3.219  0.1443  0.0537  0.2267
15390TIP3    H167585   1.546   0.385   3.153 -0.0648  1.0865 -0.9268
15390TIP3    H267586   1.579   0.529   3.183  0.1904  0.5902  1.3779
15391TIP3   OH267587   5.096   4.115  14.753 -0.1620 -0.8687 -0.0616
15391TIP3    H167588   5.082   4.099  14.660 -1.5944 -0.4242  0.0462
15391TIP3    H267589   5.021   4.167  14.780  1.3901  1.0085  0.8645
15392TIP3   OH267590   1.968   4.558  16.541  0.5908  0.9440 -0.0510
15392TIP3    H167591   1.879   4.561  16.506  0.9646  0.8865 -1.0373
15392TIP3    H267592   1.965   4.490  16.608 -0.1495  1.0570  0.0349
15393TIP3   OH267593   1.571   6.008  15.034  0.4578  0.1162  0.1743
15393TIP3    H167594   1.600   5.935  14.979  0.0070 -0.2871  0.4581
15393TIP3    H267595   1.481   6.025  15.006  0.4528  0.3464  0.3258
15394TIP3   OH267596   0.287   1.010   2.085  0.4431  0.3548 -0.5546
15394TIP3    H167597   0.353   1.016   2.015 -0.3340 -1.8042 -1.5589
15394TIP3    H267598   0.259   0.919   2.083  0.0433  0.3393  2.3184
15395TIP3   OH267599   2.649   1.742   2.551 -0.2504  0.3020 -0.1495
15395TIP3    H167600   2.712   1.734   2.480 -0.2370  0.7751 -0.1959
15395TIP3    H267601   2.564   1.727   2.510 -0.2378  0.5150 -0.2540
15396TIP3   OH267602   4.808   6.587   2.933 -0.4679  0.4470 -0.3348
15396TIP3    H167603   4.751   6.526   2.980 -2.4191  1.5705 -1.1261
15396TIP3    H267604   4.762   6.671   2.937 -0.4131  0.7638 -3.5639
15397TIP3   OH267605   0.745   0.599   1.663 -0.2018 -0.4629  0.8862
15397TIP3    H167606   0.657   0.590   1.626  0.3983  1.1792 -1.1663
15397TIP3    H267607   0.804   0.572   1.592  0.9796  1.3807  1.0868
15398TIP3   OH267608   5.697   3.124  16.530 -0.0338 -0.0347 -0.1847
15398TIP3    H167609   5.708   3.029  16.541  1.5900 -0.1294 -2.1264
15398TIP3    H267610   5.687   3.157  16.619  0.2201 -1.9381  0.5989
15399TIP3   OH267611   4.591   2.058   1.056  0.3124  0.6784  0.0771
15399TIP3    H167612   4.499   2.037   1.044  0.1595  1.8625 -1.0926
15399TIP3    H267613   4.632   1.975   1.080 -1.0028  0.0762  0.3226
15400TIP3   OH267614   3.197   6.173   3.238  0.1710 -0.8527  0.0658
15400TIP3    H167615   3.166   6.192   3.149  0.6903 -0.0279  0.0506
15400TIP3    H267616   3.272   6.115   3.225  0.1244 -0.8926 -0.0255
15401TIP3   OH267617   5.158   5.657  12.822 -0.3728  0.3234 -0.2010
15401TIP3    H167618   5.065   5.654  12.845 -0.4733 -0.6896 -0.6780
15401TIP3    H267619   5.199   5.704  12.895 -0.9471 -1.1258  1.1192
15402TIP3   OH267620   1.934   1.725   4.831 -0.4393  0.3420  0.1221
15402TIP3    H167621   1.904   1.812   4.807 -0.6698 -0.4711 -3.0357
15402TIP3    H267622   1.864   1.667   4.802  0.4716 -1.0040  0.5201
15403TIP3   OH267623   4.725   3.173  12.180  0.2413  0.7344 -0.5164
15403TIP3    H167624   4.688   3.244  12.232  2.2082  0.7973  0.8817
15403TIP3    H267625   4.650   3.137  12.133 -1.7625  0.3626  2.6989
15404TIP3   OH267626   6.052   1.604   4.100 -0.6173 -0.3042 -0.0211
15404TIP3    H167627   5.977   1.637   4.149 -1.7990 -2.3046 -0.3676
15404TIP3    H267628   6.024   1.604   4.009  0.5730  0.8317 -0.4120
15405TIP3   OH267629   0.522   2.267  17.148  0.3046 -0.3731 -0.5170
15405TIP3    H167630   0.602   2.234  17.109  0.0679  0.1709 -1.4968
15405TIP3    H267631   0.461   2.275  17.075  0.0566  1.3216 -0.1733
15406TIP3   OH267632   0.409   2.209   2.369 -0.1259  0.4300 -0.1827
15406TIP3    H167633   0.441   2.133   2.320 -2.0278 -1.4006  1.2203
15406TIP3    H267634   0.398   2.278   2.303  0.2502 -0.9664 -1.7759
15407TIP3   OH267635   2.624   1.078   6.297  0.0827 -0.0190  0.4641
15407TIP3    H167636   2.562   1.035   6.238 -0.2659  1.4266 -0.2631
15407TIP3    H267637   2.599   1.171   6.295  2.8190  0.7799 -0.5650
15408TIP3   OH267638   5.478   4.678   1.471 -0.3384 -0.2129  0.1776
15408TIP3    H167639   5.425   4.648   1.397  1.2251 -1.2367 -0.5850
15408TIP3    H267640   5.529   4.751   1.436 -0.4987  0.1106  0.6120
15409TIP3   OH267641   0.292   2.927  11.229 -0.0177  0.3443 -0.2339
15409TIP3    H167642   0.364   2.871  11.199 -0.3090  0.1964 -0.6729
15409TIP3    H267643   0.239   2.870  11.285  0.1690  0.4351  0.0379
15410TIP3   OH267644   6.221   2.184  11.158 -0.1445 -0.2578  0.3724
15410TIP3    H167645   6.156   2.140  11.103  0.9099 -1.8325  0.3192
15410TIP3    H267646   6.274   2.235  11.096 -1.0057  0.6564  0.3630
15411TIP3   OH267647   1.491   6.656  13.078  0.3326 -0.0754 -0.0873
15411TIP3    H167648   1.473   6.743  13.044 -0.0700  0.4826  1.4663
15411TIP3    H267649   1.436   6.649  13.157 -0.1436 -1.9859 -0.5359
15412TIP3   OH267650   3.311   2.035  14.861  0.8649 -0.3162 -0.2198
15412TIP3    H167651   3.371   1.967  14.891  1.2600  0.7538  1.5922
15412TIP3    H267652   3.368   2.111  14.844  0.1693  0.3587  0.3832
15413TIP3   OH267653   4.243   2.644   2.459  0.1459  1.0133  0.1274
15413TIP3    H167654   4.256   2.634   2.553  1.3033  1.5473  0.0477
15413TIP3    H267655   4.332   2.658   2.424 -0.3609  1.7999 -0.9120
15414TIP3   OH267656   5.521   2.526   6.353  0.0163 -0.1575 -0.2563
15414TIP3    H167657   5.553   2.436   6.344 -0.2187 -0.2592 -0.0725
15414TIP3    H267658   5.601   2.579   6.351  0.1311 -0.3400 -0.7171
15415TIP3   OH267659   3.995   6.692   1.920  0.2868 -0.9734  0.7412
15415TIP3    H167660   4.086   6.696   1.948  0.0972 -1.0484  1.3824
15415TIP3    H267661   3.953   6.634   1.983  0.1155 -2.2063 -0.4752
15416TIP3   OH267662   5.260   0.865   1.048  0.1093  0.0854 -0.1580
15416TIP3    H167663   5.196   0.922   1.090  0.5095  1.2458 -1.0821
15416TIP3    H267664   5.229   0.855   0.958  1.3494  0.8958 -0.7007
15417TIP3   OH267665   1.693   1.562  13.384 -0.3104  0.4052 -0.0848
15417TIP3    H167666   1.604   1.592  13.364 -0.3519  1.9930  2.1303
15417TIP3    H267667   1.709   1.593  13.473  1.8732 -1.2867  0.1906
15418TIP3   OH267668   4.037   5.141  13.740 -0.1061  0.2710 -0.3054
15418TIP3    H167669   3.962   5.104  13.786 -0.8861  2.0363 -0.0834
15418TIP3    H267670   4.007   5.225  13.707  1.2604  0.2455 -1.7575
15419TIP3   OH267671   3.696   1.081  15.206  0.3398  0.2684 -0.1536
15419TIP3    H167672   3.693   1.177  15.206  1.2756  0.3149 -1.3514
15419TIP3    H267673   3.632   1.056  15.272  0.8334  1.7386  0.9588
15420TIP3   OH267674   6.500   5.295  16.263  0.3756 -1.0532  0.2855
15420TIP3    H167675   6.434   5.291  16.332  0.9439 -1.1099  0.8366
15420TIP3    H267676   6.547   5.377  16.279 -1.9176  0.9595 -2.3199
15421TIP3   OH267677   4.537   5.688   1.534 -0.7665 -0.1106  0.4249
15421TIP3    H167678   4.444   5.706   1.521 -1.1119 -1.1621  1.2698
15421TIP3    H267679   4.551   5.703   1.628  0.6918  3.2274 -0.1898
15422TIP3   OH267680   3.670   4.719  16.953  0.6022  0.6018  0.1289
15422TIP3    H167681   3.683   4.810  16.925 -0.2209  0.8265  0.4282
15422TIP3    H267682   3.742   4.703  17.014  2.9818 -0.2118 -2.6930
15423TIP3   OH267683   4.436   6.128   2.800  0.4757 -0.4531  0.1979
15423TIP3    H167684   4.382   6.082   2.736 -0.5347  0.6412  0.2381
15423TIP3    H267685   4.468   6.059   2.858 -1.4490 -1.0751  0.5938
15424TIP3   OH267686   4.742   6.564  13.937  0.2050 -0.3065  0.2957
15424TIP3    H167687   4.782   6.629  13.879 -0.0609 -0.1720  0.2609
15424TIP3    H267688   4.808   6.495  13.945  0.3932 -0.1465  0.1383
15425TIP3   OH267689   1.408   5.229  14.762 -0.3371 -0.2164  0.3375
15425TIP3    H167690   1.425   5.154  14.705 -2.3163 -0.6270  0.2206
15425TIP3    H267691   1.390   5.301  14.701  1.2938  0.3367  0.4522
15426TIP3   OH267692   1.912   6.206  11.242  0.2224  0.1939  0.4272
15426TIP3    H167693   1.882   6.158  11.320  1.0165  0.4129  0.8813
15426TIP3    H267694   1.913   6.140  11.173  2.3711 -0.7988  1.2916
15427TIP3   OH267695   5.396   4.753   1.013  0.6261  0.3317  0.5849
15427TIP3    H167696   5.306   4.780   0.997  0.6960 -0.2400 -1.0172
15427TIP3    H267697   5.389   4.664   1.048  0.5563 -0.0095 -0.2558
15428TIP3   OH267698   2.352   2.395  12.001 -0.5216  0.0274 -0.6970
15428TIP3    H167699   2.348   2.308  12.041 -3.1525  0.3060 -0.1811
15428TIP3    H267700   2.374   2.454  12.073  0.8352 -0.1230 -0.9622
15429TIP3   OH267701   1.150   5.986  16.296  0.1758 -0.0671 -0.2674
15429TIP3    H167702   1.193   5.997  16.212 -0.1593  1.4277 -0.2759
15429TIP3    H267703   1.198   6.044  16.355 -1.5871  1.4166 -0.2114
15430TIP3   OH267704   4.974   5.824   5.388  0.5983  0.1838 -0.7336
15430TIP3    H167705   4.898   5.768   5.374 -0.2078  0.6456  1.3942
15430TIP3    H267706   4.947   5.884   5.458  2.3898  1.4039 -1.0178
15431TIP3   OH267707   6.189   1.034   4.391 -0.6798  0.6748 -0.1178
15431TIP3    H167708   6.167   1.069   4.304 -0.5143  1.4183  0.1340
15431TIP3    H267709   6.165   0.941   4.386 -2.3689  1.0906 -0.3808
15432TIP3   OH267710   6.256   6.564  15.494  0.3443 -0.2531  0.0339
15432TIP3    H167711   6.176   6.554  15.442 -0.2416  0.4217  0.7835
15432TIP3    H267712   6.324   6.584  15.429 -0.2518 -0.0291 -0.5346
15433TIP3   OH267713   3.582   3.386   5.213 -0.6077  0.9572 -0.2393
15433TIP3    H167714   3.613   3.465   5.257 -0.8128  1.0292 -0.2227
15433TIP3    H267715   3.511   3.416   5.157 -0.8235  0.7526 -0.0774
15434TIP3   OH267716   1.349   1.506  12.775  0.0379  0.4539 -0.0592
15434TIP3    H167717   1.359   1.442  12.704 -0.5410 -0.1870  0.4314
15434TIP3    H267718   1.266   1.483  12.817  0.4028  0.7980  0.8698
15435TIP3   OH267719   4.248   2.261  13.455  0.2419 -0.7193 -0.5892
15435TIP3    H167720   4.178   2.298  13.509 -1.8794 -3.5182 -1.1573
15435TIP3    H267721   4.322   2.252  13.515 -0.9969 -0.7786  1.0148
15436TIP3   OH267722   5.918   3.806  15.634 -0.2767  0.2183 -0.6205
15436TIP3    H167723   5.848   3.871  15.634 -0.8512 -0.3952 -1.0593
15436TIP3    H267724   5.996   3.856  15.609 -0.6043  0.8446 -0.4191
15437TIP3   OH267725   0.669   4.902  15.826  0.0106 -0.2730 -0.6221
15437TIP3    H167726   0.730   4.948  15.883 -1.0660  0.0133  0.3528
15437TIP3    H267727   0.671   4.811  15.855 -0.4481 -0.1504 -0.1939
15438TIP3   OH267728   1.452   2.720   0.424 -0.4021 -1.3690  0.0230
15438TIP3    H167729   1.505   2.641   0.410  1.3970 -0.7151  2.4574
15438TIP3    H267730   1.495   2.787   0.370 -1.0125 -1.6716 -0.8585
15439TIP3   OH267731   3.806   2.211  15.673 -0.4155 -0.3251  0.1465
15439TIP3    H167732   3.838   2.165  15.750 -0.6206 -2.2423 -0.8600
15439TIP3    H267733   3.711   2.204  15.678 -0.4211 -0.7205 -0.4140
15440TIP3   OH267734   1.499   3.462  16.947  0.6576 -0.0175  0.1726
15440TIP3    H167735   1.446   3.383  16.961  0.8305 -0.2714 -0.5985
15440TIP3    H267736   1.580   3.430  16.908  1.0079  0.4716  0.4904
15441TIP3   OH267737   3.371   5.868   5.496 -0.0977  0.3242 -0.2953
15441TIP3    H167738   3.337   5.864   5.407  0.8491  2.3765 -0.7889
15441TIP3    H267739   3.292   5.865   5.551 -0.8118  0.8684 -1.2601
15442TIP3   OH267740   0.681   2.760  12.882  0.2544  0.3414  0.3193
15442TIP3    H167741   0.697   2.804  12.799  1.4188  0.0785  0.3801
15442TIP3    H267742   0.660   2.670  12.858  0.5241  0.2822  0.2969
15443TIP3   OH267743   0.132   1.414   6.658  0.2662 -0.0578  0.2117
15443TIP3    H167744   0.142   1.325   6.626 -2.6038 -0.1270 -0.7587
15443TIP3    H267745   0.083   1.405   6.740  0.0963  0.6445  0.1929
15444TIP3   OH267746   2.542   4.783   5.388  0.2664 -0.3748 -0.7303
15444TIP3    H167747   2.556   4.690   5.403 -0.6002 -0.3941  0.0346
15444TIP3    H267748   2.534   4.821   5.475  1.0919  0.4985 -1.0232
15445TIP3   OH267749   1.065   1.856  14.623  0.1919  0.3386 -0.2452
15445TIP3    H167750   1.029   1.849  14.534 -0.5852  1.5645 -0.0502
15445TIP3    H267751   1.142   1.800  14.622  0.1338  0.2526 -1.6666
15446TIP3   OH267752   3.903   3.614  14.923 -0.3351 -0.6439 -0.1132
15446TIP3    H167753   3.845   3.555  14.874  1.3930 -1.1392 -1.7224
15446TIP3    H267754   3.975   3.631  14.862  0.8698  0.4772  1.5510
15447TIP3   OH267755   4.007   5.228  14.012  0.4028  0.2800  0.3272
15447TIP3    H167756   3.928   5.216  13.960  0.2373 -0.5832  0.7567
15447TIP3    H267757   4.055   5.298  13.968 -0.5853  0.7982  0.0520
15448TIP3   OH267758   4.338   3.863   2.739 -0.1693 -0.3014  0.1506
15448TIP3    H167759   4.244   3.855   2.722 -0.3375  0.2046  0.7783
15448TIP3    H267760   4.373   3.905   2.661 -0.9874  2.3663  1.0766
15449TIP3   OH267761   4.600   0.564  12.837 -0.0689 -0.3144 -0.3557
15449TIP3    H167762   4.505   0.562  12.846  0.0014 -0.2350  0.4954
15449TIP3    H267763   4.619   0.501  12.768 -0.4568 -3.3292  2.0695
15450TIP3   OH267764   3.823   6.498  14.023  0.4790 -0.1148  0.2292
15450TIP3    H167765   3.797   6.571  14.080  1.9387  0.9992 -0.4613
15450TIP3    H267766   3.916   6.485  14.042  0.6628 -0.6084 -0.9543
15451TIP3   OH267767   5.145   5.709  12.235 -0.0262 -0.1431 -0.0045
15451TIP3    H167768   5.150   5.804  12.234  1.7954 -0.2123 -0.4003
15451TIP3    H267769   5.138   5.686  12.328 -1.5115  0.3900  0.0339
15452TIP3   OH267770   1.801   4.275   5.750 -0.0562  0.3828 -0.0257
15452TIP3    H167771   1.754   4.195   5.771  1.3527 -0.3142  0.5817
15452TIP3    H267772   1.773   4.296   5.660 -0.6979 -0.5747 -0.0649
15453TIP3   OH267773   1.640   1.101   5.579  0.1744 -0.2424  0.0459
15453TIP3    H167774   1.626   1.137   5.667 -1.0330  0.2113 -0.3130
15453TIP3    H267775   1.606   1.012   5.584 -2.2556  0.5838 -0.5943
15454TIP3   OH267776   5.992   6.324  11.531 -0.0344  0.0178  0.3240
15454TIP3    H167777   5.907   6.359  11.557 -0.3034 -2.2946  2.9983
15454TIP3    H267778   5.972   6.265  11.458 -0.2376  1.6702 -1.0053
15455TIP3   OH267779   4.799   6.474   2.315  0.6289 -0.0049  0.1130
15455TIP3    H167780   4.881   6.515   2.286  0.1044  1.4223  0.5405
15455TIP3    H267781   4.796   6.391   2.269  3.0343 -0.7892  1.2186
15456TIP3   OH267782   0.643   1.854  11.620 -0.1041 -0.0957  0.2535
15456TIP3    H167783   0.552   1.827  11.608  0.2022 -0.9630 -0.1995
15456TIP3    H267784   0.638   1.948  11.636 -1.0850 -0.1480  0.3276
15457TIP3   OH267785   6.078   2.761  12.381  0.0672 -0.1173  0.5348
15457TIP3    H167786   6.131   2.774  12.459 -2.2534  0.5126  2.1277
15457TIP3    H267787   6.067   2.849  12.344 -0.8642 -0.0360  0.9649
15458TIP3   OH267788   4.448   1.739  17.070 -0.3004  0.5494  0.8386
15458TIP3    H167789   4.422   1.830  17.085  1.5438  1.1056  0.8298
15458TIP3    H267790   4.521   1.744  17.008  0.9843 -0.7838  2.1610
15459TIP3   OH267791   0.386   4.752   5.677  0.1092  0.8573  0.4328
15459TIP3    H167792   0.393   4.760   5.582  0.2693 -1.7345  0.1533
15459TIP3    H267793   0.448   4.816   5.711  1.0628  0.8892 -1.2565
15460TIP3   OH267794   0.994   1.863  10.530  0.2525 -0.3853  1.0853
15460TIP3    H167795   0.918   1.912  10.560  0.1236 -0.4907  0.9302
15460TIP3    H267796   1.068   1.906  10.573  0.3083  0.9378 -0.2411
15461TIP3   OH267797   4.322   5.324   2.177 -0.4242 -0.1269 -0.3806
15461TIP3    H167798   4.317   5.281   2.262 -1.1043  1.4882  0.4461
15461TIP3    H267799   4.374   5.265   2.123 -0.5412 -1.5076  0.9506
15462TIP3   OH267800   5.252   0.493  12.753  0.4893  0.1145 -0.0230
15462TIP3    H167801   5.346   0.505  12.763  0.3161  0.9408  0.6931
15462TIP3    H267802   5.237   0.500  12.658  1.4007 -2.1427 -0.4092
15463TIP3   OH267803   2.675   3.161   1.012 -0.4164  0.5165 -0.3090
15463TIP3    H167804   2.722   3.244   1.019 -1.5392  1.1573 -0.0476
15463TIP3    H267805   2.742   3.098   0.986  0.5621  1.4019 -0.0381
15464TIP3   OH267806   1.355   2.452   2.563 -0.1330 -0.7751  0.1852
15464TIP3    H167807   1.290   2.428   2.629 -0.2655 -2.6035 -0.5357
15464TIP3    H267808   1.350   2.381   2.499  0.8854  0.2945 -1.1355
15465TIP3   OH267809   5.814   6.704   2.131 -0.6315 -0.1652 -0.2860
15465TIP3    H167810   5.909   6.712   2.118 -0.2966  0.1202  1.8809
15465TIP3    H267811   5.777   6.777   2.082  0.5799  1.6551  1.3333
15466TIP3   OH267812   1.161   6.320  15.974 -0.6825 -0.2796 -0.3480
15466TIP3    H167813   1.085   6.332  15.917  0.6209 -0.2916 -2.1662
15466TIP3    H267814   1.206   6.405  15.973 -0.2901 -0.4713  0.1451
15467TIP3   OH267815   3.107   5.744  12.391  0.2409 -0.1537  0.5265
15467TIP3    H167816   3.101   5.706  12.303 -1.1993  0.0785  0.4961
15467TIP3    H267817   3.016   5.764  12.414  0.1255 -3.0131  3.3021
15468TIP3   OH267818   3.250   2.770  13.147 -0.3436  0.4218 -0.2166
15468TIP3    H167819   3.305   2.692  13.140 -1.2805 -0.2695 -0.0370
15468TIP3    H267820   3.182   2.757  13.080 -0.7734  0.8552  0.1347
15469TIP3   OH267821   2.478   2.868  14.187  0.1525  0.2159 -0.3871
15469TIP3    H167822   2.552   2.840  14.241  0.9505  1.0437 -1.0126
15469TIP3    H267823   2.478   2.964  14.195 -1.0618  0.2045 -0.1337
15470TIP3   OH267824   2.474   6.631   2.475  0.3709 -0.2819 -0.2520
15470TIP3    H167825   2.510   6.596   2.556 -0.7194  0.8353  0.7575
15470TIP3    H267826   2.545   6.621   2.411  1.4725 -0.6398  0.9774
15471TIP3   OH267827   3.335   0.364  17.049  0.5934 -0.6830  0.0844
15471TIP3    H167828   3.298   0.276  17.061 -0.8218 -0.2687 -0.9828
15471TIP3    H267829   3.430   0.349  17.040  0.3650 -2.1134 -0.1964
15472TIP3   OH267830   2.613   4.115   0.288 -0.4407 -0.0750  0.5979
15472TIP3    H167831   2.611   4.196   0.339  1.7011 -0.3460  1.1968
15472TIP3    H267832   2.615   4.046   0.354 -1.4924 -0.6156  0.0868
15473TIP3   OH267833   1.787   1.288   5.216 -0.3961 -0.4481  0.4950
15473TIP3    H167834   1.769   1.311   5.307 -1.4056  0.3271  0.1256
15473TIP3    H267835   1.702   1.295   5.173  0.3030  0.5889 -0.7946
15474TIP3   OH267836   0.067   6.140   4.552  0.2724  0.6163  0.5218
15474TIP3    H167837   0.126   6.067   4.532  0.8053  0.8223  1.3207
15474TIP3    H267838   0.015   6.109   4.626 -1.4336  0.0026 -0.8663
15475TIP3   OH267839   5.005   2.796   5.654 -0.1747 -0.2894  0.3122
15475TIP3    H167840   5.084   2.843   5.629 -0.3444  0.3763  0.9991
15475TIP3    H267841   5.025   2.758   5.739  0.0869 -1.7969 -0.3963
15476TIP3   OH267842   4.070   6.276   4.103  0.7667  0.7680  0.1175
15476TIP3    H167843   4.018   6.195   4.102  3.4082 -1.0637 -0.3374
15476TIP3    H267844   4.073   6.301   4.195  0.4575 -0.0715  0.3689
15477TIP3   OH267845   3.151   5.813   3.426 -0.3936  0.5864  0.1588
15477TIP3    H167846   3.187   5.862   3.500 -2.0459  0.1509  1.3061
15477TIP3    H267847   3.139   5.724   3.459  0.6976 -0.1479 -1.2796
15478TIP3   OH267848   3.825   0.630  15.804  0.2639 -0.7347 -0.1131
15478TIP3    H167849   3.747   0.607  15.854 -0.1060 -0.1062 -0.3826
15478TIP3    H267850   3.797   0.704  15.749  1.3802  0.3595  0.7136
15479TIP3   OH267851   3.759   1.017  13.704  0.2206  0.0592  0.0266
15479TIP3    H167852   3.759   0.925  13.677  1.8942  0.1466 -0.3907
15479TIP3    H267853   3.699   1.060  13.644  1.5144 -0.3120 -1.6116
15480TIP3   OH267854   0.916   5.271   5.629 -0.0081  1.0675  0.7772
15480TIP3    H167855   0.994   5.226   5.663 -0.3907 -1.1272 -1.0605
15480TIP3    H267856   0.843   5.228   5.673 -0.2895  1.4591  0.6904
15481TIP3   OH267857   1.300   3.420  13.262  0.1940  0.1650  0.2685
15481TIP3    H167858   1.367   3.445  13.326 -0.9144  2.9616  0.4497
15481TIP3    H267859   1.278   3.501  13.217  0.1696 -1.5061 -3.0220
15482TIP3   OH267860   2.172   4.606   3.438  0.4304  0.1115 -0.1714
15482TIP3    H167861   2.254   4.560   3.452  0.0211 -0.8392 -0.7525
15482TIP3    H267862   2.173   4.628   3.345 -0.0953 -0.1757 -0.2494
15483TIP3   OH267863   2.925   4.841   4.631 -0.0246 -0.7325 -0.3410
15483TIP3    H167864   2.985   4.830   4.706  0.9589  2.8012 -0.4609
15483TIP3    H267865   2.979   4.821   4.555  0.4623  0.5079 -0.3383
15484TIP3   OH267866   4.801   4.050  10.466 -0.1004  0.0385 -0.2111
15484TIP3    H167867   4.893   4.076  10.455  0.6815 -1.8548  1.2480
15484TIP3    H267868   4.805   3.957  10.486 -2.2051  0.2511  1.5874
15485TIP3   OH267869   5.550   1.233   4.068 -0.0569  0.2109 -0.4310
15485TIP3    H167870   5.632   1.276   4.091  0.7775 -0.7698 -1.4004
15485TIP3    H267871   5.506   1.218   4.152 -0.3542  2.7877 -0.0512
15486TIP3   OH267872   5.390   2.569   4.558 -0.0439  0.1320 -0.0582
15486TIP3    H167873   5.402   2.621   4.479  0.2383 -0.2426 -0.2671
15486TIP3    H267874   5.398   2.478   4.528 -2.6901 -0.1671 -0.0927
15487TIP3   OH267875   3.232   2.173  11.457  0.3486 -0.2302  1.0148
15487TIP3    H167876   3.244   2.264  11.431 -0.9618 -0.2336  0.3059
15487TIP3    H267877   3.142   2.152  11.431  0.8238 -1.9176  0.6156
15488TIP3   OH267878   3.517   0.391  15.803 -0.0175  0.4141  0.4903
15488TIP3    H167879   3.443   0.451  15.807 -0.6590 -0.1501 -1.4569
15488TIP3    H267880   3.564   0.405  15.885 -3.3008 -0.5622  2.7511
15489TIP3   OH267881   2.117   1.905  16.386  0.5015  0.1249 -0.2468
15489TIP3    H167882   2.159   1.991  16.387  2.1054 -0.5726  2.0901
15489TIP3    H267883   2.118   1.877  16.477 -0.6628 -2.0728 -0.8351
15490TIP3   OH267884   2.705   1.969  16.948  0.0921 -0.2404  0.5915
15490TIP3    H167885   2.657   2.049  16.928 -1.0846 -0.8488  0.8808
15490TIP3    H267886   2.766   1.993  17.018  0.7094  0.7046 -0.2442
15491TIP3   OH267887   3.730   1.747   4.911  0.1163  0.3501  0.2002
15491TIP3    H167888   3.724   1.652   4.900  0.5810  0.0278  2.2743
15491TIP3    H267889   3.752   1.759   5.004  0.3525  2.4787 -0.0819
15492TIP3   OH267890   1.277   4.074   0.482  0.3648 -0.4936 -0.0713
15492TIP3    H167891   1.194   4.038   0.450 -1.2573  1.4228  1.6760
15492TIP3    H267892   1.316   4.116   0.405 -0.3614 -1.2556 -0.8788
15493TIP3   OH267893   1.772   2.986  16.905 -0.5568 -0.4400  0.3117
15493TIP3    H167894   1.822   2.908  16.931 -0.7130 -0.7525 -0.3083
15493TIP3    H267895   1.835   3.058  16.912 -0.0325 -0.8213 -0.3877
15494TIP3   OH267896   6.030   1.063   1.837 -0.0604  0.3042 -0.6306
15494TIP3    H167897   6.054   0.972   1.856 -1.5492 -0.0806 -0.4515
15494TIP3    H267898   5.998   1.061   1.747  0.6983  0.8301 -0.9201
15495TIP3   OH267899   6.648   0.004  13.028 -0.8050 -0.0713  0.4993
15495TIP3    H167900   6.650   0.100  13.021  0.4148 -0.0438  1.0706
15495TIP3    H267901   6.639  -0.013  13.122 -1.5198 -0.5285  0.3568
15496TIP3   OH267902   5.054   1.290  11.849  0.1989  0.0132  0.0069
15496TIP3    H167903   5.026   1.368  11.801 -0.7816 -0.5608 -0.3855
15496TIP3    H267904   4.991   1.223  11.824  0.9218 -0.8630  0.4773
15497TIP3   OH267905   1.134   5.144   1.066 -0.1239  0.2973  0.1957
15497TIP3    H167906   1.094   5.207   1.125  0.4248  1.3022 -0.4839
15497TIP3    H267907   1.227   5.164   1.069  0.1712 -1.0231  0.5883
15498TIP3   OH267908   5.760   5.350  14.439  0.3180  0.5574 -0.1536
15498TIP3    H167909   5.838   5.381  14.395  1.0529 -1.0978 -0.0735
15498TIP3    H267910   5.759   5.398  14.522  2.1802 -0.5659  0.5752
15499TIP3   OH267911   4.012   6.407   2.813  0.2816  0.1155  0.0870
15499TIP3    H167912   4.021   6.437   2.723  0.2468  0.8866  0.3281
15499TIP3    H267913   4.102   6.391   2.842  0.2981 -0.0631 -0.0668
15500TIP3   OH267914   6.047   6.312  15.818  0.2389  0.2981  0.7508
15500TIP3    H167915   5.957   6.307  15.850  0.6264 -0.8297  1.7426
15500TIP3    H267916   6.065   6.406  15.810 -1.0229  0.5335  0.5237
15501TIP3   OH267917   3.603   3.664   0.937  0.0454  0.4901 -0.7162
15501TIP3    H167918   3.592   3.581   0.890 -0.2848  0.2028 -0.1451
15501TIP3    H267919   3.697   3.678   0.939  0.0887  0.2494 -1.0308
15502TIP3   OH267920   5.178   5.493  14.727 -0.5392 -0.5035  0.4165
15502TIP3    H167921   5.182   5.547  14.805  0.3452  0.1430 -0.0598
15502TIP3    H267922   5.230   5.416  14.748 -0.3917 -0.3799  0.5019
15503TIP3   OH267923   6.319   4.348   3.649  0.2318  0.3851 -0.5467
15503TIP3    H167924   6.254   4.408   3.613  0.4282  0.8050 -0.2125
15503TIP3    H267925   6.278   4.312   3.727 -0.2206 -0.5772 -1.2016
15504TIP3   OH267926   2.504   0.021  11.986  0.1684  0.2520  0.3233
15504TIP3    H167927   2.433   0.068  11.943 -0.6638  0.5061  1.9183
15504TIP3    H267928   2.583   0.052  11.942 -0.6657 -0.0013 -1.4469
15505TIP3   OH267929   3.461   3.215   0.747  0.5199 -0.1299 -0.5374
15505TIP3    H167930   3.491   3.177   0.665 -0.5513 -0.0364 -0.9823
15505TIP3    H267931   3.391   3.276   0.722 -2.1438 -2.4514  0.6327
15506TIP3   OH267932   5.452   3.076  11.203  0.2261  0.2198  0.2629
15506TIP3    H167933   5.502   2.994  11.209 -0.5929 -0.5153 -1.9184
15506TIP3    H267934   5.509   3.135  11.155 -0.2988 -0.0512 -0.7128
15507TIP3   OH267935   4.126   1.859   2.948  0.1122 -0.0333 -0.5010
15507TIP3    H167936   4.124   1.848   3.043 -1.4381 -0.9463 -0.6031
15507TIP3    H267937   4.134   1.954   2.935  3.1318 -0.0365  0.4714
15508TIP3   OH267938   2.216   0.610  16.943 -0.3423 -0.3948 -0.6516
15508TIP3    H167939   2.311   0.603  16.937  0.1648  1.7541  2.3325
15508TIP3    H267940   2.194   0.686  16.889 -0.2456 -0.3975 -0.6947
15509TIP3   OH267941   1.831   1.163  12.067 -0.4164 -0.4115  0.1703
15509TIP3    H167942   1.858   1.255  12.075 -1.1763 -0.2346  0.7772
15509TIP3    H267943   1.912   1.117  12.042  0.9061 -0.1149  3.3496
15510TIP3   OH267944   4.809   3.705  12.129 -0.9559 -0.1299 -0.4035
15510TIP3    H167945   4.820   3.662  12.214 -0.3573 -2.2562 -1.4898
15510TIP3    H267946   4.898   3.726  12.100 -1.2481  3.4796  0.7640
15511TIP3   OH267947   2.689   1.385   0.323 -0.1115  0.0180  0.5307
15511TIP3    H167948   2.703   1.478   0.338 -0.2320  0.0279  0.5853
15511TIP3    H267949   2.599   1.379   0.291  0.0916 -0.0220 -0.0451
15512TIP3   OH267950   2.992   3.654  12.203  0.1826  0.3125 -0.0020
15512TIP3    H167951   2.997   3.750  12.197  0.8556  0.4596  2.1151
15512TIP3    H267952   2.970   3.637  12.295  0.5582 -1.5922 -0.2266
15513TIP3   OH267953   3.171   5.211  16.308 -0.6724 -0.0151  0.5312
15513TIP3    H167954   3.111   5.165  16.250 -1.3650  1.9384 -0.3732
15513TIP3    H267955   3.258   5.182  16.280 -0.9875  0.8273 -1.5065
15514TIP3   OH267956   5.285   3.999  13.392 -0.1474  0.2864 -0.4909
15514TIP3    H167957   5.242   3.919  13.423  1.9896 -0.8034 -0.0796
15514TIP3    H267958   5.372   3.970  13.365 -0.1641  2.0804 -2.8256
15515TIP3   OH267959   4.569   4.259  12.552 -0.1228  0.4496 -0.1189
15515TIP3    H167960   4.620   4.290  12.477  0.0600 -1.1592 -0.6954
15515TIP3    H267961   4.579   4.164  12.550 -0.8539  0.3133  1.4314
15516TIP3   OH267962   1.575   4.053  15.478  0.6467  0.7405  0.2790
15516TIP3    H167963   1.583   4.039  15.384 -2.0932  0.4220  0.0346
15516TIP3    H267964   1.485   4.082  15.491  0.1904 -1.4371  3.0338
15517TIP3   OH267965   6.297   3.777   1.945 -0.1693  0.4057  0.0810
15517TIP3    H167966   6.307   3.786   2.040  0.4135  0.0226  0.0611
15517TIP3    H267967   6.219   3.722   1.934  1.3525 -1.9569  0.4363
15518TIP3   OH267968   0.118   0.912   2.769 -0.1214 -0.2868  0.2574
15518TIP3    H167969   0.108   1.004   2.744  1.4495  0.0854  0.8731
15518TIP3    H267970   0.081   0.863   2.695  0.1090  0.8279 -0.6326
15519TIP3   OH267971   5.543   1.282   2.572  0.2782 -0.1329  0.4043
15519TIP3    H167972   5.595   1.266   2.651 -1.8224 -0.0366  1.8739
15519TIP3    H267973   5.607   1.311   2.508  2.1509 -0.7555  1.8797
15520TIP3   OH267974   4.305   4.917   4.692 -0.5017 -0.0599  0.8437
15520TIP3    H167975   4.393   4.911   4.656 -0.8437 -0.4339  0.0471
15520TIP3    H267976   4.251   4.863   4.634 -1.0232 -0.9214  2.0829
15521TIP3   OH267977   0.999   5.258  15.780 -0.6155  0.2833  0.1843
15521TIP3    H167978   0.945   5.240  15.704 -1.9253  1.7260  0.7156
15521TIP3    H267979   0.945   5.234  15.855  0.2371 -0.0980  0.6964
15522TIP3   OH267980   5.997   6.316  16.775  0.2426 -0.2520  0.4799
15522TIP3    H167981   6.087   6.343  16.762  0.5034 -0.7927  1.0887
15522TIP3    H267982   5.993   6.227  16.742 -1.3858  1.3321 -4.5289
15523TIP3   OH267983   4.947   0.875  13.173  0.3507  0.3202 -0.0085
15523TIP3    H167984   4.941   0.784  13.143  0.6094  0.2311  0.2050
15523TIP3    H267985   4.938   0.927  13.093  2.8434  0.0585 -0.5525
15524TIP3   OH267986   6.487   0.023   4.738  0.1114 -0.1955 -0.0762
15524TIP3    H167987   6.404  -0.007   4.777 -0.3176  0.7604 -0.2214
15524TIP3    H267988   6.553   0.003   4.804 -0.3818 -0.0438  0.4777
15525TIP3   OH267989   4.380   6.355   3.372 -0.0440 -0.0992  0.2228
15525TIP3    H167990   4.378   6.449   3.356 -2.0396  0.0780  1.1966
15525TIP3    H267991   4.296   6.336   3.414 -0.0320 -2.4467 -0.6492
15526TIP3   OH267992   2.127   5.673  11.881  0.0775  0.1302 -0.7648
15526TIP3    H167993   2.081   5.720  11.950  0.4943  0.0473 -0.4222
15526TIP3    H267994   2.170   5.741  11.830  3.0942  0.0677  1.4464
15527TIP3   OH267995   3.231   2.694   2.219  0.0055 -0.0590  0.2793
15527TIP3    H167996   3.145   2.701   2.260  0.0213 -1.3441  0.5718
15527TIP3    H267997   3.293   2.722   2.287 -0.1032 -0.3183  0.4861
15528TIP3   OH267998   2.646   1.868   2.105  0.0640  0.6545 -0.3475
15528TIP3    H167999   2.666   1.852   2.013  1.1067 -0.6371  0.0799
15528TIP3    H268000   2.568   1.816   2.122 -0.3382  1.1741 -0.5806
15529TIP3   OH268001   0.744   4.433  13.158 -0.5557 -0.2523 -0.2857
15529TIP3    H168002   0.677   4.497  13.181 -2.1744 -1.5231 -1.3163
15529TIP3    H268003   0.826   4.483  13.161 -1.5035  1.3320  1.0326
15530TIP3   OH268004   3.761   3.366  17.177 -0.2075 -0.7067  0.1536
15530TIP3    H168005   3.683   3.357  17.123  0.3119 -0.6487 -0.6214
15530TIP3    H268006   3.791   3.455  17.161 -0.0916 -0.6616  0.6024
15531TIP3   OH268007   6.218   0.214  13.755 -0.4628 -0.3685  0.4418
15531TIP3    H168008   6.238   0.237  13.664 -0.2722  1.3192  0.8783
15531TIP3    H268009   6.217   0.298  13.801 -4.6700 -0.6426  1.2212
15532TIP3   OH268010   6.758   5.600   5.078 -0.3661 -0.1815  0.5177
15532TIP3    H168011   6.779   5.574   4.989  0.8565  2.5062 -0.0790
15532TIP3    H268012   6.836   5.577   5.129  0.2493  1.1746  0.2178
15533TIP3   OH268013   5.677   3.653  11.062 -0.0430  0.2906  0.0735
15533TIP3    H168014   5.721   3.728  11.103  0.7721 -0.8120  1.2824
15533TIP3    H268015   5.725   3.640  10.980  0.1203  0.7937  0.0850
15534TIP3   OH268016   6.386   3.802   0.161  0.0840  0.0671 -0.2431
15534TIP3    H168017   6.395   3.708   0.143  0.4926  0.2304 -0.9364
15534TIP3    H268018   6.314   3.831   0.105  0.2589  0.2554 -0.3719
15535TIP3   OH268019   4.927   1.081  15.123 -0.2184 -0.4419  0.1995
15535TIP3    H168020   4.953   1.093  15.214  0.2542 -2.3985  0.3676
15535TIP3    H268021   4.831   1.075  15.126 -0.1697 -1.1615  0.6779
15536TIP3   OH268022   4.740   5.207   0.964 -0.2503 -0.2795  0.2552
15536TIP3    H168023   4.682   5.136   0.938  0.1589 -0.3036 -0.6306
15536TIP3    H268024   4.738   5.206   1.059 -2.5984  0.4653  0.2742
15537TIP3   OH268025   3.256   0.480   3.717  0.5942 -0.2351 -0.5780
15537TIP3    H168026   3.185   0.429   3.679 -0.4170  1.0725 -0.5186
15537TIP3    H268027   3.325   0.479   3.651  0.1852 -0.8044 -1.0031
15538TIP3   OH268028   6.408   3.237   4.791 -0.1616  0.8112  0.1971
15538TIP3    H168029   6.454   3.268   4.713  1.1262 -0.0341  0.5830
15538TIP3    H268030   6.409   3.142   4.783  0.6865  0.6732  1.5972
15539TIP3   OH268031   4.302   6.351   2.891 -0.2684 -0.0257 -0.0227
15539TIP3    H168032   4.367   6.287   2.860 -1.9801 -2.4381  1.0061
15539TIP3    H268033   4.349   6.403   2.956  0.9472 -0.9155 -0.1375
15540TIP3   OH268034   2.001   2.364   4.571 -0.2009  0.1028 -0.2986
15540TIP3    H168035   2.043   2.279   4.581 -0.2062  0.2811  1.3622
15540TIP3    H268036   1.935   2.367   4.640  0.3684  1.7837  0.2247
15541TIP3   OH268037   6.413   2.383  15.823  0.3559  0.0346  0.2759
15541TIP3    H168038   6.375   2.468  15.801  1.2167  0.6674  1.1829
15541TIP3    H268039   6.340   2.322  15.815 -0.3173  0.8818 -0.2209
15542TIP3   OH268040   1.804   1.980  15.536 -0.7085 -0.5015  0.2007
15542TIP3    H168041   1.780   1.967  15.444  1.3913  0.9706 -0.6342
15542TIP3    H268042   1.872   1.915  15.553 -1.0122 -0.6987  0.7028
15543TIP3   OH268043   0.189   1.455  17.188 -0.1888 -0.4070  0.3891
15543TIP3    H168044   0.192   1.511  17.111  1.4314  1.5427  1.7655
15543TIP3    H268045   0.251   1.384  17.168 -0.5295 -0.4686 -0.4739
15544TIP3   OH268046   1.219   1.756  12.144  0.8582 -0.1673  0.0893
15544TIP3    H168047   1.271   1.764  12.064  0.9844  1.2797  0.2955
15544TIP3    H268048   1.146   1.699  12.119  0.1296  1.3519 -1.4852
15545TIP3   OH268049   6.692   5.260  14.277  0.4688 -0.3473 -0.6141
15545TIP3    H168050   6.722   5.332  14.332  1.4632 -0.6807 -0.7029
15545TIP3    H268051   6.598   5.254  14.295  0.8488 -0.8426  1.5284
15546TIP3   OH268052   1.768   5.742   4.504  0.3700  0.1414 -0.6464
15546TIP3    H168053   1.778   5.699   4.419 -1.3767 -1.0035 -0.3234
15546TIP3    H268054   1.768   5.836   4.484  0.1240 -0.1160 -1.8995
15547TIP3   OH268055   0.173   4.147  15.007 -0.2385  0.6547  0.1943
15547TIP3    H168056   0.185   4.148  15.102  0.9572  1.1848  0.0476
15547TIP3    H268057   0.122   4.068  14.990 -0.3651  0.4964  1.2634
15548TIP3   OH268058   3.421   0.921   5.123 -0.3281  0.4352  0.3723
15548TIP3    H168059   3.482   0.865   5.077  0.3378  1.6005 -0.2012
15548TIP3    H268060   3.470   0.954   5.198 -0.3570  1.0771  0.1177
15549TIP3   OH268061   6.574   0.082  14.987  0.2470 -0.2122 -0.0050
15549TIP3    H168062   6.488   0.057  14.954 -0.6336 -0.0065  1.9932
15549TIP3    H268063   6.615  -0.000  15.013  0.1249 -0.1991  0.2325
15550TIP3   OH268064   0.994   4.106  12.124  0.3224 -0.1513 -0.2271
15550TIP3    H168065   1.044   4.026  12.142  1.5721  0.6185 -0.1392
15550TIP3    H268066   0.972   4.141  12.210  0.2731 -0.0951 -0.2627
15551TIP3   OH268067   5.477   6.022  16.834  0.2477  0.1235  0.3780
15551TIP3    H168068   5.469   5.948  16.774 -0.3804  0.3850  0.1335
15551TIP3    H268069   5.571   6.041  16.836  0.1383  1.1083 -1.7416
15552TIP3   OH268070   4.148   3.379  11.671 -0.0291  0.8996  0.2059
15552TIP3    H168071   4.058   3.362  11.643 -0.3581 -0.1340  1.7832
15552TIP3    H268072   4.142   3.462  11.719  0.1254  1.5222 -0.8292
15553TIP3   OH268073   2.239   3.697   5.224 -0.4313  0.7362  0.1858
15553TIP3    H168074   2.154   3.657   5.239 -0.3044  0.5680  0.4788
15553TIP3    H268075   2.276   3.707   5.312  0.0041  0.4678  0.0376
15554TIP3   OH268076   0.147   1.350   3.284  0.0003 -0.1866  0.3733
15554TIP3    H168077   0.075   1.394   3.329 -0.9482  0.1635 -1.3790
15554TIP3    H268078   0.132   1.257   3.298 -1.3861 -0.1706 -0.7449
15555TIP3   OH268079   2.891   0.646   0.393 -0.6003  0.2232 -0.1748
15555TIP3    H168080   2.966   0.687   0.435 -0.0007 -0.3739 -0.6378
15555TIP3    H268081   2.843   0.604   0.465  1.4880 -2.4973 -0.2212
15556TIP3   OH268082   4.999   5.718  11.334 -0.5135  0.3495  0.3044
15556TIP3    H168083   4.936   5.667  11.285 -0.6987  0.8443  0.0204
15556TIP3    H268084   5.083   5.673  11.321 -1.2396 -2.2058  3.2855
15557TIP3   OH268085   5.038   6.473   4.701  0.0691  0.0863 -0.0471
15557TIP3    H168086   5.065   6.525   4.625  1.4277 -1.1635 -0.4692
15557TIP3    H268087   5.111   6.480   4.762 -0.1939 -0.4629  0.3332
15558TIP3   OH268088   0.464   1.793   5.531 -0.2689  0.8305 -0.3652
15558TIP3    H168089   0.413   1.757   5.458 -0.5334 -0.6091  0.4887
15558TIP3    H268090   0.452   1.730   5.601  2.1121  0.8159  0.1015
15559TIP3   OH268091   1.126   4.751   4.398 -0.8379 -0.0647  0.4014
15559TIP3    H168092   1.160   4.676   4.349 -0.8402  1.6601 -2.4987
15559TIP3    H268093   1.120   4.721   4.488  0.9574 -2.9133 -0.3163
15560TIP3   OH268094   4.378   0.431  13.932 -0.8541 -0.2204  0.1618
15560TIP3    H168095   4.395   0.337  13.936  0.8247  0.0839  1.6097
15560TIP3    H268096   4.315   0.441  13.861 -0.6962 -2.3748 -0.3600
15561TIP3   OH268097   0.588   2.353   3.000  0.3519  0.5524  0.3203
15561TIP3    H168098   0.678   2.331   2.975  0.6613  1.1234  0.8812
15561TIP3    H268099   0.543   2.367   2.917 -0.1707 -3.1132 -0.1718
15562TIP3   OH268100   0.916   3.351   6.410  0.5035  0.1945 -0.3662
15562TIP3    H168101   0.916   3.437   6.452  2.0492  0.5423 -0.9971
15562TIP3    H268102   0.831   3.346   6.366  1.6864  3.0819 -3.4569
15563TIP3   OH268103   0.982   4.427  14.520 -0.1214  0.0005 -0.1411
15563TIP3    H168104   0.999   4.433  14.426 -0.8298 -0.2431 -0.2925
15563TIP3    H268105   0.887   4.414  14.527 -0.0629 -0.1098  0.6045
15564TIP3   OH268106   3.394   3.951  14.843  0.2979  0.1699  0.0665
15564TIP3    H168107   3.422   3.887  14.778 -0.5655  1.0352 -1.1925
15564TIP3    H268108   3.466   4.014  14.848  0.8123 -0.4607  0.7334
15565TIP3   OH268109   0.144   0.719   5.306 -0.0777  0.2181 -0.8711
15565TIP3    H168110   0.179   0.796   5.350 -0.0440  1.3515 -2.7928
15565TIP3    H268111   0.050   0.738   5.298 -0.6290 -1.2635  1.1617
15566TIP3   OH268112   0.262   5.014   5.193  0.5198  0.4250  0.9085
15566TIP3    H168113   0.276   5.101   5.156 -0.2589  0.8481  1.5715
15566TIP3    H268114   0.329   4.960   5.153  1.3263  1.4348  0.8447
15567TIP3   OH268115   1.728   1.924  12.506  0.7802 -0.3934  0.5483
15567TIP3    H168116   1.720   1.831  12.524  0.5537 -0.3239  0.8074
15567TIP3    H268117   1.781   1.958  12.578  0.1395 -0.1714  0.9232
15568TIP3   OH268118   4.764   4.884   1.251 -0.0463 -0.3052 -0.4295
15568TIP3    H168119   4.772   4.855   1.160 -0.7628 -0.7830 -0.3451
15568TIP3    H268120   4.851   4.867   1.288  0.0346 -0.8082 -0.8295
15569TIP3   OH268121   2.941   2.495   0.174  0.1386  0.8024 -0.3114
15569TIP3    H168122   2.881   2.565   0.199  0.8470  1.1439  0.4808
15569TIP3    H268123   3.020   2.512   0.225  1.1042  0.6567 -1.6867
15570TIP3   OH268124   1.600   2.026  12.078 -0.2819  0.1655 -0.3361
15570TIP3    H168125   1.632   2.092  12.016 -0.0933 -0.9722 -1.5016
15570TIP3    H268126   1.650   1.947  12.057 -1.4062 -0.7049  0.1442
15571TIP3   OH268127   6.638   3.311  12.428 -0.1137  0.4224  0.5457
15571TIP3    H168128   6.646   3.217  12.412  1.1023  0.8148 -1.4665
15571TIP3    H268129   6.715   3.334  12.480 -0.3666  0.3146  0.9664
15572TIP3   OH268130   0.562   0.634   0.374  0.5119 -0.5443  0.4121
15572TIP3    H168131   0.477   0.633   0.331 -0.0709  0.4682  1.5184
15572TIP3    H268132   0.616   0.575   0.320 -0.0342  0.9967 -2.0150
15573TIP3   OH268133   3.135   1.269  16.884  0.2559 -0.6499 -0.2737
15573TIP3    H168134   3.059   1.228  16.842  0.8813 -2.3971  0.2541
15573TIP3    H268135   3.191   1.196  16.911  2.0719  0.5846 -0.5054
15574TIP3   OH268136   0.698   1.253  14.890 -0.4366  0.7347 -0.1118
15574TIP3    H168137   0.651   1.278  14.810 -0.6717  0.6572  0.0022
15574TIP3    H268138   0.659   1.307  14.958 -1.6516 -0.6367  0.3316
15575TIP3   OH268139   0.172   6.712  13.736 -0.2598  0.5102  0.6300
15575TIP3    H168140   0.194   6.805  13.734 -1.4352  0.8216  0.9799
15575TIP3    H268141   0.232   6.675  13.800  1.0663  0.7711 -0.4300
15576TIP3   OH268142   0.558   5.540   5.516 -0.1789  0.1513  0.5617
15576TIP3    H168143   0.486   5.604   5.516  0.3410  0.7907 -1.1275
15576TIP3    H268144   0.551   5.497   5.431  1.0318 -0.2701  0.6627
15577TIP3   OH268145   1.501   3.360   5.936  0.3856  0.1651  0.1313
15577TIP3    H168146   1.515   3.325   6.025 -0.8923  0.4853  0.4728
15577TIP3    H268147   1.488   3.282   5.882  2.5549 -0.1262 -0.0833
15578TIP3   OH268148   2.311   2.562  13.428  0.1419  0.5222 -0.1053
15578TIP3    H168149   2.368   2.563  13.351  0.1072 -1.1487 -0.1860
15578TIP3    H268150   2.231   2.518  13.399  0.2784 -0.4772  0.9594
15579TIP3   OH268151   6.419   3.647  14.299 -0.2254  0.1067 -0.1876
15579TIP3    H168152   6.471   3.634  14.220  1.0804  0.1392  0.6313
15579TIP3    H268153   6.409   3.560  14.337 -0.1286  0.1984  0.0516
15580TIP3   OH268154   1.067   1.501  12.070 -0.2684  0.1518  0.2485
15580TIP3    H168155   1.142   1.460  12.027 -0.7017  0.8711 -1.2790
15580TIP3    H268156   1.068   1.466  12.159  1.6604 -0.1212  0.1678
15581TIP3   OH268157   1.907   5.724  17.175 -0.5095  0.8970  0.5070
15581TIP3    H168158   1.869   5.737  17.089 -0.1918  0.7981  0.3505
15581TIP3    H268159   2.000   5.708  17.158 -0.7419 -0.8246  0.7410
15582TIP3   OH268160   2.422   3.361  15.284  0.6267 -0.3483  0.7219
15582TIP3    H168161   2.425   3.447  15.244  1.6490  0.1615  1.8433
15582TIP3    H268162   2.416   3.300  15.210 -0.9414  0.6792 -0.0655
15583TIP3   OH268163   2.683   4.582   2.984 -0.1730  0.6264  0.0582
15583TIP3    H168164   2.589   4.567   2.973 -0.7173  2.2496  1.9903
15583TIP3    H268165   2.691   4.674   3.008  1.8035  0.2411  1.1134
15584TIP3   OH268166   0.722   3.853  13.054  1.0861  0.0998  0.0247
15584TIP3    H168167   0.689   3.818  13.138  2.0011  0.8602  0.7168
15584TIP3    H268168   0.668   3.810  12.988 -0.3797  0.2847  1.0531
15585TIP3   OH268169   4.134   3.625  11.780  0.1480 -0.4782  0.2479
15585TIP3    H168170   4.178   3.670  11.852  0.6418 -1.0129  0.2816
15585TIP3    H268171   4.050   3.671  11.772 -0.0117 -0.5511  1.3116
15586TIP3   OH268172   4.661   3.719  11.591  0.2678 -0.4182  0.6708
15586TIP3    H168173   4.635   3.682  11.506  1.6643 -0.0433  0.0529
15586TIP3    H268174   4.585   3.771  11.618 -0.0732 -0.2451 -0.5347
15587TIP3   OH268175   2.761   6.748   4.321  0.0099  0.1593 -0.1058
15587TIP3    H168176   2.845   6.707   4.343 -0.0011 -0.1658 -0.6508
15587TIP3    H268177   2.695   6.687   4.355 -0.1498 -2.8391 -4.8379
15588TIP3   OH268178   4.849   0.146   0.665 -0.2657  0.0949 -0.2507
15588TIP3    H168179   4.795   0.207   0.715  0.1456  1.9818 -1.9882
15588TIP3    H268180   4.914   0.200   0.621  0.9260 -1.7501 -0.9031
15589TIP3   OH268181   5.966   5.321   2.297 -0.6884  0.1456  0.2868
15589TIP3    H168182   5.975   5.245   2.354 -2.0373  1.7202  2.7395
15589TIP3    H268183   6.056   5.352   2.285 -0.2690 -0.9423  0.4981
15590TIP3   OH268184   1.817   5.215   5.309  0.1407  0.2314 -0.0749
15590TIP3    H168185   1.774   5.142   5.264  0.5614  0.0321 -0.1667
15590TIP3    H268186   1.792   5.293   5.259  0.1498  0.0782 -0.3203
15591TIP3   OH268187   5.651   4.405  12.835 -0.6096  0.0066 -0.5620
15591TIP3    H168188   5.580   4.456  12.795 -1.3433  0.1647  0.8729
15591TIP3    H268189   5.614   4.317  12.845 -1.0275  0.3468  1.1709
15592TIP3   OH268190   2.901   0.350   5.491  0.5754 -0.0886  0.2712
15592TIP3    H168191   2.843   0.425   5.480  0.4918  0.0446  1.4394
15592TIP3    H268192   2.978   0.386   5.535 -0.3894 -1.0132  2.9180
15593TIP3   OH268193   4.837   5.105   5.193 -0.2815 -0.0752  0.0059
15593TIP3    H168194   4.835   5.034   5.258 -0.8392 -0.1174 -0.0531
15593TIP3    H268195   4.903   5.166   5.227  0.1181 -0.5573  0.1180
15594TIP3   OH268196   3.771   2.003  14.003  0.0977 -0.4963  0.1726
15594TIP3    H168197   3.813   1.916  14.006 -0.0314 -0.5967 -0.7092
15594TIP3    H268198   3.678   1.984  14.012  0.2117 -0.2670  2.2039
15595TIP3   OH268199   2.673   1.138  16.392  0.4272  0.2936  0.1215
15595TIP3    H168200   2.695   1.107  16.304  0.7963  0.5273  0.1294
15595TIP3    H268201   2.661   1.232  16.383  1.4552  0.4767  0.5031
15596TIP3   OH268202   5.922   5.623  16.530 -0.1016 -0.0585  0.1750
15596TIP3    H168203   5.943   5.594  16.619  1.7616 -0.7199 -0.4368
15596TIP3    H268204   5.893   5.544  16.485 -2.2842  0.5057  0.4835
15597TIP3   OH268205   4.185   0.835  11.219 -0.1306  0.0114 -0.1216
15597TIP3    H168206   4.228   0.919  11.203 -1.7277  0.7795 -0.6108
15597TIP3    H268207   4.094   0.849  11.192 -0.4590 -1.8542 -0.1311
15598TIP3   OH268208   2.446   6.263   5.956 -0.0048 -1.1556 -0.2006
15598TIP3    H168209   2.473   6.224   6.039  0.1439 -0.9455 -0.1495
15598TIP3    H268210   2.351   6.266   5.960  0.0284 -0.4996  0.2603
15599TIP3   OH268211   1.702   2.532  15.181 -0.7436 -0.6812  0.4839
15599TIP3    H168212   1.761   2.526  15.256 -0.8901 -0.7429  0.5946
15599TIP3    H268213   1.717   2.452  15.131 -0.2510 -0.3851  0.1560
15600TIP3   OH268214   0.575   4.753  11.752  0.3677  0.5318 -0.2971
15600TIP3    H168215   0.498   4.748  11.808 -1.1195 -0.3127 -2.3089
15600TIP3    H268216   0.544   4.796  11.672  2.5702  2.3052 -0.2724
15601TIP3   OH268217   3.562   3.182  15.188  0.3139 -0.2280 -0.2893
15601TIP3    H168218   3.581   3.099  15.232 -0.0982 -0.9794 -1.4700
15601TIP3    H268219   3.488   3.219  15.237  0.3473 -0.6780  0.1085
15602TIP3   OH268220   6.569   1.003  11.488 -0.1853 -0.3681  0.4576
15602TIP3    H168221   6.628   0.939  11.448 -0.7933 -0.3315 -0.5273
15602TIP3    H268222   6.517   1.036  11.416 -1.7334 -0.7279  1.3609
15603TIP3   OH268223   1.374   1.872   5.145 -0.3744  0.2017 -0.3543
15603TIP3    H168224   1.371   1.917   5.061  2.2919  0.4706 -0.3949
15603TIP3    H268225   1.308   1.803   5.138 -1.0394  0.9654 -2.1866
15604TIP3   OH268226   6.592   5.691  11.350  0.5599  0.5668 -0.0585
15604TIP3    H168227   6.532   5.742  11.296 -0.5104  0.7152  1.2213
15604TIP3    H268228   6.541   5.665  11.426  0.5279 -3.7191 -1.2305
15605TIP3   OH268229   6.477   3.824  15.087 -0.5071  0.1122 -0.1354
15605TIP3    H168230   6.536   3.753  15.062  1.2832  1.3481  0.3617
15605TIP3    H268231   6.531   3.903  15.081 -2.1040  1.3001  0.4422
15606TIP3   OH268232   0.952   4.696   3.572  0.8196 -0.2563 -0.1080
15606TIP3    H168233   0.914   4.626   3.518  2.4211 -1.3291  0.0988
15606TIP3    H268234   0.936   4.669   3.662  1.1558 -0.1983 -0.0291
15607TIP3   OH268235   3.953   5.612  14.095  0.4244  0.7028 -0.2864
15607TIP3    H168236   4.019   5.593  14.029  1.1584  0.8581  0.3840
15607TIP3    H268237   3.887   5.663  14.049  0.9336  0.8328 -0.8901
15608TIP3   OH268238   4.572   1.453   3.529  0.2857 -0.4219  0.2464
15608TIP3    H168239   4.599   1.389   3.594  2.1980  0.4035  0.3280
15608TIP3    H268240   4.534   1.525   3.580 -0.8331 -0.9720  0.2243
15609TIP3   OH268241   2.009   4.343   4.874  0.4130 -0.3869  0.6634
15609TIP3    H168242   2.096   4.327   4.912  0.4823  0.1650  0.7453
15609TIP3    H268243   1.964   4.396   4.939  0.2242 -0.1687  0.3555
15610TIP3   OH268244   6.285   1.340  13.948 -0.1873 -0.1076  0.0655
15610TIP3    H168245   6.256   1.415  13.895 -1.4922 -1.9025 -1.9000
15610TIP3    H268246   6.225   1.269  13.924  1.7560 -2.1413  0.9486
15611TIP3   OH268247   4.913   5.781  13.568  0.2310 -0.0592 -0.2712
15611TIP3    H168248   4.950   5.867  13.583  0.6026 -0.2831  0.1062
15611TIP3    H268249   4.985   5.729  13.533 -0.4096  0.2341 -2.1675
15612TIP3   OH268250   1.816   3.659  12.761  0.3226  0.2159  0.5245
15612TIP3    H168251   1.793   3.680  12.670  2.1088  2.1459  0.4552
15612TIP3    H268252   1.847   3.569  12.756  0.2794  0.2441 -0.7540
15613TIP3   OH268253   3.881   5.623   5.868  0.2890  0.5799 -0.2088
15613TIP3    H168254   3.831   5.544   5.889 -1.1087  1.4073 -0.2934
15613TIP3    H268255   3.880   5.628   5.772 -1.1878  1.6302 -0.1662
15614TIP3   OH268256   5.182   0.831  14.848  0.0344  0.3596 -0.3524
15614TIP3    H168257   5.226   0.787  14.921 -1.2129 -0.5649 -0.1214
15614TIP3    H268258   5.245   0.896  14.817  1.3307 -0.5581  0.2985
15615TIP3   OH268259   1.850   5.590   1.466 -0.1590  0.2104  0.1748
15615TIP3    H168260   1.824   5.623   1.381  0.7984  0.3246 -0.0852
15615TIP3    H268261   1.889   5.504   1.448  1.3639  0.8423  0.2901
15616TIP3   OH268262   0.018   6.380  16.876  0.0631 -0.1027  0.2283
15616TIP3    H168263   0.035   6.338  16.960 -1.6058 -1.6880 -0.1773
15616TIP3    H268264   0.102   6.421  16.852  1.5976 -2.6119  0.9733
15617TIP3   OH268265   5.251   1.716   0.861 -0.0507  0.2560 -0.4038
15617TIP3    H168266   5.344   1.710   0.884 -0.3170 -0.8282  0.5211
15617TIP3    H268267   5.229   1.628   0.830 -1.3945 -0.3712  2.0649
15618TIP3   OH268268   3.445   4.409  10.618  0.2957 -0.3738 -0.2710
15618TIP3    H168269   3.537   4.419  10.644 -0.1069 -1.2639  1.7533
15618TIP3    H268270   3.430   4.314  10.623 -0.3775 -0.3753 -1.9737
15619TIP3   OH268271   1.221   3.940  15.534  0.0912  0.3479  0.2543
15619TIP3    H168272   1.271   4.021  15.547  0.8467 -0.2263  1.0579
15619TIP3    H268273   1.147   3.966  15.479  1.1374  1.2724 -0.7721
15620TIP3   OH268274   1.640   1.332  11.499  0.5775  0.2239 -0.1862
15620TIP3    H168275   1.555   1.289  11.488  1.5320 -1.5927 -0.7970
15620TIP3    H268276   1.622   1.425  11.482 -1.6236  0.1803  1.5243
15621TIP3   OH268277   0.771   0.814   0.530 -0.0061 -0.0582  0.5132
15621TIP3    H168278   0.718   0.735   0.521  1.1019 -0.6715 -1.1316
15621TIP3    H268279   0.828   0.813   0.453  2.4538  0.5059  2.2081
15622TIP3   OH268280   3.061   4.131   2.740  0.2726 -0.1918  0.4761
15622TIP3    H168281   3.147   4.173   2.731 -0.2238  0.8132  0.2209
15622TIP3    H268282   3.001   4.190   2.694 -0.7967 -0.0509  1.9789
15623TIP3   OH268283   4.852   1.960   4.006  0.2876  0.1942 -0.1935
15623TIP3    H168284   4.869   2.054   4.011  2.0452 -0.0174 -1.1321
15623TIP3    H268285   4.931   1.919   4.043 -0.1425 -0.9102 -0.4441
15624TIP3   OH268286   0.721   3.245   5.191 -0.7225  0.4048  0.0810
15624TIP3    H168287   0.809   3.258   5.227 -1.2573 -0.9145  2.0210
15624TIP3    H268288   0.691   3.163   5.230 -3.5497  1.7641  1.0329
15625TIP3   OH268289   1.082   4.924   5.061 -0.0947 -0.2373  0.0807
15625TIP3    H168290   1.066   5.013   5.092  1.1387  0.1237 -0.2595
15625TIP3    H268291   1.128   4.881   5.133  1.6069  0.2080 -0.6847
15626TIP3   OH268292   6.700   2.708   4.850 -0.5280 -0.3598 -0.5240
15626TIP3    H168293   6.689   2.629   4.902  0.7226 -0.0954  0.1883
15626TIP3    H268294   6.679   2.780   4.910 -0.8808 -0.1133 -0.9330
15627TIP3   OH268295   5.236   4.081   0.451  0.2359 -0.1564  0.5369
15627TIP3    H168296   5.178   4.114   0.519 -1.1891 -0.0331 -0.6711
15627TIP3    H268297   5.223   4.141   0.377  1.0181 -0.8139 -0.1608
15628TIP3   OH268298   6.408   2.350   0.975 -0.4233 -0.2019  0.0965
15628TIP3    H168299   6.468   2.424   0.978  0.8230 -1.1163 -1.1123
15628TIP3    H268300   6.417   2.316   0.886 -1.4046 -1.4573  0.4535
15629TIP3   OH268301   0.059   1.341  16.847 -0.0209  0.4826  0.2245
15629TIP3    H168302   0.150   1.318  16.866 -0.7407 -1.6194  1.3766
15629TIP3    H268303   0.060   1.437  16.840  2.5746  0.4251 -1.6177
15630TIP3   OH268304   3.457   6.372   0.070  0.3274 -0.1710  0.5199
15630TIP3    H168305   3.540   6.375   0.117  0.5041  1.1710  0.1615
15630TIP3    H268306   3.481   6.357  -0.021  0.1555 -0.1905  0.4780
15631TIP3   OH268307   3.275   5.215  15.056  0.6120  0.1200 -0.0978
15631TIP3    H168308   3.345   5.156  15.084  0.2084 -0.3717 -0.1026
15631TIP3    H268309   3.195   5.171  15.085  0.3170  0.7631  0.0674
15632TIP3   OH268310   4.746   1.103  10.486  0.4737 -0.4589 -0.4901
15632TIP3    H168311   4.664   1.151  10.498  0.8503 -0.3048  2.2701
15632TIP3    H268312   4.719   1.013  10.468 -0.2579 -0.0115 -1.7304
15633TIP3   OH268313   2.281   3.011  16.362  0.3931  0.1581  0.2828
15633TIP3    H168314   2.196   2.997  16.405  0.4211 -1.1751 -0.0661
15633TIP3    H268315   2.279   3.103  16.336 -1.5244 -0.1652 -0.9182
15634TIP3   OH268316   0.725   4.667  12.291  0.3354 -0.1979 -0.2731
15634TIP3    H168317   0.707   4.693  12.201  1.1504 -2.1022 -1.0378
15634TIP3    H268318   0.641   4.678  12.336  0.0376  1.2607 -1.1018
15635TIP3   OH268319   1.591   3.883   2.359 -0.1021  0.3896  0.9291
15635TIP3    H168320   1.525   3.951   2.372  0.0889  0.6907  0.3907
15635TIP3    H268321   1.589   3.866   2.264  1.3781  1.2210  0.7119
15636TIP3   OH268322   0.268   1.219   0.533  0.3513  0.5508  0.3655
15636TIP3    H168323   0.213   1.152   0.492 -0.6767 -0.0654  2.5867
15636TIP3    H268324   0.235   1.302   0.499  0.5383  0.0387 -1.1386
15637TIP3   OH268325   0.718   5.087   3.070 -0.1562 -0.2077  1.1130
15637TIP3    H168326   0.801   5.049   3.043 -1.5693 -2.4181 -0.5230
15637TIP3    H268327   0.713   5.070   3.164  0.3787 -1.9602  0.8650
15638TIP3   OH268328   0.964   2.427  11.875  0.2730 -0.4458 -0.1890
15638TIP3    H168329   0.899   2.358  11.861 -0.3275 -0.1591  1.1124
15638TIP3    H268330   0.980   2.461  11.787 -1.2268 -0.6201 -0.5676
15639TIP3   OH268331   2.307   5.582  15.546  0.1826  0.0326 -0.4271
15639TIP3    H168332   2.400   5.597  15.562  0.1345  0.6120 -0.6573
15639TIP3    H268333   2.300   5.488  15.529  0.5147 -0.2557  0.9864
15640TIP3   OH268334   4.088   2.242  16.339  0.3159  0.2986 -0.1698
15640TIP3    H168335   4.099   2.170  16.277 -0.2135  1.1396 -1.2758
15640TIP3    H268336   4.106   2.321  16.288 -1.6630  1.1343  0.3109
15641TIP3   OH268337   4.961   6.198  12.087 -0.3960  0.1185  0.1311
15641TIP3    H168338   4.963   6.164  11.997 -2.2824 -1.1210  0.5039
15641TIP3    H268339   5.025   6.269  12.087 -2.3150  2.0938 -3.0089
15642TIP3   OH268340   1.324   5.703   3.969 -0.3183  0.4021 -0.2608
15642TIP3    H168341   1.384   5.751   4.025  0.5612  0.2356 -1.0417
15642TIP3    H268342   1.246   5.758   3.964 -0.0136  0.8944  0.2950
15643TIP3   OH268343   1.494   5.857   5.600 -0.0619  0.0975  0.0037
15643TIP3    H168344   1.434   5.820   5.665  0.8383  0.6711  1.2042
15643TIP3    H268345   1.539   5.928   5.647  0.5647  0.5785 -1.2780
15644TIP3   OH268346   1.934   2.915  16.386  0.1777  0.0100  0.6236
15644TIP3    H168347   1.907   2.968  16.461 -2.4449 -1.6533  0.9768
15644TIP3    H268348   1.858   2.913  16.328  0.5858 -2.3038  0.0677
15645TIP3   OH268349   1.603   1.925   2.138 -0.0742 -0.6278  0.0156
15645TIP3    H168350   1.575   2.015   2.156  0.3581 -0.7289  1.3370
15645TIP3    H268351   1.692   1.934   2.105 -0.0711 -0.5549  0.0438
15646TIP3   OH268352   4.639   2.185  10.457  0.3323  0.4278  0.0393
15646TIP3    H168353   4.561   2.131  10.471  0.9390 -0.7502 -0.9327
15646TIP3    H268354   4.605   2.266  10.419 -0.5738  0.6740  1.2972
15647TIP3   OH268355   5.548   1.045  13.704  0.1375 -0.1509 -0.3279
15647TIP3    H168356   5.534   1.120  13.646 -0.2190 -0.6407 -0.8893
15647TIP3    H268357   5.512   1.073  13.789  1.7038  1.0024  0.0047
15648TIP3   OH268358   5.620   3.752  11.378 -0.3516 -1.0507  0.6844
15648TIP3    H168359   5.586   3.816  11.315 -0.3168  0.2245  1.9237
15648TIP3    H268360   5.704   3.724  11.340  0.1611  0.4720  0.6306
15649TIP3   OH268361   5.652   3.684   1.515  0.3519 -0.1611 -0.2142
15649TIP3    H168362   5.691   3.629   1.448 -1.7095  0.9459 -2.4566
15649TIP3    H268363   5.567   3.644   1.533 -0.4539  1.3033 -0.6254
15650TIP3   OH268364   0.208   3.163   3.332 -0.3172  0.2361  0.2321
15650TIP3    H168365   0.145   3.234   3.331 -0.8128 -0.1650 -1.3893
15650TIP3    H268366   0.283   3.197   3.283 -0.0436  0.0726  0.5346
15651TIP3   OH268367   2.302   1.984  16.968 -0.0545  0.0248  0.1717
15651TIP3    H168368   2.344   1.930  16.900 -0.6570 -0.6596  0.3437
15651TIP3    H268369   2.212   1.993  16.939  0.4820  2.7583 -0.9880
15652TIP3   OH268370   0.341   3.767   4.613  0.3810 -0.4946  0.0869
15652TIP3    H168371   0.349   3.821   4.534 -1.3729  0.0314  0.2167
15652TIP3    H268372   0.353   3.829   4.685 -1.1856 -0.3174  0.2314
15653TIP3   OH268373   4.390   2.573   4.800  0.0363  0.5755 -0.6004
15653TIP3    H168374   4.413   2.518   4.875 -1.2052  0.9818  0.0867
15653TIP3    H268375   4.458   2.640   4.798  0.8212 -0.2005 -0.6564
15654TIP3   OH268376   2.291   1.222  11.662  0.3146  0.5163 -0.7419
15654TIP3    H168377   2.270   1.315  11.655  0.6738  0.5670 -1.1943
15654TIP3    H268378   2.206   1.178  11.661  0.0150  0.9284  1.4487
15655TIP3   OH268379   2.490   6.098   3.602 -0.2083  0.2260  0.6010
15655TIP3    H168380   2.506   6.184   3.640  0.2466 -0.4208  1.9364
15655TIP3    H268381   2.395   6.087   3.606 -0.4188  1.2058 -0.8674
15656TIP3   OH268382   1.562   5.836   3.527  0.4359 -0.5407  0.1053
15656TIP3    H168383   1.616   5.757   3.529  1.4343  0.1302  1.5797
15656TIP3    H268384   1.575   5.876   3.613  0.4814  1.5734 -0.8172
15657TIP3   OH268385   2.206   2.478   1.651 -0.7733  0.1008  0.3227
15657TIP3    H168386   2.223   2.405   1.711  0.0785 -1.0701 -1.2769
15657TIP3    H268387   2.273   2.544   1.674 -2.1455  0.8767  2.4234
15658TIP3   OH268388   0.352   3.010  13.283  0.2540 -0.4319 -0.7170
15658TIP3    H168389   0.415   3.078  13.307 -1.3553  0.5249  1.1315
15658TIP3    H268390   0.353   3.009  13.188  0.1569  2.4569 -0.8431
15659TIP3   OH268391   1.083   4.611  17.006 -0.1237  0.1337 -0.1749
15659TIP3    H168392   1.062   4.684  16.948 -3.4884 -0.1105  0.5393
15659TIP3    H268393   1.081   4.534  16.948 -0.4636  0.2164 -0.2752
15660TIP3   OH268394   1.112   5.368   6.266 -0.0213 -0.2160  0.1572
15660TIP3    H168395   1.202   5.387   6.240 -0.5322  0.7007 -1.0184
15660TIP3    H268396   1.117   5.352   6.360  0.9422  2.8728  0.7527
15661TIP3   OH268397   0.813   5.342  12.541  0.7015 -0.0685  0.0100
15661TIP3    H168398   0.725   5.373  12.562 -0.1128 -0.2786 -2.7388
15661TIP3    H268399   0.811   5.322  12.447  2.9461 -2.5798  0.3417
15662TIP3   OH268400   1.247   5.342  13.264  0.6942  0.1195 -0.7422
15662TIP3    H168401   1.234   5.248  13.254 -1.0612  0.2013  0.3106
15662TIP3    H268402   1.209   5.380  13.185 -0.5038  0.0230 -0.2413
15663TIP3   OH268403   5.169   2.010  11.552 -0.1034 -0.1043  0.3739
15663TIP3    H168404   5.233   1.985  11.486 -0.1902  1.4809 -0.3666
15663TIP3    H268405   5.221   2.045  11.624 -0.0772  0.7398 -0.0318
15664TIP3   OH268406   5.389   0.537   0.016  0.4283  0.4190  0.1110
15664TIP3    H168407   5.338   0.522  -0.064  0.5192 -1.1643  0.3154
15664TIP3    H268408   5.366   0.464   0.074  0.8801  1.1641  1.2703
15665TIP3   OH268409   0.527   5.751   3.905  0.2407  0.6870  0.1249
15665TIP3    H168410   0.432   5.741   3.909  0.3204  0.2008  1.1318
15665TIP3    H268411   0.560   5.694   3.975  1.4330 -1.2642 -1.8955
15666TIP3   OH268412   5.798   5.632   0.145  0.8318  0.3236 -0.3869
15666TIP3    H168413   5.705   5.615   0.157  0.1978  2.9069 -1.1012
15666TIP3    H268414   5.822   5.581   0.068  0.5407 -1.8429  0.8574
15667TIP3   OH268415   4.278   0.686  11.438 -0.0831  0.2241 -0.4209
15667TIP3    H168416   4.233   0.720  11.515  0.3219  1.0974 -0.5601
15667TIP3    H268417   4.238   0.732  11.364  1.2007  1.2076 -0.5262
15668TIP3   OH268418   3.706   2.899  13.154  0.0277 -0.0528  0.4334
15668TIP3    H168419   3.735   2.893  13.245  2.8689  0.4182 -0.3289
15668TIP3    H268420   3.697   2.808  13.126  0.4095 -0.2186  0.8419
15669TIP3   OH268421   3.773   6.257   1.554  0.4358  0.2223  0.3651
15669TIP3    H168422   3.792   6.340   1.598 -0.5076  0.8804 -0.4399
15669TIP3    H268423   3.839   6.251   1.485  2.0189 -0.8872  1.8949
15670TIP3   OH268424   4.493   0.659  16.125 -0.0131  0.5248  0.1406
15670TIP3    H168425   4.588   0.666  16.115  0.0829 -0.3664  0.4050
15670TIP3    H268426   4.462   0.749  16.110  0.9309  0.9886  0.8406
15671TIP3   OH268427   0.542   6.290   4.163 -0.2026  0.0479 -0.3396
15671TIP3    H168428   0.549   6.207   4.116 -0.4762 -1.5897  2.3085
15671TIP3    H268429   0.448   6.302   4.176 -0.1921  1.0232 -1.0447
15672TIP3   OH268430   5.583   3.379  10.826  0.1333  0.2476  0.7098
15672TIP3    H168431   5.555   3.469  10.809  1.3262  0.5581  0.2937
15672TIP3    H268432   5.624   3.351  10.744  0.2328 -0.5003  1.0106
15673TIP3   OH268433   2.329   2.468  14.370  0.3607 -0.3298  0.0035
15673TIP3    H168434   2.265   2.536  14.393 -0.5935 -1.5280  1.1046
15673TIP3    H268435   2.278   2.387  14.370  1.2203 -0.9425 -2.4249
15674TIP3   OH268436   1.414   2.051  15.685  0.8056  0.2418  0.3147
15674TIP3    H168437   1.323   2.047  15.657  0.0229 -0.7783  2.8110
15674TIP3    H268438   1.463   2.022  15.607 -1.1872 -1.9243 -0.2588
15675TIP3   OH268439   4.187   2.656  14.583  0.6496 -0.0194  0.0711
15675TIP3    H168440   4.195   2.603  14.503  0.8782 -2.2506  1.4811
15675TIP3    H268441   4.093   2.675  14.590 -0.2973 -4.2416  1.8073
15676TIP3   OH268442   1.466   5.877   1.364 -0.2452  0.0219  0.7022
15676TIP3    H168443   1.528   5.853   1.432  3.6282 -0.2131 -2.5653
15676TIP3    H268444   1.492   5.965   1.337 -0.9189 -0.2858 -1.1282
15677TIP3   OH268445   0.148   4.834   0.406 -0.1104  0.9211  0.2188
15677TIP3    H168446   0.084   4.848   0.336 -0.7577 -0.3382  0.5089
15677TIP3    H268447   0.221   4.892   0.384 -0.3966  0.7466 -1.3647
15678TIP3   OH268448   4.111   1.399  12.601 -0.4146  0.4164 -0.3392
15678TIP3    H168449   4.111   1.314  12.644  1.2242 -0.1245 -1.3311
15678TIP3    H268450   4.153   1.458  12.665 -1.1330  0.3986  0.1602
15679TIP3   OH268451   0.046   0.330  11.562 -0.1117 -0.3303 -0.6614
15679TIP3    H168452   0.043   0.351  11.469  0.4033 -0.7627 -0.7781
15679TIP3    H268453   0.131   0.289  11.575 -1.2510 -2.8272 -0.5614
15680TIP3   OH268454   5.978   1.174  13.094  0.4273 -0.5327 -0.0169
15680TIP3    H168455   6.002   1.139  13.180  0.3725  2.8213  1.5001
15680TIP3    H268456   5.884   1.189  13.099  0.4085 -0.3726 -0.7179
15681TIP3   OH268457   5.873   3.991   2.083 -0.2106  0.1007 -0.1839
15681TIP3    H168458   5.834   3.936   2.151  0.6510 -0.1223  0.1511
15681TIP3    H268459   5.966   3.995   2.106  0.0970  0.0450 -1.3348
15682TIP3   OH268460   2.660   1.681   4.200 -0.2696 -0.1837  0.3107
15682TIP3    H168461   2.681   1.752   4.261 -1.1765 -0.2861  0.7465
15682TIP3    H268462   2.746   1.647   4.173  0.2301  1.5965 -0.5396
15683TIP3   OH268463   5.046   0.891   2.828 -0.0267 -0.2585 -0.2548
15683TIP3    H168464   5.105   0.820   2.803 -0.3069 -0.4588 -0.3576
15683TIP3    H268465   5.012   0.924   2.745  1.8215  1.5227 -0.3812
15684TIP3   OH268466   5.157   4.058   1.605  0.3274  0.0039 -0.5740
15684TIP3    H168467   5.127   3.991   1.667  1.4483 -1.3731 -1.4382
15684TIP3    H268468   5.120   4.031   1.521  1.0106  0.3112 -0.9856
15685TIP3   OH268469   0.943   5.087  14.034 -0.3463 -0.7426 -0.0903
15685TIP3    H168470   0.905   5.141  14.104  1.1815  0.8623 -0.4063
15685TIP3    H268471   1.003   5.028  14.079  0.4274  0.0995  0.0274
15686TIP3   OH268472   2.813   2.880   1.365  0.0090  0.1061  0.0176
15686TIP3    H168473   2.855   2.966   1.376  1.0198 -0.5905  2.2354
15686TIP3    H268474   2.741   2.880   1.428 -0.2627 -0.5140 -0.2846
15687TIP3   OH268475   4.752   3.003  14.125 -0.6045 -0.3381  0.1026
15687TIP3    H168476   4.848   2.998  14.125 -0.5349  0.6244 -0.3812
15687TIP3    H268477   4.726   2.978  14.213  0.3858  3.5028  1.6969
15688TIP3   OH268478   3.402   1.239  13.310  0.2033 -0.1579 -0.0745
15688TIP3    H168479   3.356   1.213  13.230  1.8654 -0.1862 -1.0610
15688TIP3    H268480   3.478   1.181  13.314  0.2082 -0.0781  1.4823
15689TIP3   OH268481   3.233   3.548  16.825  0.1754 -0.6875  0.1717
15689TIP3    H168482   3.211   3.593  16.907 -0.5638 -0.7732  0.0219
15689TIP3    H268483   3.158   3.492  16.806  0.6680 -1.2601 -0.1649
15690TIP3   OH268484   5.104   0.401   0.874 -0.1369  0.7315  0.0179
15690TIP3    H168485   5.169   0.331   0.875  0.7259  1.4977 -0.3438
15690TIP3    H268486   5.126   0.453   0.797 -1.2297  0.9797 -0.1519
15691TIP3   OH268487   2.690   2.556   5.745 -0.0694  0.2337 -0.3466
15691TIP3    H168488   2.685   2.577   5.839  1.0841 -0.3278 -0.1420
15691TIP3    H268489   2.768   2.601   5.714 -0.7788  0.9154 -1.1993
15692TIP3   OH268490   5.452   4.565  12.768 -0.6045  0.4444 -0.0422
15692TIP3    H168491   5.427   4.587  12.679 -1.2171 -0.1245 -0.0217
15692TIP3    H268492   5.458   4.649  12.813 -0.1478  0.7450 -0.6515
15693TIP3   OH268493   1.528   1.267  13.516  0.6140  0.3129 -0.3497
15693TIP3    H168494   1.544   1.298  13.427  0.3918 -0.3533 -0.6283
15693TIP3    H268495   1.615   1.242  13.549  0.6713  0.3919 -0.4407
15694TIP3   OH268496   1.642   5.416  13.967 -0.3430 -0.1417  0.3735
15694TIP3    H168497   1.648   5.494  14.023 -0.9627  0.1354  0.0684
15694TIP3    H268498   1.732   5.400  13.939 -0.3653  1.3085 -0.6610
15695TIP3   OH268499   3.683   2.224   6.460  0.0587  0.1484  0.5759
15695TIP3    H168500   3.772   2.234   6.492  0.4563  0.5757 -0.6071
15695TIP3    H268501   3.634   2.295   6.501  0.5947  0.7964  0.1136
15696TIP3   OH268502   4.186   4.240   2.108 -0.8036  0.3925  0.0459
15696TIP3    H168503   4.199   4.183   2.033 -1.7545  0.1323  0.0630
15696TIP3    H268504   4.266   4.293   2.113 -0.2834 -0.3267 -0.4924
15697TIP3   OH268505   1.182   6.634  12.766 -0.0236 -0.5356 -0.1190
15697TIP3    H168506   1.235   6.579  12.824  0.9276 -0.3564 -0.7895
15697TIP3    H268507   1.153   6.575  12.697  0.7302 -0.2849 -0.6651
15698TIP3   OH268508   1.578   0.990  13.135  0.2047  0.0837 -0.3633
15698TIP3    H168509   1.639   1.005  13.062  1.6133 -1.3999  0.4465
15698TIP3    H268510   1.615   1.040  13.208 -0.9197  1.1462 -0.4937
15699TIP3   OH268511   5.789   5.776  14.824  0.5093  0.1634  0.1620
15699TIP3    H168512   5.804   5.847  14.887 -0.6417  1.4290 -0.9462
15699TIP3    H268513   5.699   5.748  14.839  1.3666 -2.1604  1.5909
15700TIP3   OH268514   2.029   4.681  12.637 -0.0511  0.2888 -0.6301
15700TIP3    H168515   2.056   4.753  12.693 -0.2586 -0.8125  0.9707
15700TIP3    H268516   2.068   4.603  12.677 -0.9355 -0.6433 -1.5043
15701TIP3   OH268517   5.012   2.017   0.044 -0.6450  0.4870  0.4589
15701TIP3    H168518   5.076   1.977   0.103 -2.4708 -0.7397  1.7587
15701TIP3    H268519   4.988   2.099   0.087 -2.2123 -0.5585  1.6917
15702TIP3   OH268520   6.209   0.870  13.219  0.1094 -0.2500 -0.2490
15702TIP3    H168521   6.195   0.933  13.289  0.1561 -1.0546  0.5049
15702TIP3    H268522   6.248   0.794  13.262 -3.2695 -2.2747 -0.4060
15703TIP3   OH268523   2.219   1.158   5.362  0.6071  0.5019 -0.1686
15703TIP3    H168524   2.303   1.130   5.327  2.1708  2.6367  1.5321
15703TIP3    H268525   2.241   1.230   5.421 -2.4978  1.5279 -0.0766
15704TIP3   OH268526   6.264   4.315  12.338 -0.0189  0.3079  0.0798
15704TIP3    H168527   6.247   4.385  12.401 -0.1148  0.3198  0.0403
15704TIP3    H268528   6.237   4.235  12.383  0.9829  0.1857  0.4920
15705TIP3   OH268529   3.080   6.402  16.916 -0.5767  0.7772  0.1065
15705TIP3    H168530   3.120   6.416  17.002 -1.3614  0.1484  0.5905
15705TIP3    H268531   3.130   6.459  16.857  1.4004 -0.3811  0.5603
15706TIP3   OH268532   2.303   2.104   5.231 -0.2044 -0.1707  0.1070
15706TIP3    H168533   2.285   2.156   5.152  1.9806  0.1451 -0.2589
15706TIP3    H268534   2.278   2.161   5.303 -0.8748  0.1129 -0.3408
15707TIP3   OH268535   2.635   6.583   3.538  0.1941 -0.1008  0.5438
15707TIP3    H168536   2.630   6.609   3.630  0.3394  1.4143  0.1431
15707TIP3    H268537   2.710   6.523   3.534  1.6550  1.6055  1.0293
15708TIP3   OH268538   0.295   2.309  17.020  0.0364 -0.0458  0.1123
15708TIP3    H168539   0.275   2.332  16.929  0.6732 -1.0196 -0.2999
15708TIP3    H268540   0.293   2.392  17.067 -4.5109  0.0908  0.1124
15709TIP3   OH268541   4.829   4.162   3.286  0.1777  0.6753 -0.4245
15709TIP3    H168542   4.828   4.257   3.292 -0.2306  0.7013 -0.8507
15709TIP3    H268543   4.743   4.139   3.250  0.3470  0.1599 -0.5107
15710TIP3   OH268544   0.399   6.482  13.670 -0.2985  0.1619  0.2725
15710TIP3    H168545   0.398   6.520  13.582  1.7435 -0.9872 -0.2901
15710TIP3    H268546   0.331   6.415  13.668 -1.3922  1.2237  0.1346
15711TIP3   OH268547   5.820   0.848   2.002  0.4712  0.2263 -0.1316
15711TIP3    H168548   5.756   0.808   1.942 -0.8020  1.2947  0.4734
15711TIP3    H268549   5.901   0.852   1.951 -0.3609  0.3342 -1.5001
15712TIP3   OH268550   3.539   1.401  13.628  0.0286  0.0909 -0.2065
15712TIP3    H168551   3.547   1.306  13.626 -2.0897 -0.1254 -1.3495
15712TIP3    H268552   3.611   1.433  13.574  0.1272 -0.9422 -0.7113
15713TIP3   OH268553   2.938   1.165  17.198 -0.1489  0.1683  0.0210
15713TIP3    H168554   2.938   1.254  17.163 -1.8241  0.1166 -0.1752
15713TIP3    H268555   2.870   1.166  17.265  0.2580 -0.8067  0.4636
15714TIP3   OH268556   6.543   1.743  14.163  0.4391 -0.0203 -0.2589
15714TIP3    H168557   6.595   1.758  14.084 -0.9471  0.0961 -1.1835
15714TIP3    H268558   6.554   1.650  14.181  1.4025  0.1128 -0.1090
15715TIP3   OH268559   1.895   5.235   4.857  0.3074  0.0776 -0.1769
15715TIP3    H168560   1.941   5.214   4.938 -0.9473 -0.6259  0.3692
15715TIP3    H268561   1.821   5.290   4.885  0.1717  0.2736 -0.9040
15716TIP3   OH268562   2.163   5.520   6.277  0.7176 -0.3769  0.6557
15716TIP3    H168563   2.248   5.555   6.306  0.4256 -0.0359  1.1317
15716TIP3    H268564   2.178   5.490   6.188  0.7185  2.0169 -0.2203
15717TIP3   OH268565   5.963   5.493  13.003  0.2918 -0.1486  0.7512
15717TIP3    H168566   5.960   5.419  12.942  1.2357 -0.6267  1.2784
15717TIP3    H268567   6.044   5.539  12.982 -1.0577  1.7526 -0.7011
15718TIP3   OH268568   6.137   4.213   0.407  0.0888  0.2789  0.1577
15718TIP3    H168569   6.064   4.209   0.346 -0.4806  0.1144  0.8349
15718TIP3    H268570   6.212   4.181   0.357 -0.4419 -0.1906 -0.3490
15719TIP3   OH268571   6.490   1.432  14.911 -0.3146  0.1123  0.5268
15719TIP3    H168572   6.511   1.524  14.895 -0.9425  0.4876  1.6957
15719TIP3    H268573   6.531   1.384  14.840 -3.1355  1.6285 -2.3824
15720TIP3   OH268574   4.651   5.646   6.084  0.0282  0.1591 -0.9514
15720TIP3    H168575   4.710   5.708   6.124  0.8081 -0.0752 -1.7080
15720TIP3    H268576   4.666   5.564   6.131  0.7892 -0.0621 -1.5547
15721TIP3   OH268577   5.543   1.232   3.079 -0.5792  0.4873  0.1358
15721TIP3    H168578   5.511   1.317   3.110  0.0853  1.0636 -0.7215
15721TIP3    H268579   5.574   1.188   3.158  0.3756  1.6178  0.4181
15722TIP3   OH268580   6.474   0.445  13.653 -0.2900 -0.4401  0.1166
15722TIP3    H168581   6.561   0.430  13.616 -0.1662  0.5123 -0.0092
15722TIP3    H268582   6.414   0.401  13.593 -0.1846  1.9098 -1.8505
15723TIP3   OH268583   6.593   5.350   3.828  0.3079 -0.8069  0.4033
15723TIP3    H168584   6.568   5.334   3.737  1.6580  2.3569 -0.6803
15723TIP3    H268585   6.512   5.376   3.872 -0.0132 -0.3622 -0.4367
15724TIP3   OH268586   2.104   0.810   2.348  0.4130 -0.2664  0.2361
15724TIP3    H168587   2.158   0.830   2.271 -0.3055 -1.5169 -0.6339
15724TIP3    H268588   2.024   0.861   2.335  0.6556  0.2169  0.6212
15725TIP3   OH268589   3.835   4.895  11.298  0.0299  0.3964  0.8794
15725TIP3    H168590   3.756   4.928  11.255  0.3158  0.7312  0.6058
15725TIP3    H268591   3.869   4.829  11.238  0.6770  1.1803  0.3598
15726TIP3   OH268592   0.870   4.956  10.768 -0.2314 -0.5682 -0.5730
15726TIP3    H168593   0.896   4.937  10.677  0.2699 -0.6173 -0.4227
15726TIP3    H268594   0.821   5.038  10.761  2.1149  0.9302 -0.5750
15727TIP3   OH268595   0.674   5.965   5.321 -0.3848 -0.3792 -0.3855
15727TIP3    H168596   0.751   6.019   5.340 -0.5582  0.2822 -1.4452
15727TIP3    H268597   0.675   5.896   5.387  0.6791  0.0794  0.0903
15728TIP3   OH268598   1.802   0.794  14.496  0.2196 -0.9084  0.0034
15728TIP3    H168599   1.889   0.762  14.518  0.0583 -0.7756  0.8825
15728TIP3    H268600   1.782   0.859  14.564 -0.7327 -1.2331  0.0580
15729TIP3   OH268601   2.544   4.484   1.658  0.2779  0.5102 -0.2230
15729TIP3    H168602   2.511   4.518   1.741  0.5159 -0.8953  0.4670
15729TIP3    H268603   2.478   4.422   1.629  1.5893 -1.2868  0.4741
15730TIP3   OH268604   4.146   6.240  11.482 -0.3776  0.4768 -0.3649
15730TIP3    H168605   4.171   6.300  11.552  1.9889  0.1485 -0.8468
15730TIP3    H268606   4.208   6.258  11.412 -0.2285 -1.8480 -0.9039
15731TIP3   OH268607   2.860   2.781  15.826  0.6625  0.3370  0.1900
15731TIP3    H168608   2.877   2.769  15.919 -0.6330 -2.5234  0.1514
15731TIP3    H268609   2.927   2.728  15.783 -1.2859 -1.8712 -0.2908
15732TIP3   OH268610   6.064   0.269  12.080  0.5866  0.2514 -0.2998
15732TIP3    H168611   6.129   0.200  12.088  0.9238  0.4448 -1.2595
15732TIP3    H268612   6.002   0.237  12.013  0.9692  1.0266 -1.0493
15733TIP3   OH268613   4.729   1.800   0.398 -1.1423  0.3979  0.0736
15733TIP3    H168614   4.708   1.767   0.311  1.1717 -0.9288 -0.0553
15733TIP3    H268615   4.717   1.724   0.455  0.2778  0.4257  0.4299
15734TIP3   OH268616   1.412   5.090   1.145  0.3319 -0.0087 -0.3420
15734TIP3    H168617   1.414   4.997   1.163 -0.5023 -0.2618 -1.4424
15734TIP3    H268618   1.462   5.100   1.063  3.2176  0.9713  1.3813
15735TIP3   OH268619   0.960   1.149   0.122 -0.1022 -0.0027  0.0240
15735TIP3    H168620   1.049   1.117   0.137 -0.9604 -1.3412  3.0196
15735TIP3    H268621   0.943   1.209   0.195 -2.0488 -0.8020  0.3073
15736TIP3   OH268622   3.994   1.310   1.800 -0.5473 -0.8719  0.6445
15736TIP3    H168623   3.951   1.311   1.715 -0.5594 -0.1870  0.6547
15736TIP3    H268624   4.081   1.274   1.783 -0.1317  0.3476  0.1293
15737TIP3   OH268625   4.941   1.518   5.942 -0.3939  0.6779 -0.4076
15737TIP3    H168626   4.945   1.471   5.858  0.9095  0.9511 -0.5300
15737TIP3    H268627   4.920   1.451   6.006 -0.6082  0.3159 -0.8511
15738TIP3   OH268628   4.634   4.741   4.210 -0.0738 -0.6716 -0.5675
15738TIP3    H168629   4.637   4.755   4.116  1.2630  0.4683 -0.3841
15738TIP3    H268630   4.698   4.803   4.246 -1.4172 -0.2271  1.1943
15739TIP3   OH268631   2.271   3.615   2.946 -0.0012 -0.4833  0.0808
15739TIP3    H168632   2.238   3.566   3.022  0.6746 -0.5507  0.3371
15739TIP3    H268633   2.267   3.707   2.973 -1.3495 -0.3674 -0.4311
15740TIP3   OH268634   4.749   4.506   1.059  0.1337  0.1678  0.0538
15740TIP3    H168635   4.779   4.418   1.081 -1.7563 -0.5668 -0.0764
15740TIP3    H268636   4.756   4.555   1.141  1.9298  0.1452 -0.0614
15741TIP3   OH268637   1.654   1.986   0.608 -0.0541  0.3386 -0.0161
15741TIP3    H168638   1.598   1.932   0.664  1.1881 -1.7610 -0.7005
15741TIP3    H268639   1.614   1.980   0.522 -0.6083  1.5983  0.1305
15742TIP3   OH268640   6.023   6.314  11.794 -0.1562 -0.2074 -0.6193
15742TIP3    H168641   6.039   6.334  11.701 -1.2446  0.4715 -0.6752
15742TIP3    H268642   6.062   6.228  11.807  1.8441  0.5455 -1.1884
15743TIP3   OH268643   1.985   6.201  15.555  0.4721 -0.6711  0.1950
15743TIP3    H168644   2.036   6.275  15.587  1.5730 -1.0707 -0.5684
15743TIP3    H268645   2.016   6.187  15.466  1.0518 -2.6666  0.6498
15744TIP3   OH268646   3.445   0.770  15.531 -0.1946  0.6279  0.2978
15744TIP3    H168647   3.378   0.775  15.599  1.0369 -0.3577  1.6454
15744TIP3    H268648   3.485   0.684  15.543  0.1543  0.4863 -1.6066
15745TIP3   OH268649   2.874   5.049   3.435  0.7114  0.6960 -0.0911
15745TIP3    H168650   2.904   4.960   3.417 -0.0533  0.7502 -1.8987
15745TIP3    H268651   2.785   5.039   3.469  0.5033  0.7654 -0.6021
15746TIP3   OH268652   4.272   6.510   0.145 -0.1412  0.1787  0.7863
15746TIP3    H168653   4.217   6.437   0.173 -0.0280  0.3580  1.4997
15746TIP3    H268654   4.281   6.564   0.223 -0.2947  1.0021  0.2400
15747TIP3   OH268655   2.885   4.536  14.775 -0.2680 -0.1821  0.2230
15747TIP3    H168656   2.874   4.530  14.680 -1.3156  2.3261  0.1297
15747TIP3    H268657   2.975   4.508  14.790 -0.5444 -2.1760 -1.2730
15748TIP3   OH268658   4.616   0.637  12.345 -1.0729 -0.2558  0.1488
15748TIP3    H168659   4.538   0.589  12.372 -1.6834  1.8721  2.5598
15748TIP3    H268660   4.630   0.702  12.414  2.7885 -0.4246 -0.2291
15749TIP3   OH268661   2.349   1.880   2.812 -0.5379 -0.1963  0.1289
15749TIP3    H168662   2.436   1.855   2.844 -0.1618  1.2863  0.3114
15749TIP3    H268663   2.291   1.811   2.844  0.5497 -1.1555  0.0868
15750TIP3   OH268664   0.573   3.583   4.511  0.2103 -0.0185  0.4361
15750TIP3    H168665   0.521   3.657   4.545  1.0028  0.9479 -0.3780
15750TIP3    H268666   0.514   3.538   4.451  0.2110  0.9480 -0.3186
15751TIP3   OH268667   6.075   4.191   1.175 -0.1715  0.5065 -0.9572
15751TIP3    H168668   6.006   4.257   1.186 -0.4938  0.5056 -2.6745
15751TIP3    H268669   6.028   4.107   1.181 -0.0270  0.4602 -0.4156
15752TIP3   OH268670   2.352   3.294   0.262 -0.2302  0.0745  0.2666
15752TIP3    H168671   2.357   3.367   0.201  1.8725 -1.1235 -1.1140
15752TIP3    H268672   2.372   3.332   0.347  1.0485  1.0821 -0.4533
15753TIP3   OH268673   5.021   1.464   4.086  0.8849 -0.2019 -0.3108
15753TIP3    H168674   5.030   1.496   4.175 -0.4880 -0.4141 -0.0839
15753TIP3    H268675   4.933   1.491   4.059 -0.3203 -3.4883 -0.1802
15754TIP3   OH268676   3.686   4.589   4.590 -0.3485  0.1657  0.1989
15754TIP3    H168677   3.724   4.587   4.503 -0.7491 -0.5756  0.0271
15754TIP3    H268678   3.592   4.574   4.576 -0.6554  1.5030  0.6437
15755TIP3   OH268679   2.980   0.532  11.370 -0.3466  0.5645 -0.1367
15755TIP3    H168680   3.075   0.532  11.353 -0.3135 -0.6768  0.0022
15755TIP3    H268681   2.951   0.618  11.340  0.7211  0.7219 -0.7714
15756TIP3   OH268682   1.676   0.344  15.260  0.3648 -0.0298  0.3845
15756TIP3    H168683   1.717   0.429  15.273 -0.6102  0.4735  0.2433
15756TIP3    H268684   1.620   0.356  15.184 -1.5590 -0.1034  1.7098
15757TIP3   OH268685   1.864   1.592  11.934 -0.0281  0.1246 -0.0487
15757TIP3    H168686   1.797   1.532  11.901  1.1651 -1.2017 -0.1136
15757TIP3    H268687   1.931   1.536  11.972  1.0783  1.4140 -0.0012
15758TIP3   OH268688   6.384   3.921  11.818  0.0665 -0.9327  0.0960
15758TIP3    H168689   6.368   4.003  11.773 -0.2836 -0.5953  0.8233
15758TIP3    H268690   6.413   3.861  11.749 -2.3505 -1.0070 -0.9325
15759TIP3   OH268691   5.162   4.447   3.186  0.0519  0.7391  0.5917
15759TIP3    H168692   5.100   4.374   3.192 -1.5892  2.1216  1.3726
15759TIP3    H268693   5.242   4.414   3.226  0.5979 -1.7722 -2.2404
15760TIP3   OH268694   5.908   5.838   3.985 -0.3468  0.0484 -0.8603
15760TIP3    H168695   5.995   5.810   4.015 -0.5777  0.8460  0.6575
15760TIP3    H268696   5.867   5.757   3.953  0.3513 -0.6572 -0.0532
15761TIP3   OH268697   3.110   1.767   0.564  0.3319  0.0410  0.0588
15761TIP3    H168698   3.075   1.847   0.604  1.2944  0.3471  0.3204
15761TIP3    H268699   3.137   1.794   0.477 -0.2906 -0.2501 -0.2293
15762TIP3   OH268700   1.667   1.849   1.797  0.1803 -0.4286  0.1460
15762TIP3    H168701   1.609   1.911   1.842 -0.7987 -2.0089  1.1638
15762TIP3    H268702   1.611   1.805   1.733  0.4873 -1.2651  0.4376
15763TIP3   OH268703   4.680   1.944   6.321  0.5477  0.0458 -0.5798
15763TIP3    H168704   4.662   1.914   6.410 -1.2425 -0.6891 -1.1346
15763TIP3    H268705   4.758   1.896   6.295  1.5207  0.7933  0.8036
15764TIP3   OH268706   4.049   3.588  14.297  0.3455 -0.2781  0.1605
15764TIP3    H168707   4.052   3.498  14.267 -0.7941  0.0478 -1.0513
15764TIP3    H268708   3.999   3.634  14.230  0.1382  1.0834  1.1907
15765TIP3   OH268709   2.172   2.057   1.943 -0.8225  0.1396 -0.1421
15765TIP3    H168710   2.109   2.113   1.988  2.1796  1.8725  2.3809
15765TIP3    H268711   2.170   1.975   1.993 -2.3133 -0.5570 -1.2705
15766TIP3   OH268712   2.834   5.222  12.485 -0.1131 -0.3062 -0.0100
15766TIP3    H168713   2.873   5.309  12.473 -2.1774  0.6276 -0.5456
15766TIP3    H268714   2.778   5.231  12.562 -1.8833 -0.5266 -1.2178
15767TIP3   OH268715   3.050   3.549   0.986  0.0344  0.1029  0.1489
15767TIP3    H168716   2.989   3.584   1.051 -0.0216 -0.2701  0.2957
15767TIP3    H268717   3.037   3.455   0.989 -0.0434  0.0928 -0.4832
15768TIP3   OH268718   6.090   2.873   1.067 -0.2946 -1.0129 -0.6050
15768TIP3    H168719   6.145   2.816   1.014  0.1034 -0.9236 -0.2935
15768TIP3    H268720   6.151   2.936   1.106 -0.6709 -0.6547 -0.5881
15769TIP3   OH268721   0.645   2.127   0.277 -0.1854 -0.1369  0.1331
15769TIP3    H168722   0.740   2.122   0.290 -0.1655 -1.4876 -0.4200
15769TIP3    H268723   0.608   2.075   0.349 -0.5004  0.2532  0.2545
15770TIP3   OH268724   2.606   5.385   0.945  0.5346  0.5216  0.5455
15770TIP3    H168725   2.664   5.339   1.006  0.7395 -0.7878 -0.5846
15770TIP3    H268726   2.663   5.410   0.872  0.1654  1.5040  0.5822
15771TIP3   OH268727   0.251   2.467   0.168  0.4986  0.6079 -0.4918
15771TIP3    H168728   0.202   2.413   0.107  0.4235  0.4149 -0.2621
15771TIP3    H268729   0.340   2.432   0.165  0.6530  1.0340 -0.9972
15772TIP3   OH268730   2.242   0.620  15.576  0.0853 -0.2511  0.4339
15772TIP3    H168731   2.301   0.545  15.573 -1.1818 -1.2942 -2.3015
15772TIP3    H268732   2.225   0.640  15.484 -0.9418  2.3693  1.0990
15773TIP3   OH268733   6.041   3.696  17.016  0.0533  0.0655  0.7299
15773TIP3    H168734   5.955   3.667  17.044 -0.8410  1.2047 -0.6811
15773TIP3    H268735   6.083   3.617  16.981 -0.2214 -0.5871  1.8354
15774TIP3   OH268736   3.655   0.199   3.137 -0.2364  0.1264 -0.0113
15774TIP3    H168737   3.744   0.177   3.112 -0.3161 -0.1669 -0.0361
15774TIP3    H268738   3.613   0.115   3.155 -0.3073  0.2972  0.6795
15775TIP3   OH268739   3.201   6.147   2.939  0.0942 -0.0571  0.0218
15775TIP3    H168740   3.233   6.057   2.937 -0.7191 -0.3503 -0.2297
15775TIP3    H268741   3.270   6.198   2.895  0.7412 -0.4855  0.5162
15776TIP3   OH268742   0.141   3.664   0.961 -0.0235 -0.1528 -0.3903
15776TIP3    H168743   0.196   3.741   0.946 -0.0220 -0.2897 -1.1578
15776TIP3    H268744   0.055   3.700   0.982  0.5349  0.0771  1.7440
15777TIP3   OH268745   1.989   6.524   5.456  0.5058  0.0569 -0.1934
15777TIP3    H168746   1.947   6.590   5.401 -0.1973  0.4208  0.7656
15777TIP3    H268747   1.962   6.546   5.545  2.6879  0.2819  0.4677
15778TIP3   OH268748   0.140   3.470  14.145 -0.1842  0.2505  0.5192
15778TIP3    H168749   0.204   3.411  14.185  1.5282  0.6887 -1.4068
15778TIP3    H268750   0.173   3.558  14.167 -0.5608  0.4893  0.1329
15779TIP3   OH268751   3.903   4.684  14.436  0.3769  0.2755  0.3016
15779TIP3    H168752   3.867   4.601  14.404  0.0942  0.4123  0.2559
15779TIP3    H268753   3.971   4.659  14.498 -0.3177  0.0021  0.9759
15780TIP3   OH268754   5.837   4.397  10.384  0.4235 -0.4985 -0.1223
15780TIP3    H168755   5.770   4.373  10.448  1.5037  1.3251  1.8498
15780TIP3    H268756   5.919   4.365  10.423  0.9685 -0.6564 -1.3585
15781TIP3   OH268757   0.644   1.646   3.691 -0.0209 -0.1215 -0.2654
15781TIP3    H168758   0.702   1.569   3.696  0.4808  0.2943  0.6829
15781TIP3    H268759   0.633   1.672   3.782 -1.2227  0.1814 -0.4868
15782TIP3   OH268760   6.711   2.944   5.692 -0.1537 -0.3693  0.4407
15782TIP3    H168761   6.637   2.904   5.737 -1.0623 -0.8531 -1.3982
15782TIP3    H268762   6.780   2.948   5.758 -1.5958 -0.5054  2.0079
15783TIP3   OH268763   3.351   6.618   5.856 -0.5745  0.3664 -0.3243
15783TIP3    H168764   3.413   6.678   5.814 -1.8301  0.3998 -2.2692
15783TIP3    H268765   3.265   6.657   5.839 -1.2475 -0.4879  0.9460
15784TIP3   OH268766   1.363   0.311   5.325 -0.3686 -0.2605 -0.0252
15784TIP3    H168767   1.321   0.275   5.404  1.0842 -0.6238  0.6032
15784TIP3    H268768   1.432   0.368   5.359 -0.0145 -0.0741 -1.0419
15785TIP3   OH268769   4.941   4.534   1.324 -0.4758 -0.3983 -0.1847
15785TIP3    H168770   4.857   4.569   1.352 -0.1974  0.3273 -0.2272
15785TIP3    H268771   4.954   4.456   1.378 -1.4230 -0.8303 -0.5671
15786TIP3   OH268772   2.087   2.079  15.347 -0.5326 -0.1967 -0.1314
15786TIP3    H168773   2.039   2.147  15.394 -1.8693 -0.6414 -0.7906
15786TIP3    H268774   2.097   2.115  15.258  0.0039 -0.2816 -0.1079
15787TIP3   OH268775   6.176   3.877  15.592 -1.0536  0.3683  0.3788
15787TIP3    H168776   6.190   3.787  15.563  0.5950  0.7928 -0.2741
15787TIP3    H268777   6.224   3.930  15.528  1.5877  1.4550  3.0481
15788TIP3   OH268778   4.532   5.100   5.358  0.2251 -0.2796 -0.4590
15788TIP3    H168779   4.575   5.090   5.443 -0.3961  0.3642 -0.0601
15788TIP3    H268780   4.559   5.187   5.327 -3.7110  1.9271  1.5802
15789TIP3   OH268781   1.198   1.810   3.168  0.4611 -0.4671  0.4187
15789TIP3    H168782   1.213   1.722   3.134  1.4120  0.1289 -0.7576
15789TIP3    H268783   1.140   1.797   3.243 -1.7354 -1.8299 -1.3952
15790TIP3   OH268784   0.729   0.825  14.668  0.2962 -0.3411 -0.5353
15790TIP3    H168785   0.793   0.801  14.735 -0.6214 -1.7382 -0.1209
15790TIP3    H268786   0.734   0.754  14.604 -0.9742 -0.5856 -0.3811
15791TIP3   OH268787   4.881   0.112  15.514  0.1176  0.0240  0.3779
15791TIP3    H168788   4.916   0.176  15.576  0.2538 -0.1536  0.4837
15791TIP3    H268789   4.863   0.163  15.435  0.4434  0.1488  0.3827
15792TIP3   OH268790   2.857   1.577  11.974  0.0434 -0.3404 -0.0967
15792TIP3    H168791   2.828   1.632  12.047  0.1547 -2.8161  1.9096
15792TIP3    H268792   2.946   1.607  11.955 -0.5523  1.3939 -0.3542
15793TIP3   OH268793   6.662   0.475  16.068  0.2223  0.2556 -0.1722
15793TIP3    H168794   6.594   0.419  16.105  0.8304 -0.6986 -0.4663
15793TIP3    H268795   6.686   0.433  15.986  1.3596  0.4324  0.0570
15794TIP3   OH268796   5.509   5.027  13.238 -0.7597 -0.0153  0.1813
15794TIP3    H168797   5.506   5.053  13.146 -1.8999 -1.0633 -0.1158
15794TIP3    H268798   5.497   5.108  13.286  0.3459  0.6213 -0.5711
15795TIP3   OH268799   6.193   3.062   3.972 -0.0165  0.1628  0.0038
15795TIP3    H168800   6.227   3.007   4.042 -0.9635 -0.1289  0.2490
15795TIP3    H268801   6.176   3.147   4.014 -1.9402 -0.4183  0.5238
15796TIP3   OH268802   2.169   6.014   1.569  0.0834 -0.5619 -0.1346
15796TIP3    H168803   2.121   5.931   1.574 -1.1905  0.1605  0.3450
15796TIP3    H268804   2.216   6.011   1.486 -0.7507 -1.3507 -0.5924
15797TIP3   OH268805   6.277   6.328   1.573 -0.0358 -0.0533  0.4275
15797TIP3    H168806   6.237   6.338   1.487  0.1697  2.2513  0.5395
15797TIP3    H268807   6.369   6.310   1.555  0.1872  1.2871  0.1293
15798TIP3   OH268808   5.468   0.509   0.377  0.5083  0.0353  0.0646
15798TIP3    H168809   5.473   0.446   0.305  0.4844 -1.8676  1.6410
15798TIP3    H268810   5.402   0.473   0.436 -1.3292  2.8244 -0.0642
15799TIP3   OH268811   4.018   5.061  16.885  0.2704  0.2091  0.8927
15799TIP3    H168812   4.100   5.062  16.934  0.6044 -0.3348  0.3541
15799TIP3    H268813   4.026   4.988  16.825  0.4103  1.6198 -0.8912
15800TIP3   OH268814   5.484   2.279   5.234  0.1647  0.1079  0.0894
15800TIP3    H168815   5.494   2.235   5.150 -1.0628 -0.9026  0.4330
15800TIP3    H268816   5.573   2.307   5.258  0.3904  1.3916 -2.0178
15801TIP3   OH268817   1.685   1.664  11.023  0.5515  0.1238  0.2738
15801TIP3    H168818   1.719   1.743  11.066 -0.5960  2.1288 -2.2597
15801TIP3    H268819   1.636   1.696  10.948 -3.2618 -2.8106  1.2007
15802TIP3   OH268820   5.167   5.046   5.321 -0.3780  0.3525 -0.8456
15802TIP3    H168821   5.089   5.101   5.330  0.8692  1.8227  2.1959
15802TIP3    H268822   5.240   5.107   5.325  1.0231 -1.1914 -1.5712
15803TIP3   OH268823   0.947   4.624   6.234  0.9605 -0.3099 -0.4447
15803TIP3    H168824   0.982   4.535   6.233 -1.7151 -1.4811  0.0112
15803TIP3    H268825   0.861   4.616   6.275  0.4301  2.4331 -0.7762
15804TIP3   OH268826   5.432   1.691  11.777  0.0310 -0.0593  0.3557
15804TIP3    H168827   5.444   1.632  11.702 -0.8537  1.9256 -1.4647
15804TIP3    H268828   5.337   1.701  11.784  0.1119 -0.0980  1.6917
15805TIP3   OH268829   5.181   0.661   1.478  0.0674  0.3172 -0.0151
15805TIP3    H168830   5.192   0.708   1.561  0.4026 -0.1261  0.1955
15805TIP3    H268831   5.267   0.666   1.436 -0.3343  1.3424 -0.7803
15806TIP3   OH268832   2.991   5.601   2.733 -0.4316  0.2516  0.2638
15806TIP3    H168833   2.993   5.620   2.827  0.3922 -1.9798  0.7510
15806TIP3    H268834   3.061   5.655   2.696 -0.6660  1.0387  0.9369
15807TIP3   OH268835   4.465   0.950  11.838  0.7382 -0.2160  0.1244
15807TIP3    H168836   4.432   1.027  11.792  1.8277  1.6125  2.1480
15807TIP3    H268837   4.399   0.931  11.904  1.0684 -0.1849  0.4671
15808TIP3   OH268838   0.916   2.087   4.546  0.0812  0.3703  0.3773
15808TIP3    H168839   0.981   2.017   4.544 -1.4214 -1.0934  1.0342
15808TIP3    H268840   0.940   2.144   4.473  1.0513 -1.0926 -0.4907
15809TIP3   OH268841   1.475   5.086  12.060 -0.2594  0.3532  0.6968
15809TIP3    H168842   1.508   4.997  12.046  0.5825  0.9288 -1.4115
15809TIP3    H268843   1.407   5.076  12.127 -0.3571 -1.9028  0.3445
15810TIP3   OH268844   3.805   5.285   3.103  0.3139 -0.0072  0.5017
15810TIP3    H168845   3.846   5.204   3.135  0.3941 -0.6028 -1.0188
15810TIP3    H268846   3.861   5.355   3.137  0.8415 -0.6539  0.9864
15811TIP3   OH268847   5.484   6.364   2.288 -0.6664 -0.5129  0.4307
15811TIP3    H168848   5.550   6.337   2.224 -1.1183  1.4739 -0.9573
15811TIP3    H268849   5.400   6.348   2.244 -0.9960  0.5703  0.6514
15812TIP3   OH268850   0.690   1.589  12.872  0.3422  0.2366  0.5698
15812TIP3    H168851   0.603   1.628  12.876 -0.5517 -1.2033 -2.3773
15812TIP3    H268852   0.684   1.510  12.925 -0.4028 -0.2222 -0.1720
15813TIP3   OH268853   0.335   4.362   0.534  0.0092 -0.0645  0.1282
15813TIP3    H168854   0.268   4.426   0.557 -0.5550 -0.5080 -0.2735
15813TIP3    H268855   0.306   4.326   0.450  1.2836  0.4960 -0.5809
15814TIP3   OH268856   3.801   2.552   1.254  0.1728 -0.8737  0.0650
15814TIP3    H168857   3.859   2.608   1.307 -1.6276  0.2848  0.9032
15814TIP3    H268858   3.819   2.464   1.285 -0.1994 -0.3061  2.0767
15815TIP3   OH268859   1.996   5.132  16.882 -0.1497  0.2040 -0.0966
15815TIP3    H168860   1.981   5.064  16.816  0.4122 -3.3197  3.0464
15815TIP3    H268861   1.909   5.156  16.912 -0.3335 -0.2660 -0.2463
15816TIP3   OH268862   4.969   2.005  13.943  0.4668  0.3144 -0.0168
15816TIP3    H168863   4.969   1.960  13.858  1.3544 -0.1009  0.1963
15816TIP3    H268864   4.928   1.943  14.003  2.6955 -0.7547  0.5226
15817TIP3   OH268865   2.703   0.979   2.123  0.0699  0.3094  0.4028
15817TIP3    H168866   2.714   0.951   2.214  1.3924  1.1904  0.5274
15817TIP3    H268867   2.611   0.960   2.104 -0.1658 -0.1155  1.8386
15818TIP3   OH268868   3.076   5.547   4.795 -0.1231  0.3629  0.3858
15818TIP3    H168869   3.027   5.525   4.716 -0.2318 -1.4198  0.9002
15818TIP3    H268870   3.068   5.642   4.803  0.3824  0.6838 -2.0474
15819TIP3   OH268871   0.400   0.783   2.688  0.4833  0.5582 -0.4002
15819TIP3    H168872   0.441   0.835   2.619  2.6286  0.9804  1.0741
15819TIP3    H268873   0.307   0.802   2.681  0.5646  0.3440 -3.3224
15820TIP3   OH268874   4.859   4.444   3.239 -0.2926 -0.2381  0.3519
15820TIP3    H168875   4.864   4.409   3.150  1.7725 -1.1560  0.7870
15820TIP3    H268876   4.917   4.520   3.239  0.0035 -0.4541  0.9906
15821TIP3   OH268877   5.828   4.257  15.835 -0.3114  0.3252  0.1787
15821TIP3    H168878   5.863   4.310  15.764  1.1158 -0.3834  0.3202
15821TIP3    H268879   5.901   4.247  15.896 -1.3067  0.3436  1.4206
15822TIP3   OH268880   6.489   0.756  16.175  0.5906  0.1941  0.3734
15822TIP3    H168881   6.441   0.779  16.095 -1.1719 -0.5619  1.1522
15822TIP3    H268882   6.577   0.791  16.161 -0.1799  1.6968 -1.1223
15823TIP3   OH268883   4.395   4.719   6.753 -0.3291  0.1957  0.3430
15823TIP3    H168884   4.428   4.630   6.737 -0.4115  0.1677  0.3303
15823TIP3    H268885   4.303   4.715   6.727 -0.4629  0.1538  0.8229
15824TIP3   OH268886   6.101   1.746   3.422  0.4643  0.2991 -0.1539
15824TIP3    H168887   6.115   1.829   3.375  0.2839  1.1979  1.3001
15824TIP3    H268888   6.173   1.690   3.393 -0.5642  0.1864 -2.7502
15825TIP3   OH268889   6.185   5.677  12.445  0.3240  0.1912  0.0834
15825TIP3    H168890   6.119   5.712  12.505 -0.2130 -0.9796  0.2009
15825TIP3    H268891   6.135   5.634  12.376  0.9230  1.7437 -1.3990
15826TIP3   OH268892   6.495   4.678   1.075 -0.0423  0.1130 -0.0899
15826TIP3    H168893   6.510   4.662   1.168  0.4549 -2.0356 -0.4930
15826TIP3    H268894   6.440   4.605   1.046  0.2177  0.4697 -1.5907
15827TIP3   OH268895   2.874   6.412  10.674 -0.2971  0.0640 -0.0998
15827TIP3    H168896   2.785   6.380  10.690  0.1383 -0.5617  1.1240
15827TIP3    H268897   2.868   6.455  10.588 -1.4325 -1.2567 -0.7182
15828TIP3   OH268898   5.734   6.441   2.106  0.4701 -0.4536  0.0138
15828TIP3    H168899   5.809   6.417   2.051  0.9376 -2.0607  1.2801
15828TIP3    H268900   5.765   6.517   2.157  0.1008  0.9160 -1.7007
15829TIP3   OH268901   1.941   6.666   0.392 -0.1509 -0.3613  0.0981
15829TIP3    H168902   1.937   6.761   0.401 -2.7234 -0.3848 -0.0371
15829TIP3    H268903   1.935   6.633   0.482  1.0016 -0.4217  0.1664
15830TIP3   OH268904   0.885   4.741   2.559 -0.0093 -0.4485 -0.0764
15830TIP3    H168905   0.819   4.728   2.627 -2.1588 -1.0574 -2.1758
15830TIP3    H268906   0.857   4.818   2.512  0.4198 -1.0709 -1.4011
15831TIP3   OH268907   6.196   3.278   1.298 -0.0582 -0.2486 -0.3806
15831TIP3    H168908   6.137   3.354   1.296  0.1946 -0.0397 -0.1123
15831TIP3    H268909   6.276   3.312   1.339  0.7796 -0.1480 -2.0398
15832TIP3   OH268910   1.316   6.293  14.999  0.2580 -0.4176 -0.2948
15832TIP3    H168911   1.331   6.230  15.069  1.1856  1.3257  1.1572
15832TIP3    H268912   1.288   6.240  14.924  0.8330 -2.5045  0.8991
15833TIP3   OH268913   5.117   0.181  13.251 -0.1803 -0.1263 -0.1918
15833TIP3    H168914   5.093   0.111  13.190  1.6303  0.8703 -2.1958
15833TIP3    H268915   5.212   0.171  13.262 -0.1318  1.0869  0.6704
15834TIP3   OH268916   1.417   5.402  12.215 -0.1127 -0.2580  0.1485
15834TIP3    H168917   1.423   5.333  12.281 -0.9636 -1.9882 -1.4897
15834TIP3    H268918   1.324   5.405  12.192  0.3534 -0.6968 -1.9473
15835TIP3   OH268919   2.292   4.653  13.686  0.0356 -0.0549  0.0370
15835TIP3    H168920   2.301   4.642  13.780  1.3122  1.0766  0.0814
15835TIP3    H268921   2.250   4.573  13.656  1.5992 -1.4114  1.2711
15836TIP3   OH268922   5.430   1.570  13.156  0.1112  0.6776 -0.4238
15836TIP3    H168923   5.524   1.556  13.149  0.2713  0.8651  0.9751
15836TIP3    H268924   5.391   1.485  13.137  0.6465  0.2633  0.2920
15837TIP3   OH268925   2.388   6.662  16.931  0.2156  0.5838 -0.2279
15837TIP3    H168926   2.389   6.607  17.010  2.5112 -2.1608 -1.9785
15837TIP3    H268927   2.441   6.738  16.955  2.0678 -0.8572  0.5428
15838TIP3   OH268928   0.223   6.061  16.447  0.0556 -0.2337  0.6485
15838TIP3    H168929   0.136   6.023  16.456  0.7209 -1.7043  1.0868
15838TIP3    H268930   0.206   6.153  16.424 -1.6204 -1.1264 -2.2714
15839TIP3   OH268931   3.229   5.643  14.051 -0.2068  0.1361  0.0565
15839TIP3    H168932   3.155   5.583  14.045  1.7881 -2.3823 -1.7610
15839TIP3    H268933   3.279   5.612  14.126  0.5614 -0.1925 -0.5735
15840TIP3   OH268934   0.556   4.648  14.472  0.2240 -0.2136  0.0454
15840TIP3    H168935   0.515   4.709  14.410 -0.0079  1.3902  1.7030
15840TIP3    H268936   0.630   4.612  14.424  0.9952  2.1598 -0.6894
15841TIP3   OH268937   4.083   1.153   4.472 -0.2530 -0.4638 -0.4306
15841TIP3    H168938   4.121   1.086   4.415 -0.2287  0.9519 -2.1652
15841TIP3    H268939   4.008   1.186   4.423  1.3753  2.7357 -0.9932
15842TIP3   OH268940   4.433   5.592   3.273 -0.1994 -0.6965  0.0614
15842TIP3    H168941   4.353   5.556   3.311 -0.8938 -0.1550 -0.8394
15842TIP3    H268942   4.403   5.666   3.220  0.9974  0.1042  0.4607
15843TIP3   OH268943   3.802   0.314  14.225  0.3592 -0.0643 -0.2305
15843TIP3    H168944   3.848   0.234  14.251  0.3012 -0.2084 -0.5573
15843TIP3    H268945   3.774   0.297  14.135  0.3980  0.3473 -0.3232
15844TIP3   OH268946   3.623   2.937   0.698  0.2513  0.6311 -0.4642
15844TIP3    H168947   3.694   2.997   0.720  0.3195  0.3422  0.1383
15844TIP3    H268948   3.580   2.920   0.782  0.6378 -0.6799 -0.5094
15845TIP3   OH268949   3.756   2.500  11.725 -0.8893 -0.3629 -0.0068
15845TIP3    H168950   3.751   2.505  11.821  1.0298  0.5744  0.1042
15845TIP3    H268951   3.669   2.473  11.698 -1.4658 -0.7426  2.0110
15846TIP3   OH268952   0.025   6.442  11.807  0.1509 -0.1586 -0.3144
15846TIP3    H168953  -0.056   6.410  11.766 -0.9735  1.7735  0.2763
15846TIP3    H268954   0.023   6.405  11.896 -0.4657  0.4581 -0.0649
15847TIP3   OH268955   0.843   6.032  12.655 -0.8068  0.2119  0.4430
15847TIP3    H168956   0.774   5.974  12.687 -0.7240  0.3574  0.8982
15847TIP3    H268957   0.893   6.055  12.733  0.8737 -1.3548 -0.1087
15848TIP3   OH268958   4.130   6.245   5.897 -0.3274 -0.3419  0.8265
15848TIP3    H168959   4.174   6.203   5.823 -2.4409  0.9199 -1.2956
15848TIP3    H268960   4.134   6.181   5.968  2.1991 -1.4138 -0.1685
15849TIP3   OH268961   1.152   3.677  17.056  0.1621 -0.2906 -0.2409
15849TIP3    H168962   1.123   3.716  17.138  1.7484 -1.2269  0.8261
15849TIP3    H268963   1.084   3.613  17.034 -0.6968  0.5630 -0.1380
15850TIP3   OH268964   5.619   5.638  14.221  0.3235 -0.1768 -0.1289
15850TIP3    H168965   5.547   5.575  14.226 -1.8183  1.8264 -2.8710
15850TIP3    H268966   5.598   5.704  14.286 -0.0535  0.1564 -0.5880
15851TIP3   OH268967   4.804   4.571   5.784 -0.1943 -0.0212  0.1058
15851TIP3    H168968   4.858   4.509   5.734 -0.1321 -0.5501  0.8216
15851TIP3    H268969   4.721   4.525   5.797  0.5383 -0.8450  2.4260
15852TIP3   OH268970   5.764   0.066  12.984 -0.8219 -0.1514  0.5756
15852TIP3    H168971   5.671   0.087  12.981 -0.4251  2.3912  2.8331
15852TIP3    H268972   5.783   0.051  13.076  1.0543 -0.5332  0.1806
15853TIP3   OH268973   3.252   6.506   3.715  0.0761  0.1813 -0.2205
15853TIP3    H168974   3.257   6.578   3.777  2.7370 -0.5259  0.5085
15853TIP3    H268975   3.302   6.537   3.639 -0.0425 -0.3422 -0.5164
15854TIP3   OH268976   1.984   2.574   5.864 -0.0945 -0.0932  0.5501
15854TIP3    H168977   2.040   2.582   5.941 -1.6160  0.7432  1.6431
15854TIP3    H268978   1.935   2.656   5.862  0.0153 -0.0270 -1.4375
15855TIP3   OH268979   6.335   2.893  16.030 -0.1854 -0.2948  0.0543
15855TIP3    H168980   6.258   2.905  16.085 -0.7456 -0.3119 -0.7037
15855TIP3    H268981   6.399   2.850  16.086 -0.8196 -0.5017  0.6255
15856TIP3   OH268982   3.639   6.135  14.905 -0.6022  0.0351 -0.1311
15856TIP3    H168983   3.637   6.167  14.996  0.3074 -1.9301  0.6293
15856TIP3    H268984   3.574   6.065  14.903 -0.8867  0.3185 -1.1143
15857TIP3   OH268985   3.686   2.663   5.682  0.4253 -0.3675  0.1495
15857TIP3    H168986   3.745   2.709   5.742 -0.5746  1.0151  0.1008
15857TIP3    H268987   3.716   2.689   5.595 -0.7858  1.0805  0.1332
15858TIP3   OH268988   1.145   4.360   1.743 -0.6208 -0.1120  0.1317
15858TIP3    H168989   1.097   4.286   1.781  1.4753 -1.3771  0.5223
15858TIP3    H268990   1.223   4.319   1.704  0.7589  1.9187  0.6217
15859TIP3   OH268991   3.992   6.562   5.020  0.4099  0.3822 -0.1879
15859TIP3    H168992   3.905   6.592   4.995 -0.3653 -0.0279  1.9016
15859TIP3    H268993   3.981   6.470   5.043  1.3390  0.3902  0.3641
15860TIP3   OH268994   2.347   6.687  14.670  0.1802  0.3527 -0.2794
15860TIP3    H168995   2.440   6.671  14.687  0.6296  2.3309 -0.6308
15860TIP3    H268996   2.344   6.717  14.579 -0.6748  1.1368 -0.0086
15861TIP3   OH268997   4.347   5.112  15.971  0.1934  0.0331 -0.5512
15861TIP3    H168998   4.350   5.047  16.041 -2.3244 -0.7445 -1.0398
15861TIP3    H268999   4.287   5.180  16.004 -2.5168 -1.2227 -2.4901
15862TIP3   OH269000   1.453   0.120  11.405  1.0459 -0.6177 -0.2893
15862TIP3    H169001   1.474   0.210  11.431 -0.9528 -0.0172 -0.5888
15862TIP3    H269002   1.469   0.117  11.311 -1.9926  0.4851 -0.9440
15863TIP3   OH269003   2.416   0.395   4.487 -0.1036  0.3380 -0.2443
15863TIP3    H169004   2.507   0.383   4.512  0.1275  1.2773 -0.6142
15863TIP3    H269005   2.411   0.484   4.453 -1.4518  0.8497  1.1334
15864TIP3   OH269006   6.764   1.469   4.506 -0.0670 -0.0547  0.3142
15864TIP3    H169007   6.771   1.564   4.506 -0.9963  0.0413  1.4973
15864TIP3    H269008   6.850   1.439   4.537  0.9518  0.2644 -1.9918
15865TIP3   OH269009   6.040   1.588   5.452  0.2836  0.2174 -0.0560
15865TIP3    H169010   6.010   1.563   5.539  0.4841  0.3281  0.0461
15865TIP3    H269011   6.034   1.508   5.400 -1.5589  0.5462 -0.4237
15866TIP3   OH269012   0.101   6.334   3.471 -0.3380  0.2171 -0.3712
15866TIP3    H169013   0.086   6.258   3.527 -0.4735 -0.6446 -1.5446
15866TIP3    H269014   0.021   6.385   3.476 -0.5314 -0.1078 -0.1690
15867TIP3   OH269015   4.359   5.103  13.490  0.0293  0.3502  0.1542
15867TIP3    H169016   4.336   5.113  13.398  1.5078  1.8690 -0.0991
15867TIP3    H269017   4.430   5.040  13.491  0.5744  0.9571  0.1518
15868TIP3   OH269018   3.836   6.096   4.228  0.4769 -0.2449 -0.1831
15868TIP3    H169019   3.844   6.191   4.229 -0.1207 -0.1923  0.6595
15868TIP3    H269020   3.841   6.072   4.135  1.0558  0.5634 -0.3659
15869TIP3   OH269021   1.414   0.575   0.922  0.2534 -0.8646 -0.5879
15869TIP3    H169022   1.504   0.545   0.934 -0.0671 -1.5995  0.0433
15869TIP3    H269023   1.364   0.529   0.989 -0.6713 -0.8095 -1.2229
15870TIP3   OH269024   5.053   2.237  14.065  0.1078  0.1907 -0.3749
15870TIP3    H169025   5.047   2.142  14.072  0.0745  0.1678 -0.6940
15870TIP3    H269026   5.115   2.252  13.995 -0.2218  0.3994 -0.6260
15871TIP3   OH269027   5.945   0.486  11.328 -0.3013 -0.1437  0.0501
15871TIP3    H169028   5.966   0.398  11.297 -1.3204 -0.1432 -0.6830
15871TIP3    H269029   5.906   0.530  11.253 -0.6664  0.6280  0.6697
15872TIP3   OH269030   0.231   5.650  15.696  0.1973 -0.2770 -0.2804
15872TIP3    H169031   0.171   5.590  15.741  2.5893 -1.8524  1.0331
15872TIP3    H269032   0.184   5.733  15.692 -1.9778 -1.3796  0.8090
15873TIP3   OH269033   6.086   4.024   6.511 -0.3681 -0.3404 -0.3454
15873TIP3    H169034   6.144   4.099   6.517 -1.7133  1.1282 -3.5043
15873TIP3    H269035   6.138   3.955   6.469  0.0306 -0.1874 -0.1021
15874TIP3   OH269036   2.312   3.282  10.243  0.8583  0.1254 -0.1341
15874TIP3    H169037   2.370   3.263  10.317  1.1086  0.5685 -0.2133
15874TIP3    H269038   2.368   3.272  10.166  0.6919  0.0263 -0.2417
15875TIP3   OH269039   1.957   4.998  16.120 -0.2913  0.2327  0.1318
15875TIP3    H169040   2.008   5.044  16.054  1.8174 -1.3665  0.5314
15875TIP3    H269041   1.919   4.924  16.072 -1.0038  0.5772  0.1587
15876TIP3   OH269042   0.167   1.904   5.581 -0.4983 -0.4415 -0.1064
15876TIP3    H169043   0.254   1.943   5.593  0.8500 -2.3221 -2.9049
15876TIP3    H269044   0.175   1.817   5.619 -0.4226 -1.3945 -2.1830
15877TIP3   OH269045   0.674   2.257   4.780 -0.1190  0.0009  0.2046
15877TIP3    H169046   0.753   2.280   4.830 -0.2221  1.7946 -0.3964
15877TIP3    H269047   0.677   2.313   4.703 -0.7604 -1.6277 -1.0636
15878TIP3   OH269048   2.064   0.112  15.387  0.7930  0.1620  0.1391
15878TIP3    H169049   2.087   0.165  15.311  0.2555 -1.0245 -0.8860
15878TIP3    H269050   2.096   0.025  15.366 -1.5730 -0.7812  0.0989
15879TIP3   OH269051   0.281   2.080  11.388 -0.1756  0.0523  0.3296
15879TIP3    H169052   0.264   2.174  11.401 -1.0854 -0.0218 -0.2249
15879TIP3    H269053   0.257   2.064  11.297  2.5044 -0.1965 -0.4072
15880TIP3   OH269054   0.399   6.436   0.041  0.6763 -0.0603  0.1483
15880TIP3    H169055   0.349   6.355   0.033 -0.6810  0.8213 -0.7979
15880TIP3    H269056   0.488   6.411   0.019  0.2325 -1.2510 -0.4148
15881TIP3   OH269057   4.082   1.391  16.916  0.0671 -0.4127 -0.5441
15881TIP3    H169058   4.151   1.458  16.920  0.1143 -0.4329 -0.9614
15881TIP3    H269059   4.001   1.441  16.906 -0.1021 -0.3391  0.8940
15882TIP3   OH269060   5.236   3.304   1.959 -0.4068 -0.5618 -0.0855
15882TIP3    H169061   5.292   3.380   1.972  0.2517 -0.6659 -2.0368
15882TIP3    H269062   5.149   3.340   1.944 -0.4041 -0.2896  0.5096
15883TIP3   OH269063   5.300   3.961   3.236 -0.0347 -0.4134 -0.2570
15883TIP3    H169064   5.243   3.884   3.241  0.2194 -0.5393  1.0028
15883TIP3    H269065   5.240   4.036   3.237 -0.2204 -0.5054  2.1496
15884TIP3   OH269066   0.224   4.315   0.292  0.1640  0.1983  0.7817
15884TIP3    H169067   0.287   4.305   0.220  0.6641  1.3882  1.0376
15884TIP3    H269068   0.147   4.265   0.263  0.4257  0.4950 -0.5043
15885TIP3   OH269069   5.811   3.498  17.143  0.0907  0.2896  0.1053
15885TIP3    H169070   5.895   3.470  17.179  0.9540  1.5649 -0.8234
15885TIP3    H269071   5.764   3.416  17.128  0.2885 -0.3681  2.5726
15886TIP3   OH269072   0.305   2.495  16.055 -0.4487  0.0024  0.6241
15886TIP3    H169073   0.386   2.451  16.029  0.5244  1.4369  1.1150
15886TIP3    H269074   0.294   2.474  16.148  0.2342  1.0799  0.9620
15887TIP3   OH269075   6.297   5.914  14.692  0.1081  0.0435 -0.3539
15887TIP3    H169076   6.299   5.899  14.598 -0.8113 -1.0742 -0.2203
15887TIP3    H269077   6.210   5.949  14.709  0.5312  0.9407 -0.0069
15888TIP3   OH269078   0.576   0.978  11.328 -0.5500 -0.1272  0.4800
15888TIP3    H169079   0.497   0.962  11.276 -1.7819  2.2054  1.5064
15888TIP3    H269080   0.581   0.902  11.386 -1.6703 -0.6092 -0.0142
15889TIP3   OH269081   0.219   1.366   5.769  0.1377 -0.1177  0.1909
15889TIP3    H169082   0.181   1.347   5.854  0.4181  0.8521  0.5441
15889TIP3    H269083   0.304   1.323   5.770  0.3337  0.2720  0.5877
15890TIP3   OH269084   5.632   4.347  10.583 -0.5463 -0.6307  0.2921
15890TIP3    H169085   5.543   4.372  10.558  0.0161  1.2517  0.0026
15890TIP3    H269086   5.635   4.360  10.677 -0.2537  0.5487  0.1432
15891TIP3   OH269087   3.588   2.910  16.058  0.1203  0.2337  0.2340
15891TIP3    H169088   3.660   2.959  16.017  0.2315 -0.3313 -0.2497
15891TIP3    H269089   3.611   2.818  16.046 -1.9233 -0.0461 -2.2200
15892TIP3   OH269090   3.080   4.988   5.333 -0.6837 -0.6460  0.3435
15892TIP3    H169091   3.109   5.074   5.304 -1.9283 -1.2958 -3.2597
15892TIP3    H269092   2.987   5.000   5.355 -0.9212 -1.0621 -0.3857
15893TIP3   OH269093   2.204   6.574   2.441  0.2374 -0.1114 -0.0177
15893TIP3    H169094   2.181   6.483   2.423  2.4663 -0.7531  0.0917
15893TIP3    H269095   2.294   6.570   2.473 -0.9078  1.7221  4.0527
15894TIP3   OH269096   4.118   1.547  14.079 -0.5856 -0.2604  0.0242
15894TIP3    H169097   4.160   1.564  14.163 -1.1356  1.4840 -0.0189
15894TIP3    H269098   4.026   1.530  14.100 -0.8317  0.6904 -0.2559
15895TIP3   OH269099   2.697   2.075   2.271  0.3795  0.4875 -0.6226
15895TIP3    H169100   2.650   2.019   2.210  0.8116 -0.5446 -0.0269
15895TIP3    H269101   2.786   2.039   2.274  0.1735  0.0204  1.1679
15896TIP3   OH269102   2.139   3.346  15.773  0.3170  0.4777 -0.0055
15896TIP3    H169103   2.155   3.419  15.712 -0.1896 -0.4016 -1.2293
15896TIP3    H269104   2.146   3.268  15.719 -1.1713 -0.2832  0.8507
15897TIP3   OH269105   2.575   2.820  12.094 -0.1270 -0.0184  0.1847
15897TIP3    H169106   2.529   2.769  12.028 -0.8307  2.1970 -1.1351
15897TIP3    H269107   2.611   2.755  12.154 -2.1412 -1.9772 -0.6044
15898TIP3   OH269108   2.890   1.394  17.074  0.1288  0.0704 -0.4739
15898TIP3    H169109   2.938   1.476  17.062 -0.3929  0.4503 -0.0077
15898TIP3    H269110   2.837   1.386  16.995  0.1776  0.1800 -0.5184
15899TIP3   OH269111   2.203   2.070  11.038 -0.5945  0.2553 -0.2973
15899TIP3    H169112   2.147   2.110  10.971 -2.4666  0.8839  1.5195
15899TIP3    H269113   2.287   2.115  11.028 -0.9907  0.7556 -1.8106
15900TIP3   OH269114   4.198   1.208  13.168  0.2079 -0.1358  0.7660
15900TIP3    H169115   4.145   1.242  13.241 -1.3230 -1.3523  0.2688
15900TIP3    H269116   4.252   1.283  13.142 -1.8498  1.4625  0.7873
15901TIP3   OH269117   0.049   6.074   6.321  0.3379  0.2460 -0.2509
15901TIP3    H169118   0.101   6.154   6.329  1.2177 -0.2463 -0.8715
15901TIP3    H269119   0.009   6.064   6.407  0.4340  1.2042 -0.0788
15902TIP3   OH269120   0.503   4.964   3.760  0.0357 -0.1066  0.1876
15902TIP3    H169121   0.418   4.925   3.779 -0.4339  0.8599  0.1276
15902TIP3    H269122   0.567   4.900   3.792 -0.6839 -1.4014 -0.8816
15903TIP3   OH269123   5.445   1.060   1.102 -0.0266  0.6485  0.5953
15903TIP3    H169124   5.383   1.089   1.169 -0.0013  1.1946  0.3852
15903TIP3    H269125   5.398   0.993   1.053 -0.1913  0.5425  0.8935
15904TIP3   OH269126   4.580   3.972   4.730 -0.2162 -0.3771  0.1930
15904TIP3    H169127   4.674   3.973   4.709 -0.1306 -0.2020  0.5669
15904TIP3    H269128   4.571   3.903   4.795 -0.1474  0.3759  1.0172
15905TIP3   OH269129   3.384   6.235   2.551  0.2176  0.5722  0.0182
15905TIP3    H169130   3.468   6.194   2.532 -0.4076 -1.4582  1.2980
15905TIP3    H269131   3.371   6.297   2.479  2.1688 -0.0351 -0.9353
15906TIP3   OH269132   6.151   2.664   5.341 -0.1875  0.5137 -0.1020
15906TIP3    H169133   6.092   2.714   5.399 -0.8304  0.7990 -0.9834
15906TIP3    H269134   6.188   2.597   5.398 -1.9471 -0.1613  0.3238
15907TIP3   OH269135   0.694   2.160   5.420 -0.3906 -0.2559 -0.7590
15907TIP3    H169136   0.639   2.119   5.353  0.6360 -1.5062 -0.8790
15907TIP3    H269137   0.705   2.250   5.390 -2.1555 -0.0182 -0.8446
15908TIP3   OH269138   1.563   1.285   3.101 -0.2848  0.4005 -1.0355
15908TIP3    H169139   1.512   1.320   3.175  1.4568  0.4163  0.2303
15908TIP3    H269140   1.498   1.270   3.032 -2.1537 -0.4921  0.7956
15909TIP3   OH269141   3.502   2.880   4.900  0.2702 -0.2730 -0.6607
15909TIP3    H169142   3.541   2.964   4.877  0.5801 -0.5926 -1.3352
15909TIP3    H269143   3.410   2.900   4.918  0.7250  0.4976  1.0200
15910TIP3   OH269144   6.383   2.166   3.067 -0.3838 -0.1496 -0.4111
15910TIP3    H169145   6.354   2.232   3.005  1.0010  0.6073 -0.2763
15910TIP3    H269146   6.478   2.174   3.068 -0.2259 -1.7666  0.0325
15911TIP3   OH269147   0.101   0.165  13.185 -0.2648 -0.1488  0.1085
15911TIP3    H169148   0.131   0.133  13.270 -0.7649 -0.6442  0.1013
15911TIP3    H269149   0.180   0.200  13.144 -0.1707  0.8351  1.1022
15912TIP3   OH269150   6.202   5.506   0.896  0.2412 -0.0387  0.1944
15912TIP3    H169151   6.280   5.456   0.871  0.5273  0.6905 -0.3717
15912TIP3    H269152   6.180   5.558   0.819 -0.1291  0.6244  0.7334
15913TIP3   OH269153   3.966   1.032  16.101  0.0736 -0.0061  0.2013
15913TIP3    H169154   3.904   0.959  16.100 -0.2550  0.2706 -0.1566
15913TIP3    H269155   4.049   0.994  16.073  0.4833 -0.7242  2.2057
15914TIP3   OH269156   0.034   3.610  14.692  0.0634  0.1133 -0.3551
15914TIP3    H169157   0.061   3.701  14.674 -1.0067  0.1698 -1.7587
15914TIP3    H269158  -0.053   3.603  14.655 -0.0206 -1.4006  0.0901
15915TIP3   OH269159   2.127   3.072  16.598  0.1029  0.5138 -0.0408
15915TIP3    H169160   2.136   2.985  16.637 -1.5841 -0.1263 -0.9638
15915TIP3    H269161   2.192   3.126  16.642  0.2407 -0.8836  1.5330
15916TIP3   OH269162   0.942   0.715  14.873  0.1019  0.7471 -0.2853
15916TIP3    H169163   0.968   0.651  14.807  0.4848  2.6860 -2.1366
15916TIP3    H269164   1.024   0.756  14.901 -0.2878  1.6915 -0.4981
15917TIP3   OH269165   2.803   6.394   2.683 -0.1794  0.7023  0.1731
15917TIP3    H169166   2.820   6.390   2.778  2.4872  2.2248 -0.1567
15917TIP3    H269167   2.884   6.363   2.643 -0.5494  1.8989 -1.6083
15918TIP3   OH269168   1.132   1.273   1.158  0.0788  0.0316  0.1471
15918TIP3    H169169   1.101   1.324   1.083 -0.9648 -2.8992 -1.5831
15918TIP3    H269170   1.054   1.259   1.212 -0.6313 -2.7506 -1.3854
15919TIP3   OH269171   3.611   2.130   0.693 -0.6980  0.3283 -0.0740
15919TIP3    H169172   3.623   2.135   0.788 -1.0563  0.8259 -0.0485
15919TIP3    H269173   3.564   2.048   0.679 -2.8461  1.3973  0.4371
15920TIP3   OH269174   2.659   6.681  15.256  0.2377 -0.0950 -0.4661
15920TIP3    H169175   2.707   6.760  15.279  0.4156 -0.1647 -0.5958
15920TIP3    H269176   2.603   6.663  15.332  0.2891  0.0831 -0.3862
15921TIP3   OH269177   2.783   5.029   4.269 -0.5772  0.3129 -0.2788
15921TIP3    H169178   2.874   5.029   4.298 -0.7864 -0.0347  0.4015
15921TIP3    H269179   2.732   5.025   4.351 -1.1888 -0.5797 -0.6927
15922TIP3   OH269180   0.174   0.917  16.094 -0.0071 -0.0985  0.0854
15922TIP3    H169181   0.144   0.999  16.054 -1.3858 -1.3986 -1.7519
15922TIP3    H269182   0.245   0.888  16.038  0.5076 -0.1550  0.7585
15923TIP3   OH269183   0.365   6.650  13.414 -0.2888 -0.2357  0.1814
15923TIP3    H169184   0.346   6.743  13.422  0.4964  0.1220 -1.5541
15923TIP3    H269185   0.291   6.606  13.457 -0.0501  1.1600  2.1417
15924TIP3   OH269186   5.888   4.256  12.030  0.2213 -0.3017 -0.4073
15924TIP3    H169187   5.895   4.300  11.946 -0.0594 -1.5679 -1.1261
15924TIP3    H269188   5.975   4.217  12.044  0.0296 -0.7659 -0.5031
15925TIP3   OH269189   1.487   4.482   0.563 -0.2326 -0.4865 -0.3377
15925TIP3    H169190   1.563   4.464   0.507  1.4088  2.5836  0.6822
15925TIP3    H269191   1.428   4.534   0.508 -0.0766 -0.1270 -0.1684
15926TIP3   OH269192   3.752   6.252   3.778  0.4408 -0.0148  0.4302
15926TIP3    H169193   3.784   6.294   3.857 -0.0069 -0.5190  0.8873
15926TIP3    H269194   3.817   6.273   3.711 -0.4501  2.5839  0.2670
15927TIP3   OH269195   3.731   3.511   4.746  0.1259  0.1382 -0.0496
15927TIP3    H169196   3.723   3.590   4.693 -2.5556 -0.0931 -0.1261
15927TIP3    H269197   3.684   3.444   4.696  0.7384 -1.0439  0.9052
15928TIP3   OH269198   5.792   6.586   4.347 -0.0222  0.1318 -0.1612
15928TIP3    H169199   5.864   6.573   4.286 -0.4384 -0.1715 -0.5965
15928TIP3    H269200   5.743   6.660   4.311  0.9286  1.3582  0.9661
15929TIP3   OH269201   1.830   1.063   0.126  0.0707 -0.5696  0.1343
15929TIP3    H169202   1.837   1.017   0.042 -0.0187 -1.5823  0.6620
15929TIP3    H269203   1.906   1.032   0.176  0.6202  0.7066  0.1263
15930TIP3   OH269204   2.274   6.520  10.712 -0.2864  0.0221  0.4718
15930TIP3    H169205   2.212   6.455  10.678 -1.0785  1.0109 -0.0104
15930TIP3    H269206   2.231   6.556  10.790 -0.2684  0.6245  0.2070
15931TIP3   OH269207   0.176   1.859   2.029 -0.1701 -0.3916  0.1062
15931TIP3    H169208   0.182   1.955   2.029  0.8421 -0.4433 -0.1998
15931TIP3    H269209   0.082   1.841   2.027 -0.3699  0.6051 -1.0451
15932TIP3   OH269210   2.580   1.292   4.921 -0.2287 -0.2766 -0.4062
15932TIP3    H169211   2.492   1.255   4.920  0.1991 -1.3104 -0.8286
15932TIP3    H269212   2.635   1.225   4.882  1.0283 -0.3401  1.3506
15933TIP3   OH269213   5.533   0.679  11.246  1.1434  0.0275 -0.0685
15933TIP3    H169214   5.478   0.729  11.185  1.1262 -0.5031 -0.4900
15933TIP3    H269215   5.579   0.746  11.297 -0.7293  0.5393  1.0921
15934TIP3   OH269216   3.840   4.285   4.967  0.6425 -0.0541  0.5008
15934TIP3    H169217   3.762   4.244   5.004  0.6182  0.2328  0.7680
15934TIP3    H269218   3.807   4.362   4.921  0.4838 -1.1786 -1.3882
15935TIP3   OH269219   5.287   3.756  13.662  0.0617 -0.1684 -0.0372
15935TIP3    H169220   5.315   3.835  13.708 -1.2487 -0.1114  0.6913
15935TIP3    H269221   5.195   3.770  13.643 -0.4442 -1.8806  0.9234
15936TIP3   OH269222   3.189   4.024  11.985 -0.4587 -0.3331 -0.3293
15936TIP3    H169223   3.241   4.022  12.066 -0.9792  1.2309  0.0766
15936TIP3    H269224   3.192   4.116  11.957 -1.2647 -0.6310 -1.4602
15937TIP3   OH269225   1.983   6.367  14.640 -0.5991  0.1759  0.1068
15937TIP3    H169226   2.072   6.397  14.621 -1.0967  0.9582 -1.1366
15937TIP3    H269227   1.927   6.430  14.595 -1.7539 -1.2889 -0.5862
15938TIP3   OH269228   6.518   4.067   0.453  0.2950  0.1343 -0.5196
15938TIP3    H169229   6.576   3.992   0.464  1.4151  1.1555  0.7637
15938TIP3    H269230   6.493   4.063   0.360  1.7781 -0.7840 -0.9288
15939TIP3   OH269231   4.996   5.142   0.016  0.1022  0.7273 -0.1764
15939TIP3    H169232   4.905   5.122  -0.006 -0.3314 -0.4523  2.2485
15939TIP3    H269233   4.991   5.224   0.065  0.2669  0.4567  0.3009
15940TIP3   OH269234   5.850   4.366  11.483  0.1040  0.2097  0.0478
15940TIP3    H169235   5.814   4.278  11.472  0.6457 -0.0222  0.1510
15940TIP3    H269236   5.932   4.354  11.529 -0.0058  0.8070  0.4126
15941TIP3   OH269237   5.348   1.801   4.029  0.2308  0.1969 -0.5170
15941TIP3    H169238   5.348   1.784   4.123 -2.5224  1.4418 -0.1944
15941TIP3    H269239   5.362   1.715   3.989 -0.8380 -0.7459  1.0324
15942TIP3   OH269240   1.238   6.637  10.981  0.1514  0.0818 -0.5164
15942TIP3    H169241   1.195   6.628  10.896  0.7427 -1.1027 -0.7133
15942TIP3    H269242   1.171   6.673  11.039 -0.6635 -0.3526 -1.1743
15943TIP3   OH269243   2.709   2.327   2.374  0.0513 -0.4549 -0.2259
15943TIP3    H169244   2.705   2.236   2.347  0.2268 -0.3048 -0.7582
15943TIP3    H269245   2.791   2.334   2.423 -0.1981 -0.6902  0.2379
15944TIP3   OH269246   2.749   1.214   2.688  0.7204 -0.5155 -0.1236
15944TIP3    H169247   2.654   1.209   2.684  0.6669 -0.5787  0.9767
15944TIP3    H269248   2.775   1.246   2.601 -0.3364  0.0853 -0.2375
15945TIP3   OH269249   4.433   5.511  12.632  0.5604  0.0072 -0.1416
15945TIP3    H169250   4.472   5.506  12.719  0.1347 -0.7872  0.0111
15945TIP3    H269251   4.461   5.596  12.598  0.7625  0.3050  0.7523
15946TIP3   OH269252   4.859   2.969   4.268 -0.1683  0.1569  0.8084
15946TIP3    H169253   4.838   2.914   4.343 -0.2209 -0.7031  0.1860
15946TIP3    H269254   4.793   2.946   4.202  0.5597  0.0476  0.0986
15947TIP3   OH269255   0.150   6.625   1.755 -0.1209 -0.1594 -0.0435
15947TIP3    H169256   0.187   6.561   1.816 -2.5281 -0.9664  0.6632
15947TIP3    H269257   0.170   6.710   1.793  1.5269 -0.4979 -0.0546
15948TIP3   OH269258   0.841   3.014   2.990 -0.1536  0.3035  0.2463
15948TIP3    H169259   0.857   2.999   3.083  0.8340 -2.7271 -0.3161
15948TIP3    H269260   0.751   2.985   2.976 -0.3099  0.7812  0.2531
15949TIP3   OH269261   2.874   1.436   3.254 -0.2399 -0.3627 -0.6985
15949TIP3    H169262   2.786   1.466   3.229  0.1235  1.1788 -0.2823
15949TIP3    H269263   2.872   1.433   3.349 -0.1453 -1.3502 -0.7226
15950TIP3   OH269264   2.719   1.264  14.233  0.0914  0.4681  0.1563
15950TIP3    H169265   2.635   1.278  14.189  0.5499  2.3387 -0.2084
15950TIP3    H269266   2.706   1.302  14.320 -0.4809 -2.2805  1.3437
15951TIP3   OH269267   1.886   4.298  16.763 -0.0612 -0.0132 -0.5193
15951TIP3    H169268   1.851   4.290  16.674 -0.0057  0.2162 -0.5604
15951TIP3    H269269   1.860   4.216  16.806 -0.9658  0.3065 -0.4345
15952TIP3   OH269270   0.432   2.782  16.675 -0.6442  0.1999 -0.6668
15952TIP3    H169271   0.497   2.765  16.742 -2.4827 -1.5767  0.7870
15952TIP3    H269272   0.442   2.710  16.613 -2.4308 -1.2572  0.6275
15953TIP3   OH269273   3.291   4.218   2.450  0.2909  0.5484  0.1599
15953TIP3    H169274   3.314   4.138   2.496 -0.2740  0.1189 -0.2968
15953TIP3    H269275   3.227   4.191   2.384  0.9315  1.1873 -0.7436
15954TIP3   OH269276   0.311   4.211  13.365  0.4541  0.2250 -0.1119
15954TIP3    H169277   0.276   4.192  13.278  0.0834  0.2393  0.0328
15954TIP3    H269278   0.234   4.225  13.420  0.6747 -0.3005  0.3425
15955TIP3   OH269279   5.642   5.860   3.276 -0.6805 -0.5365  0.1300
15955TIP3    H169280   5.600   5.842   3.191 -0.4394  1.9657 -0.5908
15955TIP3    H269281   5.597   5.937   3.309 -0.2508 -1.0255  1.9587
15956TIP3   OH269282   5.769   1.966   6.050 -0.0786 -0.0851 -0.4822
15956TIP3    H169283   5.832   1.898   6.074 -0.0592 -0.0257 -0.3610
15956TIP3    H269284   5.768   2.024   6.126 -1.2215 -0.7662  0.0473
15957TIP3   OH269285   5.030   0.660  14.289 -0.3927 -0.4769 -0.6398
15957TIP3    H169286   5.040   0.719  14.214  0.8275 -0.0210 -0.1468
15957TIP3    H269287   4.935   0.646  14.296 -0.7139  1.3680 -0.8136
15958TIP3   OH269288   1.838   6.164   5.878  0.8756 -0.1446  0.0834
15958TIP3    H169289   1.803   6.244   5.915 -0.5137 -0.5395 -0.2992
15958TIP3    H269290   1.899   6.131   5.944  1.5910  1.2959  0.1630
15959TIP3   OH269291   6.187   3.133  13.055  0.1350  0.2663  0.4369
15959TIP3    H169292   6.281   3.127  13.040  0.0934  0.2415  0.1827
15959TIP3    H269293   6.163   3.051  13.097  0.0294 -0.2275 -0.5503
15960TIP3   OH269294   4.975   5.440  15.782 -0.0251  0.4181 -0.0083
15960TIP3    H169295   5.037   5.512  15.792 -0.1887  0.6193 -0.4219
15960TIP3    H269296   4.925   5.439  15.864 -0.2948  1.0338 -0.1647
15961TIP3   OH269297   4.704   2.276   0.955 -0.2086  0.3650  0.0361
15961TIP3    H169298   4.650   2.204   0.988 -1.1105  0.6080 -0.8509
15961TIP3    H269299   4.641   2.345   0.933  0.4972  0.8227 -0.6012
15962TIP3   OH269300   1.243   4.210   6.338  0.0692 -0.1186 -0.3793
15962TIP3    H169301   1.221   4.131   6.289 -0.3211 -0.7723  0.8133
15962TIP3    H269302   1.337   4.201   6.357  0.3305  0.3637 -1.3790
15963TIP3   OH269303   3.756   0.959  16.523  0.3662  0.1274 -0.4576
15963TIP3    H169304   3.749   1.003  16.608  0.3165 -1.5320  0.4399
15963TIP3    H269305   3.799   1.023  16.466 -0.1152  1.4846  0.6484
15964TIP3   OH269306   4.651   2.919   0.260  0.8687 -0.1309  0.4438
15964TIP3    H169307   4.647   2.847   0.196 -0.2897  0.3502 -0.0578
15964TIP3    H269308   4.743   2.922   0.287  1.6813  0.4272 -2.1092
15965TIP3   OH269309   3.749   2.696   4.401 -0.0750 -0.4168  0.2594
15965TIP3    H169310   3.829   2.644   4.408 -0.4334 -0.8577  1.5961
15965TIP3    H269311   3.694   2.647   4.340  0.6709 -0.0901 -0.6977
15966TIP3   OH269312   5.010   3.056  16.685 -0.2771 -0.1468  0.2312
15966TIP3    H169313   5.014   3.140  16.640 -0.2252  0.5571  1.4913
15966TIP3    H269314   5.071   3.064  16.758 -2.0894 -0.3225  1.8579
15967TIP3   OH269315   0.962   6.386   6.221  0.3306 -0.1282  0.0012
15967TIP3    H169316   1.046   6.417   6.254  0.7242 -1.3741  0.2044
15967TIP3    H269317   0.897   6.433   6.273  0.9026  0.4256  0.2249
15968TIP3   OH269318   5.158   3.076   3.618 -0.6565  0.1702  0.3878
15968TIP3    H169319   5.131   3.061   3.527  0.1189  0.2922  0.1291
15968TIP3    H269320   5.146   3.170   3.631  1.0679  0.5049 -0.2252
15969TIP3   OH269321   2.861   1.392   6.447  0.3170  0.2932 -0.1118
15969TIP3    H169322   2.822   1.478   6.462 -0.0952 -0.0191  0.6950
15969TIP3    H269323   2.864   1.352   6.534 -0.3263 -0.8440 -0.5918
15970TIP3   OH269324   3.109   5.106  12.409  0.0459 -0.2884  0.2365
15970TIP3    H169325   3.153   5.141  12.487 -1.4183  1.1031  0.4799
15970TIP3    H269326   3.027   5.069  12.442 -0.0958 -0.6475 -0.5134
15971TIP3   OH269327   2.945   2.907   5.008  0.1099 -0.0830  0.0027
15971TIP3    H169328   2.869   2.915   4.951  2.7265 -1.1295 -4.0283
15971TIP3    H269329   2.945   2.815   5.035 -0.7505  0.2551  1.2624
15972TIP3   OH269330   2.694   4.127  15.119  0.6165  0.1040  0.1811
15972TIP3    H169331   2.754   4.072  15.068 -0.4798 -0.0431 -0.9825
15972TIP3    H269332   2.698   4.213  15.076 -2.6020 -0.7716 -2.2130
15973TIP3   OH269333   3.308   4.418   0.595  0.0689  0.3053  0.0899
15973TIP3    H169334   3.373   4.482   0.566 -0.3760  0.5962 -0.2835
15973TIP3    H269335   3.272   4.382   0.513  0.2109 -0.3158  0.2944
15974TIP3   OH269336   6.760   0.436  13.647 -0.1951 -0.6352 -0.3056
15974TIP3    H169337   6.761   0.464  13.739 -2.2692  0.1074 -0.4633
15974TIP3    H269338   6.835   0.481  13.608 -0.4421  0.6307  0.6056
15975TIP3   OH269339   3.364   1.052  11.766  0.0384  0.1128  0.1105
15975TIP3    H169340   3.282   1.023  11.805  0.5159  1.4209  2.2623
15975TIP3    H269341   3.428   1.047  11.837  1.4497  0.7494 -1.0471
15976TIP3   OH269342   1.014   0.113  12.540 -0.4450 -0.7208 -0.0029
15976TIP3    H169343   0.986   0.033  12.586  0.1368 -1.1222 -0.3434
15976TIP3    H269344   0.932   0.155  12.514 -0.8779  0.2700  2.6350
15977TIP3   OH269345   1.247   0.237  11.634  0.0001 -0.2577 -0.0464
15977TIP3    H169346   1.204   0.322  11.637  1.6435  0.6027  1.9712
15977TIP3    H269347   1.178   0.175  11.657 -1.0246  0.6061 -0.6867
15978TIP3   OH269348   2.058   0.912   4.795 -0.6786 -0.6838 -0.3067
15978TIP3    H169349   2.102   0.923   4.879  0.3315  0.9512 -0.9991
15978TIP3    H269350   2.127   0.921   4.730 -1.7640  0.3462 -1.3815
15979TIP3   OH269351   6.288   4.843  16.376  0.0779  0.6472 -0.4735
15979TIP3    H169352   6.328   4.865  16.292  1.6105 -0.6519 -0.1254
15979TIP3    H269353   6.341   4.771  16.410 -1.8166 -0.3299  0.6110
15980TIP3   OH269354   0.749   5.905  13.528  0.7331  0.2206 -0.6558
15980TIP3    H169355   0.769   5.818  13.492 -2.0926 -0.2387 -1.3451
15980TIP3    H269356   0.687   5.943  13.466 -2.3122  0.4952  2.2654
15981TIP3   OH269357   0.906   2.831   5.486 -0.1453  0.3812  0.0449
15981TIP3    H169358   0.868   2.901   5.539  1.7111 -0.8118  3.2520
15981TIP3    H269359   0.835   2.768   5.473 -0.9686  1.3024 -0.0230
15982TIP3   OH269360   3.142   1.563   4.618 -0.6724 -0.2292  0.2879
15982TIP3    H169361   3.116   1.549   4.527 -0.7123  0.6667  0.1489
15982TIP3    H269362   3.064   1.601   4.660 -0.9476 -1.4539  0.9239
15983TIP3   OH269363   0.771   2.510   2.061  0.4333  0.1211  0.1208
15983TIP3    H169364   0.763   2.586   2.003  1.0530 -1.5524 -2.3311
15983TIP3    H269365   0.721   2.441   2.016 -1.3271 -0.6343  2.9655
15984TIP3   OH269366   2.527   4.966   1.256  0.0500 -0.3527  0.2446
15984TIP3    H169367   2.610   5.014   1.258  1.6499 -2.7716 -1.2603
15984TIP3    H269368   2.514   4.935   1.345  1.4112 -0.8631  0.2884
15985TIP3   OH269369   4.527   2.253   5.831  0.0392 -0.1545  0.0836
15985TIP3    H169370   4.497   2.307   5.905 -0.0306  0.9600 -0.7314
15985TIP3    H269371   4.523   2.163   5.864 -3.1244 -0.0141  0.4234
15986TIP3   OH269372   4.063   1.548   3.304  0.4857  0.3878  0.0135
15986TIP3    H169373   4.148   1.511   3.326  0.5027  0.7110  0.4941
15986TIP3    H269374   4.082   1.638   3.279  0.1638  0.7833  1.1532
15987TIP3   OH269375   5.189   4.944  10.494  0.4668 -0.2643  0.0894
15987TIP3    H169376   5.142   4.964  10.574  0.3264  0.5878 -0.1992
15987TIP3    H269377   5.281   4.936  10.521  0.3269 -0.6999  0.4437
15988TIP3   OH269378   4.505   3.132  11.945  0.1325 -0.4078  0.9640
15988TIP3    H169379   4.497   3.100  11.855  2.3935 -0.7134  0.8216
15988TIP3    H269380   4.417   3.164  11.967 -0.8411 -1.6830 -0.8109
15989TIP3   OH269381   1.179   0.165  12.948  0.0454 -0.0073 -0.2551
15989TIP3    H169382   1.087   0.175  12.971  0.0433  0.9163 -0.6308
15989TIP3    H269383   1.179   0.104  12.874 -0.1968 -0.5681  0.1980
15990TIP3   OH269384   4.385   4.556  13.806 -0.5506 -0.4569 -0.7946
15990TIP3    H169385   4.413   4.609  13.881 -2.6875  2.6305 -1.9669
15990TIP3    H269386   4.292   4.538  13.823 -0.1647 -2.9564 -1.0159
15991TIP3   OH269387   5.070   0.505   1.143 -0.0330 -0.1915  0.1164
15991TIP3    H169388   4.976   0.497   1.163 -0.1206 -0.6172 -0.4385
15991TIP3    H269389   5.074   0.511   1.048  0.5345 -0.6631  0.1054
15992TIP3   OH269390   0.556   5.469  11.881  0.3116  0.0309  0.0037
15992TIP3    H169391   0.485   5.503  11.827 -0.6416  0.8438  1.6859
15992TIP3    H269392   0.543   5.509  11.967  2.4266 -0.3177  0.5643
15993TIP3   OH269393   4.995   1.539  15.321  0.1889  0.4834  0.0157
15993TIP3    H169394   5.069   1.599  15.312 -1.1159  1.8475 -3.1457
15993TIP3    H269395   4.940   1.557  15.245 -2.3488 -1.9632  1.0840
15994TIP3   OH269396   3.726   2.252  10.409 -0.3649 -0.4091  0.0627
15994TIP3    H169397   3.713   2.251  10.314  1.3811 -0.7204 -0.1981
15994TIP3    H269398   3.742   2.160  10.432  1.4444 -0.0820  0.2857
15995TIP3   OH269399   1.314   4.667   4.746 -0.2788 -0.2327  0.3685
15995TIP3    H169400   1.313   4.574   4.772 -1.0501 -0.0450  1.0595
15995TIP3    H269401   1.382   4.672   4.679 -0.4788 -1.3677  0.0557
15996TIP3   OH269402   5.773   2.554   0.498  0.0869  0.7258 -0.2470
15996TIP3    H169403   5.779   2.649   0.487 -0.1934  0.5105 -2.8159
15996TIP3    H269404   5.688   2.540   0.539  0.3984  1.5666  0.7674
15997TIP3   OH269405   5.882   3.646  10.358 -0.2379  0.3352 -0.0716
15997TIP3    H169406   5.865   3.599  10.277  1.5694  2.7807 -2.0470
15997TIP3    H269407   5.811   3.711  10.363 -0.9330 -0.4752  0.9138
15998TIP3   OH269408   5.578   4.206  16.229  0.0601 -0.2579  0.5068
15998TIP3    H169409   5.487   4.229  16.213  0.1847 -0.4581 -0.5320
15998TIP3    H269410   5.603   4.260  16.304 -0.5604  0.7095  0.0352
15999TIP3   OH269411   5.648   0.590   0.985  0.1806 -0.9334  0.6888
15999TIP3    H169412   5.584   0.538   0.935 -0.1221  1.8148 -2.0658
15999TIP3    H269413   5.598   0.627   1.057 -0.4745 -1.4821  0.5285
16000TIP3   OH269414   5.394   4.570   3.457 -0.4306 -0.4021  0.2948
16000TIP3    H169415   5.423   4.653   3.495  1.8789  0.1889 -2.4508
16000TIP3    H269416   5.473   4.518   3.448 -1.4038 -1.7795 -0.6967
16001TIP3   OH269417   5.484   2.575   2.044 -0.3373 -0.5143  0.2769
16001TIP3    H169418   5.522   2.490   2.020  0.7060 -0.2739  1.0444
16001TIP3    H269419   5.464   2.616   1.959 -0.6601 -1.4280 -0.1047
16002TIP3   OH269420   6.005   0.213   5.714  0.6504  0.2388  0.4773
16002TIP3    H169421   6.032   0.236   5.803  0.1522  0.7644  0.5022
16002TIP3    H269422   6.086   0.216   5.663  1.0613 -0.8142  1.0535
16003TIP3   OH269423   4.625   6.189  11.355 -0.2575  0.5134  0.3308
16003TIP3    H169424   4.584   6.124  11.297  0.2955  1.2640 -0.9134
16003TIP3    H269425   4.562   6.199  11.427 -1.2036 -0.0340 -0.4012
16004TIP3   OH269426   6.051   3.715   5.112  0.7912  0.6287 -0.6508
16004TIP3    H169427   6.041   3.761   5.196 -0.6129 -2.0788  0.8179
16004TIP3    H269428   5.962   3.685   5.091  1.4999 -0.6605 -1.9504
16005TIP3   OH269429   1.397   1.654  13.709  0.2593 -0.3492 -0.1779
16005TIP3    H169430   1.310   1.694  13.714  0.0071 -0.7554 -1.2597
16005TIP3    H269431   1.380   1.560  13.700  0.8367 -0.5745  0.9063
16006TIP3   OH269432   2.991   3.069  13.504 -0.1378 -0.0938  0.2798
16006TIP3    H169433   3.036   2.998  13.457 -0.2517 -0.2313  0.3786
16006TIP3    H269434   2.992   3.042  13.595 -0.1090  0.0728  0.3290
16007TIP3   OH269435   5.459   1.417   0.783 -0.3006 -0.0414  0.4060
16007TIP3    H169436   5.413   1.389   0.862  1.9515 -1.1785  1.3868
16007TIP3    H269437   5.480   1.336   0.736  3.1866  0.0674  1.5022
16008TIP3   OH269438   4.502   4.628   5.872 -0.9428  0.1528  0.2009
16008TIP3    H169439   4.546   4.546   5.897 -0.8558  0.2287  0.2996
16008TIP3    H269440   4.523   4.689   5.944  1.1159  1.0430 -1.0566
16009TIP3   OH269441   2.411   1.836  16.786 -0.2821 -0.0195 -0.1458
16009TIP3    H169442   2.469   1.760  16.783  0.0447  0.1975  0.2816
16009TIP3    H269443   2.388   1.854  16.695  3.3462  2.1230 -0.8636
16010TIP3   OH269444   2.435   3.559   5.117  0.1785 -0.6809  0.8084
16010TIP3    H169445   2.511   3.608   5.085 -0.0928 -0.4756  0.4575
16010TIP3    H269446   2.375   3.627   5.149 -0.8055 -0.6434 -0.9783
16011TIP3   OH269447   2.940   1.154  13.382  0.4153 -0.2078  0.3136
16011TIP3    H169448   2.906   1.208  13.453  0.5965  1.0051 -0.4871
16011TIP3    H269449   3.023   1.195  13.358  1.8737 -2.3292  1.3401
16012TIP3   OH269450   1.750   0.910   2.967 -0.5661 -0.1292  0.6769
16012TIP3    H169451   1.720   0.946   2.884 -0.0803 -1.1657  0.0422
16012TIP3    H269452   1.813   0.975   2.999  1.0265 -0.7926 -0.9247
16013TIP3   OH269453   3.310   6.090  13.930 -0.4918 -0.6975  0.4159
16013TIP3    H169454   3.250   6.135  13.990 -0.9675 -1.4058  0.4801
16013TIP3    H269455   3.254   6.044  13.869 -0.0194  0.7285 -1.1757
16014TIP3   OH269456   6.220   6.703   5.882  0.1582  0.1345  0.7211
16014TIP3    H169457   6.129   6.716   5.906  0.5243  3.8005  0.7183
16014TIP3    H269458   6.226   6.736   5.792  0.9982 -2.8957 -0.4597
16015TIP3   OH269459   0.289   5.695   6.332  0.7840  0.1409  0.0184
16015TIP3    H169460   0.345   5.691   6.254 -0.0887 -0.3195 -0.6000
16015TIP3    H269461   0.304   5.612   6.376  0.1668 -0.2314 -0.4567
16016TIP3   OH269462   5.551   5.030  16.377 -0.0650  0.1957  0.6584
16016TIP3    H169463   5.622   5.012  16.315 -0.9982 -0.9437 -0.1256
16016TIP3    H269464   5.523   4.944  16.408 -0.5825  0.6706  1.5762
16017TIP3   OH269465   6.665   1.342  16.269 -0.4489 -0.5326 -0.0275
16017TIP3    H169466   6.596   1.299  16.320  0.3737 -1.1720  0.5802
16017TIP3    H269467   6.653   1.309  16.180 -1.1299 -0.3811  0.0056
16018TIP3   OH269468   1.883   3.742  15.795 -0.2676 -0.1002 -0.1759
16018TIP3    H169469   1.862   3.799  15.722 -0.9645 -0.1195  0.0094
16018TIP3    H269470   1.875   3.653  15.759 -1.0319 -0.1190  0.0354
16019TIP3   OH269471   6.468   3.559  14.889 -0.6635  0.5398  0.0068
16019TIP3    H169472   6.405   3.493  14.859 -1.3312  0.9530  0.4500
16019TIP3    H269473   6.497   3.602  14.808 -1.4243  0.7490 -0.1690
16020TIP3   OH269474   4.833   6.021  17.203  0.1915 -0.1993  0.1565
16020TIP3    H169475   4.766   5.965  17.241  0.3735  0.9837  2.4282
16020TIP3    H269476   4.896   5.961  17.163  0.4649 -1.6608  2.5989
16021TIP3   OH269477   4.518   6.281   6.154  0.3420 -0.4817 -0.3174
16021TIP3    H169478   4.449   6.221   6.183 -0.4981  0.8228  0.4472
16021TIP3    H269479   4.597   6.249   6.200 -0.4345 -0.0245  1.4355
16022TIP3   OH269480   0.576   1.462  10.893  0.3716  0.4328  0.5237
16022TIP3    H169481   0.656   1.491  10.850  1.0882  1.8221  2.6154
16022TIP3    H269482   0.606   1.392  10.952 -0.2326 -0.0941  0.2119
16023TIP3   OH269483   0.430   1.111   4.425  0.0882 -0.0970  0.1853
16023TIP3    H169484   0.440   1.180   4.491 -1.1470 -2.1305  2.6942
16023TIP3    H269485   0.335   1.099   4.418  0.0252  1.1426 -3.3542
16024TIP3   OH269486   0.661   3.835   3.530  0.2234 -0.1603  0.2731
16024TIP3    H169487   0.735   3.864   3.476 -0.4540 -1.7551 -1.6458
16024TIP3    H269488   0.699   3.778   3.596  0.9892  1.2479  1.1055
16025TIP3   OH269489   5.266   3.398   0.014 -0.0593  0.0930  0.2778
16025TIP3    H169490   5.175   3.371   0.015 -0.1405  0.3578  1.1782
16025TIP3    H269491   5.288   3.413   0.106 -0.0318  3.0730 -0.1131
16026TIP3   OH269492   4.130   5.562   0.052  0.0141  0.2525 -0.0706
16026TIP3    H169493   4.127   5.498   0.123  1.0075  0.7057  0.3996
16026TIP3    H269494   4.040   5.594   0.045 -0.5409 -1.2926 -0.4314
16027TIP3   OH269495   0.131   5.480   2.351 -0.0905 -0.1920 -0.0441
16027TIP3    H169496   0.199   5.478   2.284 -0.6245 -0.5059 -0.5812
16027TIP3    H269497   0.055   5.517   2.307  0.1355  1.6098  0.9495
16028TIP3   OH269498   2.511   1.158   3.998 -0.1013 -0.1258 -0.0100
16028TIP3    H169499   2.583   1.155   4.061 -0.1986 -2.8344  0.0519
16028TIP3    H269500   2.437   1.194   4.047  0.3612 -0.3069  0.8207
16029TIP3   OH269501   2.211   3.641  15.142 -0.0430  0.1646 -0.4316
16029TIP3    H169502   2.177   3.716  15.190 -0.2519 -0.1370 -0.0991
16029TIP3    H269503   2.302   3.663  15.125  0.2955 -0.0968  0.9037
16030TIP3   OH269504   1.117   4.717  13.934 -0.0622  0.2552 -0.0835
16030TIP3    H169505   1.106   4.646  13.997  2.4261  0.3640  0.5535
16030TIP3    H269506   1.129   4.795  13.988 -1.0077  0.9131 -0.7711
16031TIP3   OH269507   0.468   6.379   3.328 -0.0458 -0.3157  0.3357
16031TIP3    H169508   0.409   6.446   3.363 -1.6533 -1.1416 -0.6606
16031TIP3    H269509   0.460   6.388   3.233  0.3919 -1.3347  0.1929
16032TIP3   OH269510   2.690   4.158  12.082 -0.8138  0.2452  1.4188
16032TIP3    H169511   2.743   4.085  12.049 -0.7886 -0.7584  3.5398
16032TIP3    H269512   2.672   4.211  12.004  0.2850 -1.3011  0.0345
16033TIP3   OH269513   0.035   5.197   5.582  0.1090 -0.1427 -0.1034
16033TIP3    H169514   0.066   5.107   5.573  0.5836  0.1933 -2.5092
16033TIP3    H269515   0.047   5.235   5.495 -2.0098  1.6374  0.2916
16034TIP3   OH269516   5.670   4.800   3.974  0.8825  0.5388  0.1298
16034TIP3    H169517   5.598   4.774   3.917  0.9205 -0.1218  0.3720
16034TIP3    H269518   5.628   4.825   4.056  0.9952 -1.1904  0.7553
16035TIP3   OH269519   0.133   0.876   6.291 -0.1452  0.1676 -0.6208
16035TIP3    H169520   0.085   0.834   6.220 -1.2983 -1.3259  0.9666
16035TIP3    H269521   0.183   0.806   6.332  0.2922  0.9382  0.2098
16036TIP3   OH269522   6.082   1.239  14.900  1.0321  0.2165 -0.0951
16036TIP3    H169523   6.022   1.179  14.944 -0.6422  2.1223  0.3447
16036TIP3    H269524   6.026   1.306  14.861  2.5202 -0.3440 -3.6802
16037TIP3   OH269525   5.062   6.599  11.939 -0.6637  0.2111 -0.2892
16037TIP3    H169526   5.027   6.572  11.854 -1.1050  1.3736 -0.4977
16037TIP3    H269527   5.139   6.652  11.917 -0.5268  0.1580  0.0533
16038TIP3   OH269528   2.838   3.688   0.712 -0.5212  0.5514 -0.4256
16038TIP3    H169529   2.891   3.749   0.763 -2.4529  1.5065  0.5306
16038TIP3    H269530   2.748   3.719   0.721 -1.8030 -3.0157  1.0291
16039TIP3   OH269531   1.415   3.904   1.323 -0.6981 -0.1258  0.5606
16039TIP3    H169532   1.487   3.936   1.269 -1.1995  1.3157  0.7105
16039TIP3    H269533   1.409   3.810   1.302  2.7137 -0.8530  2.2676
16040TIP3   OH269534   2.020   4.142  11.058  0.2120  0.0429 -0.0719
16040TIP3    H169535   1.991   4.060  11.018 -1.1552  0.6494 -0.3756
16040TIP3    H269536   2.116   4.136  11.057  0.1946 -0.6093 -2.0879
16041TIP3   OH269537   0.829   5.346  15.318  0.5005 -0.7377 -0.7340
16041TIP3    H169538   0.791   5.360  15.231  0.2647 -0.6193 -0.6149
16041TIP3    H269539   0.902   5.407  15.323  0.8533 -1.1340 -1.0557
16042TIP3   OH269540   4.233   3.965   3.994  0.0698  0.4460 -0.4954
16042TIP3    H169541   4.294   3.950   3.922 -0.2128 -1.6941 -0.3789
16042TIP3    H269542   4.274   4.034   4.047  2.1479 -0.5447 -0.7040
16043TIP3   OH269543   0.911   0.050  16.763 -0.1487 -0.3867 -0.3194
16043TIP3    H169544   0.989   0.026  16.814 -0.8215 -2.4450 -0.1439
16043TIP3    H269545   0.901   0.144  16.777  1.5625 -0.3103  0.6843
16044TIP3   OH269546   6.674   5.077   2.274 -0.2492  0.2582 -0.5083
16044TIP3    H169547   6.635   4.990   2.277 -0.2794  0.3033  0.7243
16044TIP3    H269548   6.741   5.076   2.343 -0.4755  1.3172 -0.2511
16045TIP3   OH269549   5.558   2.752  14.189  0.2355  0.2633 -0.3161
16045TIP3    H169550   5.472   2.791  14.203 -0.8910 -1.1394 -2.6828
16045TIP3    H269551   5.617   2.826  14.176 -0.3061  1.2890  2.4504
16046TIP3   OH269552   4.246   1.358  16.695 -0.4904 -0.1049 -0.2304
16046TIP3    H169553   4.263   1.452  16.690  2.1140 -0.4546  0.6159
16046TIP3    H269554   4.214   1.344  16.784  0.7278 -0.2069  0.2043
16047TIP3   OH269555   0.088   3.021   5.235 -0.4268 -0.4005 -0.4753
16047TIP3    H169556   0.104   3.003   5.327 -4.4211 -2.0879  0.1218
16047TIP3    H269557   0.116   2.941   5.190  0.8480  0.1386 -0.6687
16048TIP3   OH269558   5.577   1.816  15.994 -0.2062 -0.4690 -0.4222
16048TIP3    H169559   5.568   1.874  16.069  0.8648 -0.5293 -0.2382
16048TIP3    H269560   5.669   1.790  15.994 -0.2828 -0.7891 -1.5168
16049TIP3   OH269561   4.735   0.390  16.091 -0.5941 -0.5277  0.2068
16049TIP3    H169562   4.783   0.414  16.171 -0.0940 -1.0415  0.0722
16049TIP3    H269563   4.732   0.470  16.040 -1.2398 -0.0970  0.9008
16050TIP3   OH269564   5.880   2.365   2.585  0.1407 -0.3194 -0.1155
16050TIP3    H169565   5.914   2.389   2.671 -0.3990 -0.2394  0.0737
16050TIP3    H269566   5.919   2.429   2.525  0.0994 -0.0572  0.1397
16051TIP3   OH269567   1.030   2.972  10.662 -0.0842 -0.4320  0.0559
16051TIP3    H169568   0.963   2.905  10.678 -0.7028  0.4377  1.2660
16051TIP3    H269569   1.019   2.995  10.570 -0.4632 -1.3386 -0.1433
16052TIP3   OH269570   1.093   1.204   4.301 -0.1732 -0.5137  0.2099
16052TIP3    H169571   1.068   1.296   4.286 -1.6362 -1.0502 -0.8506
16052TIP3    H269572   1.117   1.172   4.214 -0.5424 -1.3875  0.4290
16053TIP3   OH269573   0.114   5.600  16.952  0.2879 -0.0858  0.0174
16053TIP3    H169574   0.131   5.694  16.949  2.4031 -0.4533 -0.7970
16053TIP3    H269575   0.054   5.589  17.026  0.0621  1.8842  0.1746
16054TIP3   OH269576   6.073   4.126  14.993  0.3408  0.0611  0.4794
16054TIP3    H169577   6.158   4.084  15.001  0.3805 -0.4536 -1.9400
16054TIP3    H269578   6.010   4.056  15.011  0.4238 -0.9680 -2.6367
16055TIP3   OH269579   5.218   1.549  11.535  0.3016  0.1191 -0.4682
16055TIP3    H169580   5.198   1.583  11.448  0.8447  1.5560 -0.0651
16055TIP3    H269581   5.311   1.529  11.532  0.1257 -0.7011 -0.4918
16056TIP3   OH269582   1.223   3.007   4.392  0.3005  0.1634 -0.2611
16056TIP3    H169583   1.148   3.051   4.432 -1.1171 -1.1522 -1.3219
16056TIP3    H269584   1.184   2.953   4.323  2.3410  0.1830 -1.5059
16057TIP3   OH269585   0.010   2.151   4.840 -0.2461 -0.1575  0.1772
16057TIP3    H169586  -0.067   2.166   4.895 -1.4222  0.5749 -1.5621
16057TIP3    H269587   0.054   2.076   4.880 -1.9833 -0.7366  1.1113
16058TIP3   OH269588   0.455   1.467  11.606  0.0373 -0.3565 -0.6690
16058TIP3    H169589   0.415   1.380  11.614  1.0895 -0.7863  0.2035
16058TIP3    H269590   0.450   1.487  11.512  1.3633 -2.1687 -1.1976
16059TIP3   OH269591   4.254   3.158  11.802  0.0712  0.1998  0.3079
16059TIP3    H169592   4.202   3.230  11.766 -2.9932 -2.1655 -0.3743
16059TIP3    H269593   4.305   3.126  11.728 -1.8499 -0.9949 -0.5526
16060TIP3   OH269594   6.726   0.101   3.821 -0.1858 -0.4486 -0.0921
16060TIP3    H169595   6.710   0.080   3.913  0.7290 -0.7394  0.0067
16060TIP3    H269596   6.720   0.196   3.817  1.3739 -0.2795  0.6072
16061TIP3   OH269597   2.112   6.643  13.834 -0.3184  0.4669  0.6086
16061TIP3    H169598   2.142   6.579  13.769 -2.1698 -0.7744  0.9049
16061TIP3    H269599   2.043   6.693  13.789  0.7845  2.0154  0.5336
16062TIP3   OH269600   0.773   0.928   3.357  0.9989  0.3571 -0.0856
16062TIP3    H169601   0.865   0.906   3.343  1.2085  0.6068  0.7843
16062TIP3    H269602   0.774   0.987   3.433  0.3227  2.0788 -1.3416
16063TIP3   OH269603   4.297   2.910  11.994 -0.2540  0.1423  0.2103
16063TIP3    H169604   4.366   2.871  12.048 -1.5686 -0.5302  1.4667
16063TIP3    H269605   4.344   2.964  11.931  1.4379 -0.5726  0.7995
16064TIP3   OH269606   6.211   5.961  11.574 -0.1433 -0.6310  0.5473
16064TIP3    H169607   6.249   5.885  11.617  0.2250  0.1899  1.7350
16064TIP3    H269608   6.138   5.987  11.630 -1.7409 -1.4495 -1.0668
16065TIP3   OH269609   4.863   3.173   4.027 -0.4620  0.3575  0.1105
16065TIP3    H169610   4.874   3.166   3.932 -0.2918  0.2150  0.1412
16065TIP3    H269611   4.831   3.087   4.054 -0.1621  0.2851  0.2331
16066TIP3   OH269612   2.518   0.065   2.260  0.6645 -0.1553  0.1747
16066TIP3    H169613   2.483   0.104   2.341  0.3149  0.3473 -0.2098
16066TIP3    H269614   2.502  -0.028   2.270 -2.0103  0.1512 -0.5274
16067TIP3   OH269615   6.197   6.422  13.736  0.1182  0.1811 -0.2216
16067TIP3    H169616   6.106   6.449  13.722 -0.5907 -2.7879 -2.0482
16067TIP3    H269617   6.245   6.463  13.663 -0.1275  0.1036 -0.4292
16068TIP3   OH269618   6.691   0.178  13.848  0.2074  0.4541 -0.3808
16068TIP3    H169619   6.656   0.188  13.760  0.0954  1.3796 -0.2326
16068TIP3    H269620   6.739   0.259  13.865 -0.8351  0.8348  0.8815
16069TIP3   OH269621   4.167   6.102   5.668 -0.0113  0.7838  0.1493
16069TIP3    H169622   4.256   6.132   5.652  0.0852  0.7066  0.5323
16069TIP3    H269623   4.118   6.128   5.589  0.7419 -0.8171 -0.9074
16070TIP3   OH269624   6.624   2.680  16.507 -0.4317  0.5668 -0.7664
16070TIP3    H169625   6.582   2.633  16.579 -2.0781 -2.3029 -3.3308
16070TIP3    H269626   6.717   2.674  16.526 -0.6531 -2.3945 -0.0205
16071TIP3   OH269627   4.053   3.461   1.230  0.0415 -0.0958 -0.2876
16071TIP3    H169628   3.967   3.422   1.210 -0.1768  0.3163 -0.1518
16071TIP3    H269629   4.111   3.385   1.238 -0.3951 -0.4036  0.0547
16072TIP3   OH269630   4.827   2.679   3.966 -0.1475 -0.0893 -0.2649
16072TIP3    H169631   4.784   2.652   4.048 -0.1260 -0.5914 -0.4145
16072TIP3    H269632   4.758   2.672   3.900 -0.1328  0.2025 -0.3119
16073TIP3   OH269633   6.489   3.134  13.894  0.3279 -0.2151  0.4822
16073TIP3    H169634   6.508   3.085  13.814 -3.2253 -0.1176 -0.5921
16073TIP3    H269635   6.502   3.226  13.870 -1.2430 -0.1457 -0.2515
16074TIP3   OH269636   0.685   2.958   2.065 -0.0918 -0.3913  0.0539
16074TIP3    H169637   0.595   2.971   2.034  0.6305 -0.5173 -2.2437
16074TIP3    H269638   0.720   3.047   2.073  0.1465 -0.4030 -0.8454
16075TIP3   OH269639   2.366   2.485  10.944  0.2295 -0.0863 -0.5956
16075TIP3    H169640   2.402   2.479  11.033  0.8917  0.0250 -0.8504
16075TIP3    H269641   2.351   2.395  10.918 -0.5090 -0.1018 -0.1647
16076TIP3   OH269642   6.379   5.770  10.768  0.2725 -0.0376  0.4595
16076TIP3    H169643   6.382   5.858  10.730  1.3593 -0.4860 -0.5455
16076TIP3    H269644   6.285   5.751  10.774  0.0330  0.4344 -1.1736
16077TIP3   OH269645   2.803   4.108  13.001 -0.5118  0.5118 -0.6790
16077TIP3    H169646   2.890   4.121  13.039 -1.2164  0.0633  1.1894
16077TIP3    H269647   2.819   4.062  12.919  0.9890  0.0373 -0.1518
16078TIP3   OH269648   5.362   2.162  17.175 -0.5366  0.1055 -0.6087
16078TIP3    H169649   5.336   2.072  17.158 -1.9920  0.6965 -1.6798
16078TIP3    H269650   5.335   2.210  17.097  0.6546  1.4032 -0.2710
16079TIP3   OH269651   2.791   6.070  16.499  0.1392  0.2104  0.0862
16079TIP3    H169652   2.874   6.103  16.464 -1.0664  2.1744 -1.1542
16079TIP3    H269653   2.800   6.078  16.594  0.8825  1.7745 -0.0788
16080TIP3   OH269654   2.133   0.259  15.877 -0.1448  0.8249 -0.0233
16080TIP3    H169655   2.207   0.230  15.931 -1.1837 -1.2036  0.3978
16080TIP3    H269656   2.143   0.210  15.795 -1.4222 -0.1028  0.3409
16081TIP3   OH269657   5.545   4.283  14.939  0.6020 -0.4249  0.3657
16081TIP3    H169658   5.458   4.244  14.949 -0.1363  1.4714  1.7279
16081TIP3    H269659   5.597   4.242  15.008  1.5213 -3.2265 -1.8030
16082TIP3   OH269660   1.155   5.431   4.326 -0.2910  0.1748  0.1076
16082TIP3    H169661   1.222   5.374   4.363 -1.3560 -1.2752 -0.1265
16082TIP3    H269662   1.202   5.481   4.259  0.5358 -0.9420 -0.1930
16083TIP3   OH269663   4.881   3.056  13.096 -0.2606  0.2043 -0.1738
16083TIP3    H169664   4.952   3.054  13.160 -0.8006  1.0717  0.4760
16083TIP3    H269665   4.917   3.012  13.019  1.4163  1.6702 -0.2910
16084TIP3   OH269666   4.335   4.172   4.144  0.2647  0.9143 -0.3255
16084TIP3    H169667   4.378   4.231   4.205 -1.1095 -0.6688  2.3748
16084TIP3    H269668   4.247   4.208   4.133 -0.3893 -0.2102  0.8787
16085TIP3   OH269669   1.599   6.258   6.241  0.5469  0.2683  0.3415
16085TIP3    H169670   1.571   6.339   6.284  0.4304 -0.5953  1.9658
16085TIP3    H269671   1.637   6.205   6.312 -0.0420 -1.3978 -0.5392
16086TIP3   OH269672   4.773   2.873  12.681 -0.3297  0.1126 -0.4506
16086TIP3    H169673   4.812   2.919  12.755 -1.9297  1.0808 -0.1596
16086TIP3    H269674   4.788   2.930  12.606 -0.1360 -0.0982 -0.5756
16087TIP3   OH269675   0.800   5.923   5.080  0.0180 -0.1912 -0.2601
16087TIP3    H169676   0.808   5.966   5.164 -1.7684 -0.4859  0.0841
16087TIP3    H269677   0.883   5.875   5.070  1.1727  1.5873  0.2746
16088TIP3   OH269678   2.564   1.474  16.445  0.3249  0.2096  0.1812
16088TIP3    H169679   2.612   1.551  16.414 -0.4431  0.7712  0.3631
16088TIP3    H269680   2.486   1.510  16.488 -1.3788 -0.7129 -1.9609
16089TIP3   OH269681   3.002   0.040   6.222 -0.0577  0.3344  0.3465
16089TIP3    H169682   3.042   0.067   6.304  2.7749 -0.5991 -0.6035
16089TIP3    H269683   3.059  -0.030   6.190 -2.7031 -1.3754 -1.0357
16090TIP3   OH269684   3.848   3.520  12.861  0.5008  0.1961 -0.3367
16090TIP3    H169685   3.777   3.494  12.920 -0.7457 -0.2405 -1.9578
16090TIP3    H269686   3.905   3.443  12.857  3.0676  1.5907  3.5598
16091TIP3   OH269687   4.035   5.149  12.153  0.0125 -0.3351  0.0966
16091TIP3    H169688   4.005   5.126  12.065  0.5915 -2.2117  0.3253
16091TIP3    H269689   4.120   5.191  12.139  0.4168 -1.2195 -0.2551
16092TIP3   OH269690   2.272   3.915   1.723 -0.1868  0.0871 -0.1467
16092TIP3    H169691   2.211   3.925   1.796 -1.1906 -0.7333 -0.8481
16092TIP3    H269692   2.287   3.820   1.716  2.8675  0.3208  1.3341
16093TIP3   OH269693   4.887   2.909   1.716 -0.4829  0.1129  0.0322
16093TIP3    H169694   4.869   2.854   1.793  1.3226  0.8912  1.0506
16093TIP3    H269695   4.981   2.926   1.719 -0.5354  0.9987 -1.8137
16094TIP3   OH269696   1.141   0.727   1.248 -0.0774 -0.2672  0.0535
16094TIP3    H169697   1.122   0.682   1.165  0.2776  1.1341 -0.8194
16094TIP3    H269698   1.162   0.817   1.222  1.6854 -0.2028  1.5155
16095TIP3   OH269699   4.113   4.183   3.052 -0.2699 -0.5422  0.1370
16095TIP3    H169700   4.166   4.261   3.070  1.3880 -1.5908  0.0701
16095TIP3    H269701   4.084   4.153   3.138 -1.7291  0.6368  0.0998
16096TIP3   OH269702   1.469   4.450   4.611  0.0602 -0.4169 -0.2769
16096TIP3    H169703   1.452   4.536   4.572  0.6030 -0.4319 -0.5584
16096TIP3    H269704   1.494   4.395   4.537  0.1013 -0.7144 -0.0446
16097TIP3   OH269705   0.214   3.202   4.109  0.1643 -0.2117 -0.6193
16097TIP3    H169706   0.227   3.210   4.204 -0.7913 -1.0265 -0.4072
16097TIP3    H269707   0.227   3.290   4.075  0.5632  0.0762  0.2619
16098TIP3   OH269708   3.347   2.575  11.154 -0.1919  0.0443 -0.3119
16098TIP3    H169709   3.291   2.599  11.081  0.1369 -1.5753 -1.1480
16098TIP3    H269710   3.435   2.575  11.118  0.1932  1.0799  0.5963
16099TIP3   OH269711   2.890   4.384   5.595  0.0842  0.2080  0.3727
16099TIP3    H169712   2.906   4.368   5.688  1.5012  0.0439  0.1309
16099TIP3    H269713   2.965   4.344   5.551  0.4746  1.9930 -0.6894
16100TIP3   OH269714   4.951   4.070   3.729  0.2253  0.2849 -0.2981
16100TIP3    H169715   4.952   4.096   3.636  0.6633 -2.1740 -1.0551
16100TIP3    H269716   5.042   4.047   3.748  0.3497  1.7407  1.1140
16101TIP3   OH269717   1.491   5.683  12.195  0.5428 -0.0309  0.4201
16101TIP3    H169718   1.466   5.591  12.187 -1.1053  0.3640  0.6656
16101TIP3    H269719   1.552   5.698  12.122 -1.8001 -0.4872 -1.7848
16102TIP3   OH269720   2.377   5.309   6.450 -0.0128 -0.4975  0.0776
16102TIP3    H169721   2.316   5.258   6.504 -0.3144  0.1330  0.3333
16102TIP3    H269722   2.380   5.395   6.491  1.4587 -0.6590  0.3858
16103TIP3   OH269723   5.003   3.807  13.683 -0.3227  0.4042 -0.3460
16103TIP3    H169724   4.951   3.887  13.688  2.3735  2.4096 -1.5007
16103TIP3    H269725   4.965   3.758  13.610 -0.9189  1.5320 -0.8267
16104TIP3   OH269726   5.960   1.078   0.508  0.4332 -0.1696  0.3249
16104TIP3    H169727   6.035   1.027   0.538  0.3358 -1.4796 -1.5108
16104TIP3    H269728   5.925   1.029   0.434 -0.7025  1.7215 -0.4777
16105TIP3   OH269729   4.453   1.905   4.563  0.0144 -0.0706 -0.1643
16105TIP3    H169730   4.401   1.862   4.630  0.9313  1.3223  1.5422
16105TIP3    H269731   4.544   1.893   4.592  0.4079  0.9210 -0.9145
16106TIP3   OH269732   0.292   4.200  11.557  0.4506 -0.2663  0.3782
16106TIP3    H169733   0.379   4.214  11.595  1.4365  1.5122 -2.2653
16106TIP3    H269734   0.302   4.122  11.502  0.5194  0.1881 -0.2633
16107TIP3   OH269735   4.376   3.665  12.446  0.2289 -0.1255  0.3659
16107TIP3    H169736   4.299   3.713  12.474  0.3757 -0.7771  1.9894
16107TIP3    H269737   4.406   3.711  12.368 -2.0709 -0.1708 -0.5970
16108TIP3   OH269738   4.540   5.411  12.389 -0.2047  0.2017 -0.1151
16108TIP3    H169739   4.505   5.440  12.473 -0.8911  1.0795 -0.6796
16108TIP3    H269740   4.535   5.488  12.333  0.8064 -0.2057 -0.7972
16109TIP3   OH269741   6.628   0.488  15.208  0.8282 -0.1270  0.6247
16109TIP3    H169742   6.596   0.547  15.140 -1.1102 -0.0834  1.5048
16109TIP3    H269743   6.590   0.521  15.289 -0.5966 -2.6627  1.1261
16110TIP3   OH269744   3.516   1.254   5.124  0.1749 -0.6098  0.7874
16110TIP3    H169745   3.604   1.285   5.148  1.2816 -3.1351  0.2718
16110TIP3    H269746   3.470   1.247   5.208  0.7185 -0.0124  1.1521
16111TIP3   OH269747   3.765   5.269   5.130 -0.1313  0.4462 -0.3178
16111TIP3    H169748   3.785   5.277   5.223 -0.0029 -1.1965 -0.1899
16111TIP3    H269749   3.796   5.182   5.105 -0.2819  0.8029 -1.8748
16112TIP3   OH269750   0.034   1.576   1.965 -0.2241 -0.0576 -0.6345
16112TIP3    H169751  -0.058   1.597   1.980 -0.9766 -2.1362 -1.9191
16112TIP3    H269752   0.066   1.547   2.050 -0.8862  0.2242 -0.2814
16113TIP3   OH269753   1.534   3.656  13.667  0.0027  0.3394 -0.0622
16113TIP3    H169754   1.571   3.590  13.726  0.2421  0.1982 -0.3670
16113TIP3    H269755   1.509   3.728  13.724 -1.6874 -0.6244  0.4976
16114TIP3   OH269756   4.710   4.915   2.268 -0.0451 -0.3347  0.6272
16114TIP3    H169757   4.748   4.839   2.225 -2.2785 -0.4747 -1.2803
16114TIP3    H269758   4.761   4.989   2.234 -0.0595 -0.6871 -0.1928
16115TIP3   OH269759   5.196   6.064   1.286  0.5301  0.3918  0.0922
16115TIP3    H169760   5.291   6.053   1.297  0.7922  1.4241 -0.8424
16115TIP3    H269761   5.163   5.976   1.268  0.8513 -0.4657  3.2075
16116TIP3   OH269762   3.829   3.384   3.345  0.1754  0.5463  0.1916
16116TIP3    H169763   3.923   3.380   3.331  0.2826 -0.2936  1.0523
16116TIP3    H269764   3.817   3.369   3.439 -0.8727 -0.7642 -0.1175
16117TIP3   OH269765   6.360   3.728   4.155 -0.0001 -0.2518 -0.2131
16117TIP3    H169766   6.412   3.805   4.178 -0.6559  0.8415 -2.1532
16117TIP3    H269767   6.278   3.763   4.120  0.1020 -1.7733 -2.1575
16118TIP3   OH269768   1.858   3.074  11.564  0.0289  0.6178  0.0644
16118TIP3    H169769   1.889   3.136  11.498  2.0139  0.4268  0.7431
16118TIP3    H269770   1.783   3.031  11.524 -1.2659  3.2580 -0.5272
16119TIP3   OH269771   6.213   6.514   4.162 -0.6851  0.2135 -0.2174
16119TIP3    H169772   6.213   6.606   4.136  1.4580  0.2750 -0.1738
16119TIP3    H269773   6.300   6.500   4.198 -1.7289 -1.2506  1.9758
16120TIP3   OH269774   2.846   5.696   1.160 -0.0118 -0.5729 -0.6196
16120TIP3    H169775   2.875   5.617   1.205 -0.1545 -1.2635 -1.6923
16120TIP3    H269776   2.750   5.694   1.167 -0.0971 -1.1468 -1.6432
16121TIP3   OH269777   2.021   0.382  12.276 -0.6458  0.3547  0.0415
16121TIP3    H169778   2.065   0.463  12.252 -1.0992  0.2839 -1.0745
16121TIP3    H269779   1.964   0.362  12.202  2.0723 -2.8817 -1.4590
16122TIP3   OH269780   6.034   1.464   2.872  0.1297  0.0462  0.1138
16122TIP3    H169781   6.048   1.430   2.783 -0.0977  0.4808 -0.0954
16122TIP3    H269782   6.019   1.558   2.858  1.2009  0.3206  0.7072
16123TIP3   OH269783   1.965   3.052  13.268  0.1854  0.8329 -0.1375
16123TIP3    H169784   2.053   3.015  13.262 -0.1188  0.3102 -1.6416
16123TIP3    H269785   1.969   3.133  13.217 -0.4784  0.2396 -1.1585
16124TIP3   OH269786   4.517   2.272   0.657  0.9553 -0.6825 -0.1572
16124TIP3    H169787   4.583   2.265   0.588  2.1217 -1.0483  0.9602
16124TIP3    H269788   4.457   2.339   0.626 -0.3564 -2.9303 -2.9674
16125TIP3   OH269789   3.109   2.964   2.896 -0.3034  0.5865 -0.0712
16125TIP3    H169790   3.099   3.038   2.835  1.4059 -0.3379 -1.5720
16125TIP3    H269791   3.063   2.892   2.853 -1.4840  0.5978  1.1216
16126TIP3   OH269792   1.935   3.074  13.654  0.2303  0.0972 -0.1425
16126TIP3    H169793   1.993   3.150  13.643  0.4683  0.0561  0.7299
16126TIP3    H269794   1.850   3.104  13.620  0.0192  1.1644  1.2202
16127TIP3   OH269795   2.614   0.103  17.019 -0.1907  0.2526  0.3953
16127TIP3    H169796   2.677   0.048  17.064 -1.0597 -1.6853 -0.6309
16127TIP3    H269797   2.651   0.115  16.931 -1.0609 -0.6362 -0.1110
16128TIP3   OH269798   6.380   6.680  17.214 -0.0528  0.5841  0.7307
16128TIP3    H169799   6.392   6.700  17.307 -0.5126  0.2018  0.8746
16128TIP3    H269800   6.385   6.584  17.210 -0.0538  0.5999  0.3648
16129TIP3   OH269801   5.309   4.340  17.093  0.3880 -0.8884 -0.6909
16129TIP3    H169802   5.295   4.380  17.179  3.3583 -1.3304  0.0791
16129TIP3    H269803   5.290   4.248  17.106  0.4994 -0.9002 -0.6152
16130TIP3   OH269804   2.781   6.559  14.878 -0.0583 -0.8749  0.4358
16130TIP3    H169805   2.820   6.620  14.941 -1.1862  0.6430 -0.2419
16130TIP3    H269806   2.706   6.521  14.924  0.8224 -2.0340  0.9626
16131TIP3   OH269807   5.094   6.010   2.723  0.4744  0.2794  0.0881
16131TIP3    H169808   5.009   6.038   2.689  0.3641  0.8543  0.7974
16131TIP3    H269809   5.083   6.009   2.818  0.8667 -0.9747  0.1366
16132TIP3   OH269810   1.070   5.771   5.117 -0.0677 -0.2580 -0.0262
16132TIP3    H169811   1.130   5.840   5.146 -0.1212 -0.8214  1.5177
16132TIP3    H269812   1.125   5.692   5.114 -0.3997 -0.4884 -0.0456
16133TIP3   OH269813   6.283   6.586  16.925  0.6648 -0.7273 -0.3403
16133TIP3    H169814   6.289   6.556  17.016  2.1015  0.3366 -0.0653
16133TIP3    H269815   6.347   6.656  16.918 -0.9736  0.7343 -1.6013
16134TIP3   OH269816   5.836   1.915  15.148 -0.2209 -0.3735  0.8000
16134TIP3    H169817   5.813   1.986  15.089  0.7080  0.2436  1.1489
16134TIP3    H269818   5.929   1.930  15.168 -0.2560 -1.1477  1.6133
16135TIP3   OH269819   4.142   1.191  12.398 -0.1466  0.3532 -0.9067
16135TIP3    H169820   4.094   1.127  12.450 -0.1501  2.0541  1.3231
16135TIP3    H269821   4.085   1.269  12.397  1.4524  1.5973 -0.2406
16136TIP3   OH269822   0.475   3.583  14.475 -0.2962 -0.2735  0.0174
16136TIP3    H169823   0.510   3.593  14.387 -2.2271 -0.9864 -0.8727
16136TIP3    H269824   0.385   3.612  14.469 -0.4987 -0.4093  1.7561
16137TIP3   OH269825   5.812   2.375  14.816  0.8584 -0.8857  0.0611
16137TIP3    H169826   5.898   2.400  14.784  0.8617 -0.1540  0.6100
16137TIP3    H269827   5.772   2.327  14.743  0.8716  0.6881 -1.0210
16138TIP3   OH269828   5.225   2.837   2.824  0.5885 -0.0781 -0.6990
16138TIP3    H169829   5.193   2.749   2.804  0.2498  0.1212 -1.0400
16138TIP3    H269830   5.149   2.882   2.861  0.7211  0.1210 -0.6675
16139TIP3   OH269831   5.604   2.443  11.115  0.6021  0.4892 -0.3084
16139TIP3    H169832   5.519   2.407  11.139  1.1487 -1.4514 -1.1321
16139TIP3    H269833   5.666   2.400  11.174  1.0732  1.6429  0.0688
16140TIP3   OH269834   4.481   5.134  12.772 -0.2177 -0.4821 -0.1321
16140TIP3    H169835   4.460   5.131  12.679  0.1474  0.1258 -0.2339
16140TIP3    H269836   4.450   5.050  12.805 -3.0483  0.4412 -0.2075
16141TIP3   OH269837   0.984   2.041   3.552 -0.2652  0.0803 -0.3423
16141TIP3    H169838   0.977   1.986   3.630 -1.6300  1.6874  0.7412
16141TIP3    H269839   0.966   1.981   3.479  3.5983 -2.0814  0.1988
16142TIP3   OH269840   0.010   4.728  16.734 -0.8049  0.5528  0.2893
16142TIP3    H169841  -0.012   4.819  16.716 -1.1937  0.9591  2.4787
16142TIP3    H269842  -0.074   4.686  16.754 -0.8724 -0.7831 -2.3855
16143TIP3   OH269843   4.820   4.973  15.006  0.7780 -0.1815 -0.5950
16143TIP3    H169844   4.844   4.880  14.999 -1.6324 -0.7937 -2.4478
16143TIP3    H269845   4.838   5.008  14.918 -0.6244  0.4497 -0.6477
16144TIP3   OH269846   3.092   2.979   4.270 -0.0146 -0.0048  0.2443
16144TIP3    H169847   3.017   2.928   4.304  0.0513 -0.3721 -0.1473
16144TIP3    H269848   3.070   3.070   4.291  0.5766 -0.2884  2.3408
16145TIP3   OH269849   1.436   0.630   2.666  0.5873 -0.1996 -0.6593
16145TIP3    H169850   1.530   0.640   2.652  0.4046  0.9970 -1.2012
16145TIP3    H269851   1.429   0.571   2.741  1.8324  0.9579  0.4388
16146TIP3   OH269852   0.968   6.154  12.853  0.0045  0.1205  0.0231
16146TIP3    H169853   1.063   6.163  12.856  0.0503  1.0029 -2.0499
16146TIP3    H269854   0.941   6.150  12.945  1.8863  1.6243  0.7101
16147TIP3   OH269855   2.312   1.050   0.018  0.4359  0.1370 -0.7285
16147TIP3    H169856   2.230   1.088   0.049  0.7638  0.2958 -0.0236
16147TIP3    H269857   2.291   1.012  -0.067 -0.5645 -0.5412 -0.1998
16148TIP3   OH269858   6.670   1.337  14.726 -0.1812 -0.1575 -0.3519
16148TIP3    H169859   6.631   1.293  14.650 -1.4888  0.4174 -0.0396
16148TIP3    H269860   6.737   1.394  14.689 -0.6603 -0.0422 -1.0702
16149TIP3   OH269861   1.091   3.417  11.614 -0.2938 -0.2063  0.1611
16149TIP3    H169862   1.109   3.480  11.544  1.4105  0.8136  1.4556
16149TIP3    H269863   1.075   3.471  11.691 -0.7530 -1.3359  0.8670
16150TIP3   OH269864   5.576   0.074  12.716  0.1016 -0.0772 -0.6327
16150TIP3    H169865   5.533   0.097  12.634 -0.9555  0.7520  0.1348
16150TIP3    H269866   5.523   0.116  12.784  0.1122 -1.9387  0.5860
16151TIP3   OH269867   6.731   2.131   2.385 -0.1169  0.1416 -0.1058
16151TIP3    H169868   6.672   2.108   2.315 -0.8032  0.1599  0.4541
16151TIP3    H269869   6.767   2.048   2.416 -0.4458  0.0657  0.0684
16152TIP3   OH269870   1.958   6.219   6.396 -0.4734  0.0679 -0.0975
16152TIP3    H169871   2.039   6.177   6.367  0.3642  1.6829 -0.2188
16152TIP3    H269872   1.888   6.161   6.366  0.4411  0.4991 -3.4432
16153TIP3   OH269873   0.116   1.641  11.326  0.5563 -0.4105  0.4410
16153TIP3    H169874   0.196   1.684  11.295  0.5940 -1.0947 -0.4568
16153TIP3    H269875   0.074   1.706  11.383 -0.1323  1.4156 -1.9842
16154TIP3   OH269876   4.473   4.874   2.408 -0.2027  0.1280  0.4721
16154TIP3    H169877   4.494   4.844   2.497  0.2720 -0.7609  0.0679
16154TIP3    H269878   4.559   4.888   2.367 -0.3475 -1.9746 -0.6732
16155TIP3   OH269879   4.772   2.402  15.774  0.4721  0.7600  0.3245
16155TIP3    H169880   4.720   2.482  15.766 -0.8869 -0.0522  0.6026
16155TIP3    H269881   4.849   2.427  15.825 -0.8256  1.5058  1.9890
16156TIP3   OH269882   2.589   1.431   3.543 -0.2427 -0.2240  0.4369
16156TIP3    H169883   2.681   1.455   3.557 -0.9759  2.9214  0.4477
16156TIP3    H269884   2.581   1.422   3.448 -0.3682  1.7677  0.2256
16157TIP3   OH269885   0.903   1.912   4.969 -0.1830 -0.7957 -0.6169
16157TIP3    H169886   0.862   1.832   5.004  0.5810 -0.6351  0.7494
16157TIP3    H269887   0.993   1.885   4.950 -0.0964 -0.4192 -0.7362
16158TIP3   OH269888   2.075   4.429  17.132  0.1184 -0.0151  0.0093
16158TIP3    H169889   2.164   4.400  17.111 -0.9904 -2.2076 -2.0988
16158TIP3    H269890   2.051   4.381  17.211  0.6119  0.1889  0.2850
16159TIP3   OH269891   0.317   6.652  11.576  0.2610 -0.6764  0.0162
16159TIP3    H169892   0.279   6.630  11.491  1.5026  1.4328 -1.1929
16159TIP3    H269893   0.407   6.676  11.556  1.6780 -3.4156  2.4691
16160TIP3   OH269894   1.021   2.829  10.400 -0.3561  0.1104 -0.3618
16160TIP3    H169895   1.051   2.738  10.397  0.5688  0.3737  0.2713
16160TIP3    H269896   0.926   2.823  10.393 -0.6282 -1.1589  2.7815
16161TIP3   OH269897   2.592   2.832   2.092  0.0162 -0.2473  0.4440
16161TIP3    H169898   2.634   2.760   2.139  2.3882 -0.0149 -1.1806
16161TIP3    H269899   2.655   2.904   2.097 -2.1610  1.7240  1.7934
16162TIP3   OH269900   2.334   4.495  12.338 -0.4940 -0.5005  0.5472
16162TIP3    H169901   2.319   4.462  12.427 -0.8344 -0.9761  0.3143
16162TIP3    H269902   2.422   4.464  12.316 -0.5496 -0.6896  0.5853
16163TIP3   OH269903   4.590   6.558   1.961 -0.0181  0.2576 -0.6044
16163TIP3    H169904   4.672   6.607   1.970 -0.2625  0.7355 -0.9729
16163TIP3    H269905   4.606   6.496   1.890  0.7966 -1.2492  0.8255
16164TIP3   OH269906   4.987   3.431   0.224  0.4456  0.3804 -0.1196
16164TIP3    H169907   5.050   3.496   0.254 -1.0499  1.5944  0.5553
16164TIP3    H269908   4.905   3.480   0.215 -0.5899 -1.2873 -0.1889
16165TIP3   OH269909   1.740   0.519   1.010 -0.3168 -0.5405 -0.0091
16165TIP3    H169910   1.804   0.572   1.057 -0.5487 -0.0450 -0.2369
16165TIP3    H269911   1.761   0.533   0.918 -1.2435  0.2861 -0.1195
16166TIP3   OH269912   0.076   6.671   3.254 -0.5323 -0.3957  0.1951
16166TIP3    H169913  -0.008   6.702   3.290 -0.1345  0.3872  0.4759
16166TIP3    H269914   0.060   6.579   3.234 -1.2170 -0.4836  1.0251
16167TIP3   OH269915   2.181   4.137  17.234 -0.1331 -0.1045  0.4249
16167TIP3    H169916   2.204   4.108  17.322  1.0762  0.2069  0.2249
16167TIP3    H269917   2.085   4.130  17.231 -0.1721 -0.3617  1.6709
16168TIP3   OH269918   4.103   5.196  12.415  0.3475 -0.4172  0.0942
16168TIP3    H169919   4.022   5.168  12.457  0.1781 -0.3416 -0.1809
16168TIP3    H269920   4.097   5.162  12.326 -0.5780  1.7656 -0.7534
16169TIP3   OH269921   5.792   1.484   1.954  0.1520 -0.5436 -0.4664
16169TIP3    H169922   5.855   1.436   1.899 -0.9690 -1.3823 -1.0569
16169TIP3    H269923   5.770   1.423   2.024  1.3434  0.4136  0.7979
16170TIP3   OH269924   2.259   5.735  15.790 -0.5233 -0.4458  0.0873
16170TIP3    H169925   2.216   5.808  15.744  0.7353 -1.2175 -2.5297
16170TIP3    H269926   2.293   5.680  15.720  1.4246 -1.8416  2.0081
16171TIP3   OH269927   1.798   1.529   2.054 -0.0724 -0.0792 -0.1086
16171TIP3    H169928   1.749   1.599   2.098  1.4159  0.9527  0.0300
16171TIP3    H269929   1.854   1.575   1.992 -1.4486 -1.4500 -2.4797
16172TIP3   OH269930   6.039   1.096  13.346 -0.4384  0.2322  0.3442
16172TIP3    H169931   5.988   1.015  13.351  1.2747 -0.9027  0.1956
16172TIP3    H269932   6.014   1.144  13.425 -1.1579 -0.6365  0.6678
16173TIP3   OH269933   6.609   2.190  15.854 -0.0843  0.1282  0.1220
16173TIP3    H169934   6.685   2.221  15.904 -0.0882  0.6562 -0.1876
16173TIP3    H269935   6.537   2.244  15.885 -0.1023  0.4111 -0.3938
16174TIP3   OH269936   3.886   3.717  11.522  0.2085  0.1727 -0.8945
16174TIP3    H169937   3.955   3.771  11.483 -0.5365  1.8331  0.0173
16174TIP3    H269938   3.817   3.716  11.456 -0.3915  1.6347 -0.3256
16175TIP3   OH269939   1.167   4.658   2.623  0.1855  0.2149 -0.2900
16175TIP3    H169940   1.196   4.579   2.668  0.3115  1.5344  2.1589
16175TIP3    H269941   1.071   4.650   2.618  0.1970 -0.0971 -0.0236
16176TIP3   OH269942   3.849   0.831  13.503  0.1468 -0.4512  0.7059
16176TIP3    H169943   3.934   0.848  13.542  1.1671  1.8423 -2.1113
16176TIP3    H269944   3.857   0.865  13.414 -3.4809 -0.8608  0.0789
16177TIP3   OH269945   2.678   1.747  15.195 -0.2114  0.7923  0.5091
16177TIP3    H169946   2.676   1.667  15.142 -2.2710  2.2596 -1.8401
16177TIP3    H269947   2.695   1.716  15.284  1.6341 -1.9835 -0.6558
16178TIP3   OH269948   4.680   3.476   1.366 -0.1322 -0.2752  0.0476
16178TIP3    H169949   4.599   3.525   1.351 -0.3245 -0.5556  0.1666
16178TIP3    H269950   4.750   3.537   1.341 -0.4153 -1.0033 -2.9646
16179TIP3   OH269951   0.078   3.751  13.237  0.5826 -0.2277 -0.1908
16179TIP3    H169952   0.173   3.748  13.230  0.4930  0.7094 -2.6370
16179TIP3    H269953   0.055   3.675  13.291  2.7323 -0.0487  1.0541
16180TIP3   OH269954   4.947   4.437  14.541 -0.2580 -0.1416  0.3732
16180TIP3    H169955   4.870   4.389  14.570  0.3546 -1.8819 -0.7017
16180TIP3    H269956   4.916   4.526  14.525 -2.6997 -1.3485 -2.4996
16181TIP3   OH269957   2.726   5.996   4.481  0.7072 -0.3802 -0.8395
16181TIP3    H169958   2.773   6.065   4.528  0.6992 -0.1487 -1.1651
16181TIP3    H269959   2.752   6.008   4.389 -0.2091 -0.0595 -1.0699
16182TIP3   OH269960   1.793   5.859  16.924  0.0909  0.4474 -0.3027
16182TIP3    H169961   1.698   5.858  16.936 -0.0593  2.0825 -1.0991
16182TIP3    H269962   1.812   5.778  16.876 -0.9994  0.4225 -0.7184
16183TIP3   OH269963   5.919   0.048  11.678  0.1122 -0.4001  0.4169
16183TIP3    H169964   5.969  -0.026  11.714 -0.6668 -0.5845  1.1583
16183TIP3    H269965   5.890   0.097  11.755 -0.5746 -0.1208 -0.0142
16184TIP3   OH269966   0.169   2.142  16.615 -0.3069  0.0614 -0.2092
16184TIP3    H169967   0.173   2.223  16.563 -1.2509  0.1933 -0.0839
16184TIP3    H269968   0.258   2.131  16.648 -0.0053  0.6844 -0.7821
16185TIP3   OH269969   0.612   4.320  15.259  0.1836 -0.1990 -0.1143
16185TIP3    H169970   0.595   4.300  15.167 -1.6036  1.8780 -0.3156
16185TIP3    H269971   0.529   4.304  15.303  0.2383  1.3561  0.6213
16186TIP3   OH269972   2.341   0.568   0.788  0.6098  0.3159 -0.5070
16186TIP3    H169973   2.414   0.630   0.778  1.9186 -1.2102 -0.7055
16186TIP3    H269974   2.370   0.508   0.856 -1.7384  1.3867  1.6277
16187TIP3   OH269975   2.451   3.164   1.511 -0.4965  0.1023 -0.2915
16187TIP3    H169976   2.544   3.146   1.499 -0.6291 -0.8190  0.0027
16187TIP3    H269977   2.442   3.184   1.604 -0.7571 -0.9514 -0.0723
16188TIP3   OH269978   2.344   1.081   4.974  0.0827  0.1750 -0.4441
16188TIP3    H169979   2.405   1.015   4.944 -0.0595 -0.6540  0.9701
16188TIP3    H269980   2.377   1.108   5.060  0.3663  2.2676 -1.1438
16189TIP3   OH269981   0.239   2.233  14.610  0.1441  0.1000 -0.4251
16189TIP3    H169982   0.226   2.325  14.587  0.5480 -0.1552 -1.7881
16189TIP3    H269983   0.151   2.198  14.618 -0.0154  0.5996  0.0972
16190TIP3   OH269984   2.468   6.713  10.688 -0.3848  0.8602  0.1579
16190TIP3    H169985   2.413   6.635  10.681  1.6552 -0.6057 -0.5544
16190TIP3    H269986   2.476   6.744  10.598  2.8957 -1.2139 -0.4304
16191TIP3   OH269987   0.470   5.931   2.029 -0.6702  0.1369 -0.1079
16191TIP3    H169988   0.563   5.910   2.025 -0.6764  0.0768  0.0557
16191TIP3    H269989   0.442   5.902   2.116 -0.7339  0.6043  0.0308
16192TIP3   OH269990   0.064   4.816   1.112  0.5260  0.0646  0.0099
16192TIP3    H169991   0.092   4.899   1.072  1.5039 -0.8997 -1.3755
16192TIP3    H269992   0.145   4.776   1.143  0.3217 -1.2748 -1.1209
16193TIP3   OH269993   4.318   0.382   4.755  0.3106 -0.2013 -0.0784
16193TIP3    H169994   4.337   0.344   4.669 -0.1489  0.5792 -0.5385
16193TIP3    H269995   4.248   0.446   4.738  1.8882  1.7639  0.4375
16194TIP3   OH269996   2.493   0.388  14.669 -0.2191  0.1255  0.2501
16194TIP3    H169997   2.543   0.318  14.627 -1.9109 -0.6738 -0.5279
16194TIP3    H269998   2.457   0.347  14.748  1.8763  1.2559  1.9126
16195TIP3   OH269999   3.035   2.599  11.315 -0.6250  0.0056  0.4028
16195TIP3    H170000   3.036   2.507  11.344 -1.7163 -0.1822 -0.1198
16195TIP3    H270001   3.033   2.650  11.396 -0.6293 -0.4398  0.6874
16196TIP3   OH270002   2.726   5.883  16.780 -0.6817  0.7176  0.0183
16196TIP3    H170003   2.736   5.852  16.690  1.2791 -1.3441  0.8306
16196TIP3    H270004   2.666   5.957  16.774 -3.8868 -1.7603 -2.4684
16197TIP3   OH270005   1.883   2.942   5.021 -0.0774 -0.0966 -0.3388
16197TIP3    H170006   1.943   2.952   4.947  1.4261 -1.8867  0.5740
16197TIP3    H270007   1.828   2.867   4.998  1.0223 -1.2572  0.7239
16198TIP3   OH270008   1.228   0.449  11.910 -0.1746 -0.0339  0.2533
16198TIP3    H170009   1.249   0.541  11.892  0.5755  0.1880  1.9812
16198TIP3    H270010   1.181   0.419  11.832  0.0645  1.6449 -0.5923
16199TIP3   OH270011   1.147   2.869  15.639  0.2038 -0.0139  0.3864
16199TIP3    H170012   1.161   2.859  15.734 -2.1852 -0.0831  0.7885
16199TIP3    H270013   1.085   2.941  15.631 -0.1579 -0.4514 -1.0929
16200TIP3   OH270014   1.681   5.008   2.633 -1.1282  0.1300  0.0471
16200TIP3    H170015   1.745   5.004   2.703 -1.5856  1.5683  0.5797
16200TIP3    H270016   1.718   5.071   2.570 -0.5500 -1.3960 -1.2269
16201TIP3   OH270017   6.204   4.917  10.791  0.0504 -0.0223  0.4203
16201TIP3    H170018   6.279   4.971  10.764 -0.4652  0.9275  0.8415
16201TIP3    H270019   6.243   4.834  10.818  1.0007  0.5818  0.9627
16202TIP3   OH270020   2.427   0.131   4.376 -0.0112 -0.0986 -0.2754
16202TIP3    H170021   2.379   0.213   4.387 -3.2046 -1.7647 -0.7456
16202TIP3    H270022   2.443   0.125   4.281  0.1019 -0.0989 -0.2570
16203TIP3   OH270023   2.823   1.229   4.813  0.0780  0.1184 -0.4078
16203TIP3    H170024   2.915   1.204   4.802  0.5038  1.6274 -0.5398
16203TIP3    H270025   2.820   1.272   4.899 -0.8072 -1.1158  0.2124
16204TIP3   OH270026   6.433   0.034  14.349 -0.0799 -0.3748 -0.0369
16204TIP3    H170027   6.403   0.099  14.413 -1.0603 -0.2618 -0.5872
16204TIP3    H270028   6.366  -0.034  14.352 -3.1853  1.9674 -4.5360
16205TIP3   OH270029   3.969   3.241  15.110 -0.0489 -0.0456 -0.5134
16205TIP3    H170030   3.891   3.194  15.084  0.4100 -1.1790  0.0837
16205TIP3    H270031   4.019   3.178  15.163 -0.2179  1.6116  1.8089
16206TIP3   OH270032   1.429   6.129  13.502  0.2945  0.5405  0.2064
16206TIP3    H170033   1.443   6.135  13.407 -0.7974  3.9795  0.1167
16206TIP3    H270034   1.377   6.207  13.523 -3.1535 -2.2144  3.0380
16207TIP3   OH270035   5.360   2.263  16.924 -0.2623  0.1618 -0.4909
16207TIP3    H170036   5.332   2.291  16.837  0.7863  0.2519 -0.8212
16207TIP3    H270037   5.403   2.340  16.961 -1.4889  0.4046  0.4835
16208TIP3   OH270038   5.424   1.614   1.719  1.0343  0.0134  0.0218
16208TIP3    H170039   5.330   1.595   1.719  0.3976  2.7170  0.6629
16208TIP3    H270040   5.465   1.535   1.684 -1.3185 -1.9120  1.3498
16209TIP3   OH270041   3.526   1.049   2.839  0.2185 -0.4258  0.1252
16209TIP3    H170042   3.586   1.123   2.845 -0.2853  0.0929 -0.9707
16209TIP3    H270043   3.582   0.972   2.839  0.7199 -0.1121  1.9989
16210TIP3   OH270044   2.010   3.443   1.449  0.5227  0.0639  0.0709
16210TIP3    H170045   2.091   3.494   1.457 -0.0325  1.2616 -1.4349
16210TIP3    H270046   2.028   3.381   1.379 -0.8014  2.5257 -2.7133
16211TIP3   OH270047   0.329   6.372   2.563  0.1724 -0.6431 -0.2271
16211TIP3    H170048   0.253   6.425   2.539 -1.5621 -2.8807 -0.0144
16211TIP3    H270049   0.375   6.424   2.629 -0.9963  0.8998 -0.5725
16212TIP3   OH270050   4.949   6.109  16.847  0.2214 -0.0420  0.3798
16212TIP3    H170051   4.907   6.065  16.773  0.1144  1.5682 -0.5358
16212TIP3    H270052   4.878   6.158  16.889  0.5444  0.0935  0.7715
16213TIP3   OH270053   0.912   0.181  16.356 -0.2553 -0.1715  0.2509
16213TIP3    H170054   0.923   0.201  16.449 -1.2590  1.2191  0.1098
16213TIP3    H270055   0.925   0.265  16.312 -0.1218 -0.7436 -0.8407
16214TIP3   OH270056   5.495   5.500  13.566  0.2331 -0.3854  0.0785
16214TIP3    H170057   5.405   5.488  13.599 -0.2139  1.2945 -0.4206
16214TIP3    H270058   5.511   5.594  13.575  2.2927 -0.7562  0.9676
16215TIP3   OH270059   1.681   6.671  11.240 -0.4617 -0.2770  0.4213
16215TIP3    H170060   1.609   6.612  11.220 -0.4474 -0.3423  0.5625
16215TIP3    H270061   1.760   6.618  11.227 -0.2342  0.6094 -2.8463
16216TIP3   OH270062   3.181   2.215   3.468 -0.4462 -0.2568 -0.1984
16216TIP3    H170063   3.116   2.285   3.463  1.0825  1.1610 -1.1225
16216TIP3    H270064   3.134   2.142   3.507 -2.2415  1.1135  0.3381
16217TIP3   OH270065   1.329   2.663  14.441  0.5001 -0.1477  0.0558
16217TIP3    H170066   1.263   2.615  14.491 -0.0928 -0.3718 -0.9025
16217TIP3    H270067   1.384   2.595  14.403 -0.2345 -0.0928 -1.1633
16218TIP3   OH270068   2.169   2.481  15.214 -0.3296 -0.1219 -0.9808
16218TIP3    H170069   2.221   2.439  15.146 -1.2683 -0.9039 -1.2452
16218TIP3    H270070   2.079   2.479  15.180 -0.6637  0.4138 -0.1688
16219TIP3   OH270071   5.783   0.075  15.767  0.4328 -0.6714 -0.7798
16219TIP3    H170072   5.800   0.039  15.680  2.1935 -1.3392 -0.1845
16219TIP3    H270073   5.787   0.000  15.826  0.3241 -0.0637  0.0180
16220TIP3   OH270074   4.454   3.851   5.388 -0.1738  0.6893 -0.1147
16220TIP3    H170075   4.441   3.777   5.448  1.1110  1.2043  0.8593
16220TIP3    H270076   4.480   3.810   5.305 -0.7718  0.0125  0.0128
16221TIP3   OH270077   4.606   1.367  12.396 -0.0292 -0.0597  0.4207
16221TIP3    H170078   4.623   1.415  12.476  0.0315  1.0944 -0.2629
16221TIP3    H270079   4.693   1.346  12.362 -0.0528 -0.3386  0.5284
16222TIP3   OH270080   0.410   1.822  10.897 -0.1094  0.2265  1.0888
16222TIP3    H170081   0.412   1.814  10.802 -1.0452 -1.1729  1.1453
16222TIP3    H270082   0.499   1.843  10.922  0.2696  0.0338 -0.0695
16223TIP3   OH270083   3.444   2.053   5.975  0.1724 -0.3922  0.2568
16223TIP3    H170084   3.424   1.961   5.992 -0.0181 -1.1074 -3.1386
16223TIP3    H270085   3.539   2.057   5.970  0.1350 -1.0765 -2.2395
16224TIP3   OH270086   6.531   2.230   4.919  0.2889  0.4178 -0.5564
16224TIP3    H170087   6.556   2.317   4.952  0.5255  0.5169 -0.9794
16224TIP3    H270088   6.471   2.196   4.984 -0.1241  1.0717 -0.5834
16225TIP3   OH270089   2.890   1.020   4.572 -0.2248  0.2587 -0.0189
16225TIP3    H170090   2.972   1.002   4.618 -0.0302  0.9337 -0.0956
16225TIP3    H270091   2.886   0.952   4.504  0.1763  0.1126  0.1005
16226TIP3   OH270092   1.938   2.094   6.718 -0.6505  0.4724  0.8253
16226TIP3    H170093   1.896   2.008   6.725  0.4861 -0.1123  0.6549
16226TIP3    H270094   1.897   2.134   6.641  0.5798 -0.9598 -0.6309
16227TIP3   OH270095   0.952   1.287  15.258 -0.2071  0.1082 -0.5069
16227TIP3    H170096   0.986   1.204  15.224  2.0330  1.5177 -1.9273
16227TIP3    H270097   0.929   1.267  15.349  1.9036 -1.6832 -0.2736
16228TIP3   OH270098   1.149   4.409  12.981 -0.2931 -0.5735 -0.5462
16228TIP3    H170099   1.117   4.480  13.037 -0.5397  0.8523 -2.3785
16228TIP3    H270100   1.074   4.349  12.973 -0.5196 -0.3687 -0.0165
16229TIP3   OH270101   1.194   0.661   2.101  0.4032  0.0012  0.8003
16229TIP3    H170102   1.160   0.574   2.124 -1.0755  0.3801  0.1169
16229TIP3    H270103   1.192   0.663   2.006  1.7865  0.2785  0.7581
16230TIP3   OH270104   3.767   1.704   0.736  0.4421  0.5484 -0.1800
16230TIP3    H170105   3.674   1.724   0.748  0.7619  1.3039  1.2322
16230TIP3    H270106   3.800   1.686   0.824  1.8358  1.2659 -0.5206
16231TIP3   OH270107   2.084   3.048  14.504  0.5054  0.0045 -0.2020
16231TIP3    H170108   2.069   2.994  14.427  1.0158  0.9698 -0.9986
16231TIP3    H270109   2.129   3.126  14.471  1.9059 -0.1299  1.2470
16232TIP3   OH270110   3.773   4.271   4.072 -0.2673  0.0382 -0.4779
16232TIP3    H170111   3.813   4.201   4.021 -1.2796 -0.7779 -0.1799
16232TIP3    H270112   3.745   4.228   4.153  1.5386  1.3393  0.9218
16233TIP3   OH270113   0.572   3.301  12.958  0.1995  0.7840 -0.0426
16233TIP3    H170114   0.537   3.360  13.024  0.6988  0.5930  0.4053
16233TIP3    H270115   0.635   3.354  12.910  0.4380  0.7028  0.1745
16234TIP3   OH270116   6.457   4.814   4.361  0.3201  0.1536 -0.5199
16234TIP3    H170117   6.453   4.752   4.288  1.3702 -2.5540  1.5704
16234TIP3    H270118   6.416   4.768   4.434 -2.3015  3.4380  0.3038
16235TIP3   OH270119   5.917   3.876   4.350 -0.2756 -0.1332  0.5926
16235TIP3    H170120   5.921   3.851   4.442  0.0737  0.6450  0.7971
16235TIP3    H270121   6.008   3.882   4.322 -0.3372  0.9020  0.5645
16236TIP3   OH270122   6.085   6.328  16.224  0.0577 -0.1093 -0.2772
16236TIP3    H170123   6.079   6.295  16.313  0.9787 -1.1029 -0.5572
16236TIP3    H270124   6.159   6.388  16.226 -1.1077  1.3701  0.0422
16237TIP3   OH270125   3.184   1.416   3.045  0.1431 -0.0088  0.4892
16237TIP3    H170126   3.213   1.332   3.009  1.3932  0.7351 -0.2934
16237TIP3    H270127   3.172   1.399   3.138 -1.6598 -1.5739  0.0554
16238TIP3   OH270128   5.069   3.820   2.546 -0.7349 -0.7991  0.2588
16238TIP3    H170129   5.032   3.792   2.463  0.4621 -0.8525 -0.2788
16238TIP3    H270130   5.012   3.891   2.575 -2.5056 -2.2427  0.5403
16239TIP3   OH270131   4.416   6.076   4.124 -0.0752  0.1342  0.0106
16239TIP3    H170132   4.367   6.130   4.187 -1.9506 -0.2315 -1.0739
16239TIP3    H270133   4.365   5.996   4.116  2.3827 -1.7164  1.1981
16240TIP3   OH270134   3.782   0.600  11.713  0.5947 -0.0195 -0.5960
16240TIP3    H170135   3.823   0.514  11.721 -0.0446 -0.3378 -0.6660
16240TIP3    H270136   3.822   0.639  11.636 -1.1531 -1.4311 -2.3239
16241TIP3   OH270137   5.689   3.368   1.772  0.0811  0.4854  0.6322
16241TIP3    H170138   5.646   3.406   1.849 -2.2443  0.5721 -0.6423
16241TIP3    H270139   5.619   3.355   1.709  2.0168  1.1619 -1.8160
16242TIP3   OH270140   0.565   6.384  16.168 -0.4784  0.0174 -0.5722
16242TIP3    H170141   0.619   6.443  16.221 -0.6940 -0.4989  0.2440
16242TIP3    H270142   0.508   6.442  16.118 -0.3789  0.5087 -0.1194
16243TIP3   OH270143   5.660   2.562  13.987 -0.9023 -0.4112 -0.3793
16243TIP3    H170144   5.722   2.552  14.059 -0.8901  1.1330 -0.1443
16243TIP3    H270145   5.579   2.592  14.029 -2.2075 -3.3122 -0.5442
16244TIP3   OH270146   5.546   2.943   1.334  0.2027 -0.0944  0.2460
16244TIP3    H170147   5.584   2.905   1.256 -0.8782 -0.2968 -0.2029
16244TIP3    H270148   5.467   2.988   1.303  1.0721  1.9490  0.8580
16245TIP3   OH270149   3.161   3.979  10.634  0.1250  0.1131  0.2849
16245TIP3    H170150   3.211   4.043  10.582  0.3185  0.1569  0.5210
16245TIP3    H270151   3.225   3.910  10.653 -0.2398 -0.4446 -0.4724
16246TIP3   OH270152   4.812   4.022   1.550  0.3732 -0.3372  0.3472
16246TIP3    H170153   4.855   3.938   1.532  1.5366  0.0485  1.2647
16246TIP3    H270154   4.737   3.998   1.606 -0.9196 -1.0520 -1.5787
16247TIP3   OH270155   3.902   3.225  12.468 -0.1824 -0.3248 -0.1887
16247TIP3    H170156   3.973   3.280  12.502 -0.0923  0.4117 -1.5343
16247TIP3    H270157   3.822   3.263  12.506 -0.0235  0.0146 -0.1932
16248TIP3   OH270158   2.658   3.737   1.368  0.1395  0.0942 -0.0998
16248TIP3    H170159   2.737   3.779   1.335  0.0167 -0.9066 -1.7956
16248TIP3    H270160   2.683   3.702   1.454  1.8382 -0.9399 -0.9619
16249TIP3   OH270161   4.986   1.157  10.613 -0.0886  0.6941 -0.0692
16249TIP3    H170162   4.963   1.176  10.704 -0.5327 -0.8933  0.1676
16249TIP3    H270163   4.902   1.144  10.569  0.1702 -1.2869 -0.0626
16250TIP3   OH270164   4.762   0.992  15.548  0.3427 -0.6765  0.3785
16250TIP3    H170165   4.837   1.052  15.548 -0.9940  1.0554  0.7579
16250TIP3    H270166   4.715   1.012  15.629 -2.3902  0.7121 -1.4422
16251TIP3   OH270167   4.699   3.672  13.824  0.1277  0.1268 -0.0556
16251TIP3    H170168   4.657   3.737  13.879  1.1762  1.5500 -0.8775
16251TIP3    H270169   4.792   3.677  13.846  0.7601  1.5027 -2.5855
16252TIP3   OH270170   1.933   3.478   6.178 -0.1416  0.0083 -0.0670
16252TIP3    H170171   1.884   3.421   6.236  0.2517 -0.4728 -0.1935
16252TIP3    H270172   1.984   3.535   6.237 -0.1050 -0.1566  0.0615
16253TIP3   OH270173   3.148   4.125  10.965 -0.1635  0.3345 -0.3120
16253TIP3    H170174   3.067   4.168  10.992 -0.2626 -0.8026  1.4075
16253TIP3    H270175   3.121   4.035  10.944  0.7924 -0.4653  1.6363
16254TIP3   OH270176   3.360   5.119  15.434 -0.1690 -0.1683 -0.0015
16254TIP3    H170177   3.415   5.082  15.503 -0.3660  1.9767  1.3857
16254TIP3    H270178   3.391   5.209  15.425 -2.2963  0.5751 -0.4248
16255TIP3   OH270179   1.643   3.932  11.159 -0.4615  0.1714 -0.1789
16255TIP3    H170180   1.618   3.914  11.069  0.5909  0.2773 -0.5008
16255TIP3    H270181   1.619   4.024  11.173  3.0106  1.4579 -1.6885
16256TIP3   OH270182   2.750   4.646   1.878  0.0549 -0.1668 -0.2108
16256TIP3    H170183   2.662   4.677   1.855  0.2184  0.4836  0.0437
16256TIP3    H270184   2.735   4.585   1.951 -0.2479 -0.5829 -0.6140
16257TIP3   OH270185   2.793   4.086  11.123  0.1390  0.1833  0.5988
16257TIP3    H170186   2.757   4.089  11.212  0.8093 -0.1859  0.8974
16257TIP3    H270187   2.832   4.172  11.110  1.2974 -0.2044  1.2356
16258TIP3   OH270188   1.484   1.427   1.817  0.3536 -0.4130  0.1700
16258TIP3    H170189   1.544   1.390   1.882  0.9741  1.3787  0.6852
16258TIP3    H270190   1.518   1.397   1.733  0.2344 -1.7970  0.5939
16259TIP3   OH270191   2.531   1.224  13.782  0.1960  0.8180  0.1159
16259TIP3    H170192   2.471   1.179  13.722  0.4388  0.5071  0.0968
16259TIP3    H270193   2.513   1.317  13.770  3.2026  1.1698 -3.7835
16260TIP3   OH270194   4.578   3.435   0.528 -0.1494 -0.0053 -0.2061
16260TIP3    H170195   4.613   3.524   0.531  0.7278 -0.3299 -0.3329
16260TIP3    H270196   4.564   3.418   0.435 -2.0643  0.6385 -0.0648
16261TIP3   OH270197   4.776   5.326  16.894 -0.6615 -0.4388 -0.5547
16261TIP3    H170198   4.683   5.333  16.915 -0.6125  0.0169 -0.4584
16261TIP3    H270199   4.791   5.392  16.826 -0.2681  0.0212 -0.0402
16262TIP3   OH270200   5.436   4.462  13.774 -0.0579  0.0178  0.0751
16262TIP3    H170201   5.512   4.405  13.763  0.5947  1.1102 -1.3227
16262TIP3    H270202   5.393   4.462  13.689 -1.0040  0.2854  0.5404
16263TIP3   OH270203   0.223   4.038  15.585 -0.4162  0.1400  0.2707
16263TIP3    H170204   0.154   3.975  15.568  0.5844 -0.6969 -0.8110
16263TIP3    H270205   0.263   4.009  15.667 -0.8304  0.1649  0.4816
16264TIP3   OH270206   1.529   1.309   5.134 -0.4813 -0.7620 -0.2283
16264TIP3    H170207   1.517   1.222   5.172 -0.0247 -0.7489 -0.0487
16264TIP3    H270208   1.504   1.370   5.204  1.6344 -0.7068  0.5790
16265TIP3   OH270209   2.835   4.453   4.065 -0.4471  0.1258 -0.5688
16265TIP3    H170210   2.762   4.456   4.126  0.5330  0.6884  0.6181
16265TIP3    H270211   2.858   4.545   4.051  0.8419 -0.0652  0.1052
16266TIP3   OH270212   1.935   5.528  12.597 -0.2638 -0.2455  0.0471
16266TIP3    H170213   2.015   5.478  12.579  0.0658  0.0594  0.6241
16266TIP3    H270214   1.943   5.552  12.690  0.2943  2.1124 -0.5496
16267TIP3   OH270215   5.051   3.328   4.684  0.8447 -0.2706  0.8550
16267TIP3    H170216   4.961   3.301   4.663  0.5097  0.2567  1.5866
16267TIP3    H270217   5.105   3.286   4.616 -0.0265  0.0130 -0.0411
16268TIP3   OH270218   1.658   3.460   0.742 -0.3663  1.1024  0.3470
16268TIP3    H170219   1.713   3.514   0.686 -0.1926  0.6568  0.0845
16268TIP3    H270220   1.578   3.511   0.756 -1.0672  0.5950 -1.5481
16269TIP3   OH270221   4.960   3.366  11.757 -0.2265  0.3836 -0.3923
16269TIP3    H170222   4.898   3.350  11.828  2.0472 -2.7505  1.1417
16269TIP3    H270223   4.908   3.357  11.677 -1.8182 -1.9141  0.8033
16270TIP3   OH270224   2.111   3.186   5.574 -0.2294 -0.0846 -0.1429
16270TIP3    H170225   2.081   3.096   5.563 -1.7442  0.1584  1.5363
16270TIP3    H270226   2.159   3.186   5.656 -0.6454  0.7218  0.1094
16271TIP3   OH270227   0.255   6.353  14.184  0.1899 -0.2234  0.0955
16271TIP3    H170228   0.303   6.303  14.250 -0.4346 -0.2466  0.5371
16271TIP3    H270229   0.184   6.296  14.156 -0.4467  0.3573  0.5016
16272TIP3   OH270230   4.862   2.478  14.015 -0.2657 -0.3514  0.2414
16272TIP3    H170231   4.921   2.419  14.061  0.6996 -0.2345 -0.7935
16272TIP3    H270232   4.917   2.554  13.995 -0.9995  0.1074 -0.0306
16273TIP3   OH270233   1.121   5.589  13.820 -0.1870 -0.3526 -0.0650
16273TIP3    H170234   1.063   5.531  13.770  0.6089 -1.1994 -0.0346
16273TIP3    H270235   1.147   5.656  13.757  0.0541 -0.8742 -0.5343
16274TIP3   OH270236   0.657   5.196   0.869  0.2426 -0.1276  0.1393
16274TIP3    H170237   0.739   5.154   0.893  1.6460  1.1987 -1.9906
16274TIP3    H270238   0.618   5.136   0.805 -1.6788 -1.8714  2.7675
16275TIP3   OH270239   2.548   3.970   1.558 -0.0223 -0.5764  0.3718
16275TIP3    H170240   2.467   3.966   1.610 -0.0591 -0.7120  0.3049
16275TIP3    H270241   2.595   4.045   1.594 -1.1899  0.9337 -1.0513
16276TIP3   OH270242   3.642   3.132   4.411  0.3310  0.1792  0.5759
16276TIP3    H170243   3.559   3.093   4.381  0.8718 -0.2713 -0.3852
16276TIP3    H270244   3.685   3.061   4.459  0.8819 -0.1233 -0.3392
16277TIP3   OH270245   5.067   2.643   1.544 -0.3061 -0.1330  0.1845
16277TIP3    H170246   5.158   2.646   1.517 -0.1168  0.3247  0.8531
16277TIP3    H270247   5.018   2.676   1.468 -0.1724 -2.6347 -1.1208
16278TIP3   OH270248   0.489   3.221   1.460  0.0770  0.1645  0.1871
16278TIP3    H170249   0.520   3.180   1.541 -0.4941 -0.8013 -0.0720
16278TIP3    H270250   0.569   3.238   1.411  0.4280  0.7378  0.9413
16279TIP3   OH270251   2.909   3.339  17.192  0.4772  0.3099  0.1371
16279TIP3    H170252   2.972   3.328  17.120 -0.8876 -0.7777 -0.9664
16279TIP3    H270253   2.932   3.271  17.255  0.7395  0.2642 -0.0065
16280TIP3   OH270254   2.351   5.540   0.884 -0.1628 -0.2719  0.7130
16280TIP3    H170255   2.445   5.548   0.899 -0.2957  0.5238  1.1407
16280TIP3    H270256   2.345   5.492   0.801  0.5990 -1.3756  1.2611
16281TIP3   OH270257   0.643   4.957   0.290 -0.0349 -0.8841  0.4774
16281TIP3    H170258   0.622   5.045   0.257  1.1776 -0.4101  0.8966
16281TIP3    H270259   0.737   4.948   0.274  0.7024 -0.5791  3.8499
16282TIP3   OH270260   1.485   0.474  12.193  0.5311 -0.7512 -0.2062
16282TIP3    H170261   1.453   0.400  12.141 -1.2532  0.7700 -1.3967
16282TIP3    H270262   1.558   0.509  12.142  0.6222 -0.9954 -0.2429
16283TIP3   OH270263   1.247   5.085  15.159 -0.4386  0.3438  0.0417
16283TIP3    H170264   1.153   5.070  15.160 -0.5165  0.8546  0.5367
16283TIP3    H270265   1.271   5.084  15.067 -0.5322 -2.2429 -0.0453
16284TIP3   OH270266   5.297   4.832  13.335 -0.0469 -0.0152 -0.5810
16284TIP3    H170267   5.304   4.889  13.258  0.5544  1.4371  0.5009
16284TIP3    H270268   5.262   4.750  13.300 -0.4050  0.8054 -2.2987
16285TIP3   OH270269   0.373   4.721   6.533 -0.6115  0.3327 -0.5812
16285TIP3    H170270   0.428   4.679   6.599 -1.3858 -0.0767 -0.1868
16285TIP3    H270271   0.324   4.650   6.494  1.7393  0.1469 -3.5292
16286TIP3   OH270272   5.314   1.710   1.483 -0.2999 -0.0856  0.2947
16286TIP3    H170273   5.372   1.688   1.556  1.3532 -0.8614 -1.1680
16286TIP3    H270274   5.256   1.634   1.475 -0.0553 -0.2869  0.4028
16287TIP3   OH270275   4.398   0.561  16.345 -0.6908 -0.2090 -0.2357
16287TIP3    H170276   4.408   0.612  16.264 -0.6721  2.8926  1.5769
16287TIP3    H270277   4.478   0.576  16.394 -0.8667 -1.7275  0.5968
16288TIP3   OH270278   3.350   4.180  13.262  0.5074 -0.0623 -0.2531
16288TIP3    H170279   3.410   4.106  13.263  0.6472  0.0287  1.9696
16288TIP3    H270280   3.406   4.257  13.271  0.2313  0.2064 -0.7639
16289TIP3   OH270281   2.150   0.138  12.095 -0.5808  0.2959  0.0339
16289TIP3    H170282   2.117   0.107  12.180  0.5405  1.8584  1.1019
16289TIP3    H270283   2.118   0.073  12.032 -1.0906 -1.1610  1.6910
16290TIP3   OH270284   2.922   4.581  14.272  0.0643  0.0786 -0.1664
16290TIP3    H170285   2.955   4.491  14.270 -0.2729 -0.0227 -1.6395
16290TIP3    H270286   2.829   4.572  14.295  0.1311  0.0963  0.1219
16291TIP3   OH270287   3.241   5.027  15.892 -0.1221  0.0928  0.0646
16291TIP3    H170288   3.277   5.000  15.808 -1.1601 -1.6327  0.1101
16291TIP3    H270289   3.224   4.944  15.938 -0.3762  0.9727  1.6193
16292TIP3   OH270290   3.863   4.829  14.926 -0.3425 -0.0817 -0.0275
16292TIP3    H170291   3.925   4.758  14.910 -1.4446 -0.8147 -1.2891
16292TIP3    H270292   3.824   4.808  15.011  0.2990 -0.2375  0.2352
16293TIP3   OH270293   6.212   1.372  14.594  0.1523 -0.0405  0.3587
16293TIP3    H170294   6.227   1.397  14.685  1.0870 -0.0663  0.2158
16293TIP3    H270295   6.243   1.446  14.542  0.7011 -0.4975  0.0210
16294TIP3   OH270296   6.647   5.901  10.935  0.3652 -0.0870  0.0834
16294TIP3    H170297   6.586   5.894  10.863  0.4280 -1.6818  0.1477
16294TIP3    H270298   6.734   5.891  10.895  0.5387  0.9770  0.1493
16295TIP3   OH270299   5.056   1.157   3.307  0.3897  0.7999 -0.0207
16295TIP3    H170300   5.058   1.146   3.212 -0.9295  0.2848  0.0008
16295TIP3    H270301   5.147   1.176   3.330  0.7765  0.6752 -1.3489
16296TIP3   OH270302   1.874   3.102   0.542  0.9442 -0.2035 -0.4670
16296TIP3    H170303   1.785   3.133   0.529  0.7869 -0.8682 -1.0396
16296TIP3    H270304   1.923   3.179   0.571  0.6101  0.6181 -2.0163
16297TIP3   OH270305   4.312   2.239   4.940  0.2049 -0.2955  0.2067
16297TIP3    H170306   4.376   2.171   4.961 -0.4058  0.0362  3.9065
16297TIP3    H270307   4.229   2.205   4.973 -0.4546  1.4958  0.5131
16298TIP3   OH270308   2.052   5.847  13.103 -0.2215 -0.5166 -0.2956
16298TIP3    H170309   1.978   5.888  13.149 -0.8046 -0.1962 -1.4797
16298TIP3    H270310   2.101   5.803  13.172 -2.5487 -2.3554  0.3142
16299TIP3   OH270311   1.368   0.166   1.200  0.1836 -0.0524 -0.0185
16299TIP3    H170312   1.408   0.105   1.262 -0.1178 -1.4420 -1.1387
16299TIP3    H270313   1.443   0.211   1.160  0.8843 -2.9663 -2.4445
16300TIP3   OH270314   1.684   2.648  15.497  0.0566  0.4984  0.0214
16300TIP3    H170315   1.642   2.590  15.560 -0.8850  0.7031 -0.4132
16300TIP3    H270316   1.746   2.591  15.450  1.7367  0.5984  1.9562
16301TIP3   OH270317   4.870   0.817  13.493 -0.3937  0.2349  0.3074
16301TIP3    H170318   4.884   0.731  13.455  0.0389  0.4740 -0.0723
16301TIP3    H270319   4.956   0.859  13.493 -0.4904  0.4564  1.0189
16302TIP3   OH270320   6.658   2.477   1.952  0.2401 -0.0509  0.0967
16302TIP3    H170321   6.748   2.492   1.980  0.7868 -0.0161 -1.5563
16302TIP3    H270322   6.611   2.458   2.033  1.5920  0.5446  1.0738
16303TIP3   OH270323   1.666   6.472  16.144 -0.6610 -0.1669  0.3694
16303TIP3    H170324   1.597   6.498  16.084 -0.0754  1.5437  0.3865
16303TIP3    H270325   1.703   6.554  16.176  1.2392 -1.0305  0.5314
16304TIP3   OH270326   6.389   6.264  11.622  0.2871 -0.1102  0.0306
16304TIP3    H170327   6.433   6.212  11.689 -1.0915  1.9940  2.7915
16304TIP3    H270328   6.342   6.200  11.569  2.4191 -1.9651  0.2394
16305TIP3   OH270329   2.828   4.416   3.127  0.1104 -0.0594  0.4791
16305TIP3    H170330   2.809   4.502   3.088  0.1839  0.2297  1.0686
16305TIP3    H270331   2.810   4.353   3.057 -0.7841  0.3708  0.3075
16306TIP3   OH270332   5.120   5.936   4.212  0.1118  0.2879 -0.2385
16306TIP3    H170333   5.196   5.994   4.205 -0.5193  1.3636  1.3214
16306TIP3    H270334   5.125   5.902   4.302  0.4423 -2.0999 -1.0962
16307TIP3   OH270335   2.189   0.564  11.547 -0.3603 -0.0827 -0.1982
16307TIP3    H170336   2.142   0.568  11.630 -0.1006 -0.5303 -0.0299
16307TIP3    H270337   2.228   0.652  11.538 -1.1555  0.2666 -0.3049
16308TIP3   OH270338   2.984   1.294   0.914 -0.4871 -0.4364 -0.0380
16308TIP3    H170339   3.065   1.309   0.866 -0.8599 -0.6699 -0.7676
16308TIP3    H270340   2.958   1.381   0.945  0.7458 -0.5534  1.4007
16309TIP3   OH270341   1.216   3.764  14.203  0.3108 -0.1004 -0.0410
16309TIP3    H170342   1.311   3.754  14.192  0.3762  0.7154 -0.2531
16309TIP3    H270343   1.197   3.722  14.287  1.0170  0.6538  0.5023
16310TIP3   OH270344   1.189   1.723  15.545 -0.0120  0.1040  0.5942
16310TIP3    H170345   1.225   1.687  15.465 -1.2071  0.2406 -0.0181
16310TIP3    H270346   1.131   1.655  15.579 -1.3954  0.9613  0.0313
16311TIP3   OH270347   6.202   4.430   2.711  0.7125  0.1436 -0.4687
16311TIP3    H170348   6.279   4.375   2.700  1.3264  0.8791  0.0516
16311TIP3    H270349   6.148   4.382   2.774  0.3096 -0.8068 -1.5148
16312TIP3   OH270350   4.682   3.201   3.181 -0.3543 -0.1071  0.0569
16312TIP3    H170351   4.679   3.293   3.208 -0.3271 -0.2099  0.4224
16312TIP3    H270352   4.699   3.154   3.262  2.3794 -0.2273 -0.4711
16313TIP3   OH270353   2.891   4.167   0.019 -0.8732 -0.5834  0.7302
16313TIP3    H170354   2.943   4.223   0.077 -1.4456 -2.1303  2.8840
16313TIP3    H270355   2.953   4.136  -0.047 -0.1292  1.0461  0.6195
16314TIP3   OH270356   3.623   6.197   5.901  0.4766 -0.2446 -0.2030
16314TIP3    H170357   3.711   6.221   5.873  0.9272 -1.0121  0.4821
16314TIP3    H270358   3.636   6.117   5.953 -0.5228  0.1207  0.6409
16315TIP3   OH270359   4.382   1.556   5.826  0.1373  0.1816 -0.3493
16315TIP3    H170360   4.393   1.559   5.921 -2.1504 -0.2903 -0.0274
16315TIP3    H270361   4.317   1.623   5.806 -1.2261 -1.3330 -1.2449
16316TIP3   OH270362   3.723   4.232  15.923  0.4714  0.0258  0.6082
16316TIP3    H170363   3.703   4.171  15.852  0.4036 -0.6458  1.1938
16316TIP3    H270364   3.653   4.297  15.919  1.2084  0.7658 -0.7835
16317TIP3   OH270365   2.054   1.452  16.282  0.4849  0.0653 -0.4223
16317TIP3    H170366   2.067   1.453  16.187  2.1586 -2.2688 -0.3070
16317TIP3    H270367   1.988   1.385  16.297  0.9388 -0.2720  0.1192
16318TIP3   OH270368   5.176   0.738  12.975 -0.4403  0.0688  0.1485
16318TIP3    H170369   5.081   0.738  12.978 -0.5400 -0.2701 -1.8486
16318TIP3    H270370   5.200   0.648  12.953  0.4393 -0.1404  1.7554
16319TIP3   OH270371   0.987   6.331  17.160  0.3838  0.1349 -0.1415
16319TIP3    H170372   0.942   6.403  17.116  0.1033  0.2837  0.3900
16319TIP3    H270373   1.040   6.373  17.227  0.0200 -0.1732  0.3427
16320TIP3   OH270374   4.032   0.776  12.300  0.0860 -0.4209 -0.4641
16320TIP3    H170375   3.981   0.700  12.328  0.0542 -0.3121 -0.2280
16320TIP3    H270376   3.971   0.826  12.246 -1.0983  1.2958  2.2533
16321TIP3   OH270377   5.053   2.804  15.418 -0.1509  0.3428  0.4350
16321TIP3    H170378   4.999   2.871  15.376 -0.2429 -0.4804 -0.8134
16321TIP3    H270379   4.991   2.742  15.454 -0.0561  0.0949  0.1748
16322TIP3   OH270380   0.631   6.451   4.788 -0.1788  0.0826  0.1655
16322TIP3    H170381   0.712   6.497   4.812  1.2780 -2.0076 -0.4839
16322TIP3    H270382   0.646   6.423   4.697 -1.2719 -1.0780  0.3259
16323TIP3   OH270383   3.909   0.572   0.023  0.2191 -0.2862  0.0576
16323TIP3    H170384   3.877   0.520   0.097 -0.1124 -0.5632 -0.2743
16323TIP3    H270385   3.989   0.528  -0.005 -1.1432 -1.9139 -1.5572
16324TIP3   OH270386   5.402   3.893  17.012  0.0087 -0.0570 -0.1231
16324TIP3    H170387   5.317   3.891  16.969  0.8436 -0.2456 -1.8215
16324TIP3    H270388   5.434   3.803  17.006  0.7780  0.2343 -0.4302
16325TIP3   OH270389   5.391   2.364  13.423 -0.1479  0.1861  0.3307
16325TIP3    H170390   5.452   2.321  13.363  1.2679  0.2944  1.6225
16325TIP3    H270391   5.332   2.294  13.452  0.6575 -0.3919  0.6152
16326TIP3   OH270392   3.519   1.756   4.524  0.5499 -0.6990 -0.2232
16326TIP3    H170393   3.425   1.774   4.522  0.4260 -1.3577 -0.3478
16326TIP3    H270394   3.557   1.822   4.466  0.4154  0.9979  1.5115
16327TIP3   OH270395   4.849   6.752   3.261  0.0509 -0.1973 -0.3898
16327TIP3    H170396   4.801   6.742   3.179 -1.6606 -2.0220  0.7319
16327TIP3    H270397   4.799   6.819   3.310 -0.4207 -0.8863  0.1024
16328TIP3   OH270398   6.401   4.160  15.177  0.1274 -0.1750  0.2861
16328TIP3    H170399   6.357   4.123  15.101  0.5957  2.0372 -1.1474
16328TIP3    H270400   6.493   4.139  15.164  0.1604 -0.1372  0.4518
16329TIP3   OH270401   4.614   1.392   1.241 -0.0926  0.3010 -0.4694
16329TIP3    H170402   4.590   1.476   1.203 -1.5426 -0.1627 -0.6613
16329TIP3    H270403   4.534   1.339   1.233  0.4681 -0.7448  0.5891
16330TIP3   OH270404   4.279   5.312  12.189 -0.1809 -0.3716  0.0339
16330TIP3    H170405   4.341   5.239  12.185 -1.4697 -1.4677 -2.3477
16330TIP3    H270406   4.333   5.390  12.201  1.5486 -1.3821 -0.8009
16331TIP3   OH270407   2.529   4.107  14.247  0.3612 -0.1066  0.1587
16331TIP3    H170408   2.619   4.095  14.277  0.7014  2.5226  0.3456
16331TIP3    H270409   2.537   4.159  14.167 -0.9507 -0.8048 -0.4616
16332TIP3   OH270410   0.686   6.119   2.681  0.5127  0.2101 -0.0035
16332TIP3    H170411   0.742   6.062   2.734  0.2588  1.5239  1.7901
16332TIP3    H270412   0.627   6.060   2.635  1.3114 -1.0382  0.5318
16333TIP3   OH270413   6.744   4.415   0.862  0.2554  0.6908  0.0805
16333TIP3    H170414   6.669   4.433   0.805  1.9061  2.9784 -1.5827
16333TIP3    H270415   6.750   4.320   0.866 -2.3890  0.4556 -0.1371
16334TIP3   OH270416   3.066   0.456  13.705 -0.3078  0.3643  0.0860
16334TIP3    H170417   3.039   0.397  13.776  1.7957 -1.1669 -0.2812
16334TIP3    H270418   3.080   0.540  13.747 -0.5436 -0.1468  1.2130
16335TIP3   OH270419   2.459   6.766   0.544 -0.9605  0.4474 -0.0655
16335TIP3    H170420   2.492   6.810   0.622 -0.8694 -1.5987  1.1063
16335TIP3    H270421   2.498   6.679   0.546 -2.7145 -0.4389 -1.1780
16336TIP3   OH270422   5.562   4.009   2.597  0.3202  0.1284  0.0093
16336TIP3    H170423   5.486   4.010   2.655  1.1419  0.7333  1.1335
16336TIP3    H270424   5.549   4.084   2.538  0.2870  0.5638  0.5566
16337TIP3   OH270425   5.693   5.922   5.980  0.3756 -0.2910 -0.5994
16337TIP3    H170426   5.642   6.000   5.960 -1.5935 -1.4423 -0.3948
16337TIP3    H270427   5.737   5.942   6.063 -0.3696  0.4798 -0.3763
16338TIP3   OH270428   0.679   1.610   2.622  0.0116 -0.4152  0.2389
16338TIP3    H170429   0.591   1.646   2.615 -0.2563 -1.0165  0.4625
16338TIP3    H270430   0.716   1.620   2.534 -0.2413 -0.0846  0.1667
16339TIP3   OH270431   0.455   6.642   5.053  0.9423 -0.7541  0.1897
16339TIP3    H170432   0.369   6.639   5.096 -0.1431  0.0578 -1.8001
16339TIP3    H270433   0.466   6.554   5.016  0.3618 -0.4990 -0.6191
16340TIP3   OH270434   3.324   5.816  13.831 -0.4528  0.4848  0.1388
16340TIP3    H170435   3.292   5.770  13.753 -0.6453  0.2456  0.3598
16340TIP3    H270436   3.298   5.761  13.905  0.2880  0.3862  0.3406
16341TIP3   OH270437   0.385   5.263   4.698 -0.2075 -0.0115  0.2123
16341TIP3    H170438   0.401   5.325   4.627 -1.9944  0.5772  0.2800
16341TIP3    H270439   0.437   5.297   4.771  0.6394  0.0894 -0.4092
16342TIP3   OH270440   1.228   1.529   0.547  0.1468 -0.2217  0.6414
16342TIP3    H170441   1.153   1.588   0.557 -0.2622 -0.7733  0.9188
16342TIP3    H270442   1.196   1.445   0.579 -0.1867 -1.3224 -2.2130
16343TIP3   OH270443   0.970   2.185   5.413  0.1220  0.1287  0.2546
16343TIP3    H170444   0.962   2.221   5.501  0.3099 -0.0628  0.3520
16343TIP3    H270445   0.882   2.151   5.393 -0.0466  0.6178  0.1689
16344TIP3   OH270446   0.671   3.920   0.603  0.4344 -0.3588  0.0789
16344TIP3    H170447   0.747   3.868   0.628  0.0606 -1.0203 -0.1327
16344TIP3    H270448   0.695   4.009   0.626  2.3096 -0.1407 -2.3354
16345TIP3   OH270449   0.473   5.104   0.036  0.4248  0.7639 -0.4133
16345TIP3    H170450   0.481   5.179  -0.024  1.9441  0.4919 -0.5874
16345TIP3    H270451   0.509   5.030  -0.013 -1.3382 -0.1880 -0.3601
16346TIP3   OH270452   2.904   2.877  17.047 -0.2032  0.0976  0.3177
16346TIP3    H170453   2.825   2.829  17.072 -0.0698  0.5790  1.7485
16346TIP3    H270454   2.962   2.869  17.123  0.8138  0.4232 -0.3992
16347TIP3   OH270455   3.419   5.758  13.106  0.0461  0.6168  0.8272
16347TIP3    H170456   3.385   5.819  13.171  2.4367  1.5609  1.2758
16347TIP3    H270457   3.412   5.805  13.023 -2.9549 -0.5687  0.2561
16348TIP3   OH270458   0.315   2.545   5.672 -0.4195 -0.1618  0.0412
16348TIP3    H170459   0.288   2.625   5.626 -0.1163 -0.4951 -0.7206
16348TIP3    H270460   0.343   2.576   5.758 -0.1197  0.5779 -0.3124
16349TIP3   OH270461   3.793   1.525   3.311 -0.2095 -0.1967 -0.5012
16349TIP3    H170462   3.788   1.620   3.297 -1.6183  0.3857  3.1035
16349TIP3    H270463   3.887   1.506   3.313  0.1611  1.5274  0.7190
16350TIP3   OH270464   1.790   4.613  12.112 -0.3324  0.0380 -0.1543
16350TIP3    H170465   1.745   4.586  12.192 -0.5740  1.8217  0.3416
16350TIP3    H270466   1.863   4.666  12.142  0.1595 -0.0912 -1.0921
16351TIP3   OH270467   0.518   3.673  15.785  0.3214  0.1650 -0.2120
16351TIP3    H170468   0.468   3.600  15.748  1.6535 -1.0269  0.2683
16351TIP3    H270469   0.600   3.672  15.737  0.8822  0.4958  0.7236
16352TIP3   OH270470   3.224   5.330   2.535  0.0949  0.6767  0.2086
16352TIP3    H170471   3.296   5.340   2.473  0.7682  0.1886  0.8866
16352TIP3    H270472   3.256   5.371   2.616 -0.8818  1.5647  0.1636
16353TIP3   OH270473   0.162   3.076  14.213 -0.4896 -0.2785 -0.1368
16353TIP3    H170474   0.220   3.148  14.237 -0.9847 -0.3827  1.4306
16353TIP3    H270475   0.194   3.048  14.127  0.9850  0.4828  0.1283
16354TIP3   OH270476   5.811   4.904   6.117 -0.1774  0.4480  0.0242
16354TIP3    H170477   5.874   4.928   6.185 -0.3687  2.6005 -0.4877
16354TIP3    H270478   5.863   4.856   6.053  0.0936 -1.2160  1.4214
16355TIP3   OH270479   0.982   4.640  12.338 -0.3741  0.3207  0.1857
16355TIP3    H170480   1.048   4.600  12.283 -0.6481 -1.5178  1.0939
16355TIP3    H270481   0.900   4.632  12.288 -0.2750  0.6298 -0.0293
16356TIP3   OH270482   6.045   0.376  11.042  0.4123 -0.5771 -0.5818
16356TIP3    H170483   6.014   0.448  10.987 -1.9552 -0.5928  0.5998
16356TIP3    H270484   6.137   0.396  11.058  0.4943  0.7904 -2.3866
16357TIP3   OH270485   2.770   6.684  15.910  0.2867  0.0914  0.4010
16357TIP3    H170486   2.814   6.759  15.952  1.0833  0.0996 -0.4233
16357TIP3    H270487   2.761   6.710  15.818  1.2251 -1.0945 -0.0516
16358TIP3   OH270488   5.354   2.281   4.064  0.4702  0.0799 -0.1771
16358TIP3    H170489   5.342   2.353   4.002 -1.7079  1.2466  1.4181
16358TIP3    H270490   5.267   2.240   4.070  1.7472 -3.0837 -1.3819
16359TIP3   OH270491   0.814   5.706  11.760  0.2691  0.3218 -0.3933
16359TIP3    H170492   0.845   5.617  11.745 -0.5808 -0.2540  1.1271
16359TIP3    H270493   0.883   5.748  11.811  0.1464  0.1664 -0.1008
16360TIP3   OH270494   0.749   5.129   2.424  0.5732 -0.5495 -0.5471
16360TIP3    H170495   0.708   5.149   2.340 -0.9846 -1.7129 -0.1047
16360TIP3    H270496   0.733   5.206   2.478  1.3650  0.1023 -1.2137
16361TIP3   OH270497   4.883   2.693  14.843  0.0569  0.1521 -0.5291
16361TIP3    H170498   4.824   2.716  14.915  0.8778 -0.1360  0.2598
16361TIP3    H270499   4.863   2.601  14.824  0.4144 -0.0318 -0.0686
16362TIP3   OH270500   1.299   5.111   6.387 -0.0800 -0.0379 -0.0347
16362TIP3    H170501   1.248   5.136   6.310  2.3075 -0.1356 -1.7530
16362TIP3    H270502   1.381   5.159   6.378  1.2777 -2.0228  1.0619
16363TIP3   OH270503   1.067   1.567  14.438  0.4409 -0.1539  0.3730
16363TIP3    H170504   1.068   1.491  14.495  1.6989 -0.8043 -0.4855
16363TIP3    H270505   0.976   1.599  14.443  0.2351 -0.8895  1.7806
16364TIP3   OH270506   0.261   3.649   5.755  0.5428  0.3477 -0.5731
16364TIP3    H170507   0.238   3.627   5.665  2.1574  2.8580 -1.6875
16364TIP3    H270508   0.353   3.674   5.751  0.9031 -0.2675  1.9636
16365TIP3   OH270509   1.507   5.185  13.089 -0.0839  0.0307 -0.3951
16365TIP3    H170510   1.514   5.096  13.123 -1.5191  0.5657  1.4432
16365TIP3    H270511   1.447   5.179  13.015 -0.5127 -0.4603 -0.0070
16366TIP3   OH270512   5.605   2.343   4.709 -0.1319 -0.5044 -0.6712
16366TIP3    H170513   5.626   2.432   4.738  1.3225 -0.9559 -0.2372
16366TIP3    H270514   5.612   2.347   4.613  0.4465 -0.2637 -0.6249
16367TIP3   OH270515   5.670   0.036  14.810  0.5950  0.3701  0.7889
16367TIP3    H170516   5.634   0.104  14.753 -0.9523 -0.1626  1.0738
16367TIP3    H270517   5.642   0.062  14.898  0.5895 -0.2589  0.9761
16368TIP3   OH270518   1.958   0.873  16.155 -0.1211  0.3799  0.0933
16368TIP3    H170519   1.941   0.810  16.226  2.6842  0.4815  0.9951
16368TIP3    H270520   2.053   0.872  16.145 -0.2315  2.3255 -1.9235
16369TIP3   OH270521   4.758   4.229   4.398  0.2655 -0.7615 -0.0326
16369TIP3    H170522   4.665   4.211   4.412  0.1230  0.4712  0.7597
16369TIP3    H270523   4.760   4.316   4.358  1.1250 -0.1302  1.3023
16370TIP3   OH270524   2.848   6.395  15.453  0.2238  0.4427 -0.3475
16370TIP3    H170525   2.835   6.379  15.359  0.9326 -0.6735 -0.2736
16370TIP3    H270526   2.766   6.369  15.494  0.1641  0.2564 -0.5853
16371TIP3   OH270527   3.795   0.647   1.846  0.0316 -0.8485  0.2644
16371TIP3    H170528   3.864   0.614   1.902  0.8783  0.1362 -0.1642
16371TIP3    H270529   3.816   0.739   1.833 -0.5290 -0.8817 -1.0990
16372TIP3   OH270530   4.738   4.811   0.547 -0.4160 -0.1724 -0.7496
16372TIP3    H170531   4.727   4.716   0.540 -0.8196 -0.1155 -0.8908
16372TIP3    H270532   4.651   4.846   0.532 -0.2044  0.2404 -1.0204
16373TIP3   OH270533   2.448   6.049   2.008 -0.3856  0.0660 -0.6261
16373TIP3    H170534   2.440   6.051   1.913 -0.8995  0.3257 -0.5840
16373TIP3    H270535   2.416   5.963   2.033 -1.3638  0.4125 -0.6105
16374TIP3   OH270536   3.242   6.715  13.613  0.5418 -0.0373  0.7125
16374TIP3    H170537   3.279   6.701  13.526 -1.1886 -1.9659  0.2225
16374TIP3    H270538   3.148   6.728  13.597  0.1863 -0.4932  2.2977
16375TIP3   OH270539   6.137   3.469   0.209  0.5285  0.0944 -0.9297
16375TIP3    H170540   6.047   3.447   0.189 -1.1393  4.2689  0.8223
16375TIP3    H270541   6.173   3.503   0.127 -0.4216  0.8988 -1.0241
16376TIP3   OH270542   3.082   1.100  14.528  0.3346 -0.1577  0.3517
16376TIP3    H170543   3.155   1.144  14.483  0.8001  0.2516  1.4733
16376TIP3    H270544   3.006   1.120  14.474  0.9691 -0.1660 -0.5724
16377TIP3   OH270545   3.400   1.625  11.132 -0.8028 -0.4225 -0.7994
16377TIP3    H170546   3.409   1.531  11.149 -2.3569 -0.4482  0.0534
16377TIP3    H270547   3.332   1.631  11.065 -0.5609  0.0956 -1.0006
16378TIP3   OH270548   0.885   2.333  13.548  0.3663 -0.0958 -0.4679
16378TIP3    H170549   0.979   2.350  13.537  0.5956 -1.1495 -0.2573
16378TIP3    H270550   0.854   2.406  13.601  1.0401  0.3372 -0.6593
16379TIP3   OH270551   1.692   2.138   5.346  0.5084  0.3844  0.2729
16379TIP3    H170552   1.678   2.214   5.403  2.3119  0.8046  0.2160
16379TIP3    H270553   1.788   2.127   5.344  0.5912  0.7937 -3.2059
16380TIP3   OH270554   3.443   5.447  12.996  0.2041 -0.0965 -0.2488
16380TIP3    H170555   3.521   5.481  12.951 -0.6654  0.8462 -1.0926
16380TIP3    H270556   3.410   5.522  13.046  0.1260 -0.6367  0.5327
16381TIP3   OH270557   6.690   2.320  14.869  0.3027  0.1687 -0.8270
16381TIP3    H170558   6.701   2.317  14.964 -0.9594 -0.9112 -0.6834
16381TIP3    H270559   6.691   2.413  14.847 -2.8997  0.6871  0.7136
16382TIP3   OH270560   5.294   0.372  15.790  0.0518  0.2442 -0.2999
16382TIP3    H170561   5.282   0.299  15.730  1.5260  1.7742 -2.5911
16382TIP3    H270562   5.215   0.425  15.779  0.5779  0.8267 -1.3904
16383TIP3   OH270563   2.600   4.578   5.930 -0.2240  0.7755  0.0477
16383TIP3    H170564   2.508   4.559   5.950 -0.0867  1.3210  1.2705
16383TIP3    H270565   2.647   4.498   5.951  0.0179  1.5451  2.7922
16384TIP3   OH270566   5.215   6.704   2.586 -0.3644  0.3080  0.3843
16384TIP3    H170567   5.272   6.749   2.649  0.0644  2.3198 -1.3108
16384TIP3    H270568   5.261   6.622   2.566  0.6843  0.7554  0.9013
16385TIP3   OH270569   0.383   5.012   1.061 -0.2823  0.4332 -0.3234
16385TIP3    H170570   0.346   5.023   0.974 -0.6170 -0.3168 -0.2805
16385TIP3    H270571   0.438   4.934   1.054 -1.1428 -0.2703  0.3867
16386TIP3   OH270572   6.753   3.359  14.421  0.0261  0.0122 -0.1016
16386TIP3    H170573   6.819   3.428  14.426  1.6338 -1.5220  1.5632
16386TIP3    H270574   6.750   3.335  14.328 -1.0367  2.6531 -0.8374
16387TIP3   OH270575   3.331   5.421   1.676  0.5182 -0.2761 -1.0005
16387TIP3    H170576   3.243   5.431   1.713  1.0393 -1.2234  0.6201
16387TIP3    H270577   3.356   5.331   1.698  2.5696  0.5126  0.2145
16388TIP3   OH270578   5.534   3.580  10.245  0.5388 -0.4413 -0.0096
16388TIP3    H170579   5.538   3.528  10.325  1.0258  0.4408  0.5605
16388TIP3    H270580   5.554   3.669  10.274  0.4170 -0.0579 -1.0706
16389TIP3   OH270581   1.460   3.014   3.390  0.0502  0.4631  0.2422
16389TIP3    H170582   1.484   3.096   3.345  0.1734  0.5651  0.4937
16389TIP3    H270583   1.364   3.012   3.386  0.0934 -0.1967 -1.2178
16390TIP3   OH270584   4.067   5.718  14.321 -0.6418  0.6822 -0.3631
16390TIP3    H170585   4.044   5.675  14.239 -2.3713  1.2770 -0.2321
16390TIP3    H270586   4.007   5.682  14.386 -0.5911  1.6209  0.2342
16391TIP3   OH270587   2.030   1.219   0.587 -0.3398  0.5564  0.2940
16391TIP3    H170588   1.984   1.268   0.656 -1.4271 -0.4557  0.3226
16391TIP3    H270589   1.959   1.186   0.531  0.3176 -1.3242  0.5116
16392TIP3   OH270590   2.885   6.118  12.435  0.5017 -0.0683 -0.3117
16392TIP3    H170591   2.919   6.151  12.351 -1.7771 -0.6233 -1.5327
16392TIP3    H270592   2.793   6.142  12.434 -0.5692 -3.6234  0.1509
16393TIP3   OH270593   0.803   5.173  16.027  0.2028  0.4400 -0.2108
16393TIP3    H170594   0.777   5.228  15.953  1.1903 -0.1382 -1.0150
16393TIP3    H270595   0.735   5.188  16.093 -1.4359 -0.0018 -1.7031
16394TIP3   OH270596   0.862   5.587   1.226  0.1593 -0.3545  0.1025
16394TIP3    H170597   0.809   5.518   1.186 -1.4940 -0.5733  2.4706
16394TIP3    H270598   0.818   5.669   1.202  0.9811 -0.2314 -1.0596
16395TIP3   OH270599   3.393   3.020   4.366 -0.1647 -0.6111  0.7374
16395TIP3    H170600   3.354   3.004   4.281  2.4417 -0.1390 -0.6685
16395TIP3    H270601   3.360   3.106   4.392 -0.9329 -0.7282  0.1555
16396TIP3   OH270602   5.472   1.841   3.339 -0.1648  0.0109 -0.6921
16396TIP3    H170603   5.446   1.890   3.418 -0.0596 -0.7030 -0.2097
16396TIP3    H270604   5.392   1.798   3.310 -0.0756 -0.1852 -0.6462
16397TIP3   OH270605   5.494   6.619   0.540 -0.4997 -0.2269  0.3260
16397TIP3    H170606   5.514   6.696   0.486 -0.6726 -0.4763 -0.0998
16397TIP3    H270607   5.572   6.564   0.534 -1.2314 -1.1421 -1.2348
16398TIP3   OH270608   5.911   5.782  16.280  0.0294  0.4832  0.1906
16398TIP3    H170609   5.992   5.761  16.234 -0.9425 -0.0809 -1.3450
16398TIP3    H270610   5.930   5.762  16.371  0.9877 -1.6254 -0.4038
16399TIP3   OH270611   3.119   6.693  13.055  0.4139  0.6766  0.1471
16399TIP3    H170612   3.138   6.779  13.017  0.9239 -0.2294 -1.8111
16399TIP3    H270613   3.025   6.695  13.074  0.6894  2.1603  1.5778
16400TIP3   OH270614   4.491   5.481   4.950  0.2413 -0.1773 -0.7366
16400TIP3    H170615   4.469   5.572   4.973 -0.7067 -0.9273  1.7505
16400TIP3    H270616   4.584   5.483   4.931 -0.3415  1.8692 -4.3167
16401TIP3   OH270617   4.403   4.580   3.691  0.6061  0.3238  0.2569
16401TIP3    H170618   4.446   4.537   3.617 -1.6876 -1.6292 -0.0839
16401TIP3    H270619   4.425   4.526   3.766  0.4899  0.5735  0.4716
16402TIP3   OH270620   6.070   1.561  11.202  0.2475  0.1747 -0.0197
16402TIP3    H170621   6.109   1.636  11.157 -1.8446  1.3783  0.0791
16402TIP3    H270622   6.088   1.576  11.295  1.0121 -0.1881 -0.0992
16403TIP3   OH270623   5.697   5.115   2.786 -0.1446  0.2051 -0.2777
16403TIP3    H170624   5.765   5.173   2.818 -0.1323 -0.0611  0.1869
16403TIP3    H270625   5.744   5.041   2.746 -0.1612  0.4154 -0.6941
16404TIP3   OH270626   2.253   5.842   2.985 -0.1318 -0.5576  0.0634
16404TIP3    H170627   2.336   5.855   2.940  1.6635 -0.0783  3.2013
16404TIP3    H270628   2.206   5.779   2.931  1.5564  0.3290 -2.6478
16405TIP3   OH270629   0.601   3.336  15.640 -0.3780 -0.2667 -0.2008
16405TIP3    H170630   0.668   3.279  15.602 -0.7881 -1.1401  0.3618
16405TIP3    H270631   0.634   3.356  15.727 -0.9763 -0.9254  0.1803
16406TIP3   OH270632   0.856   1.045   3.961  0.3389  0.4146  0.0152
16406TIP3    H170633   0.782   1.002   4.003  1.1659 -0.7150  0.3719
16406TIP3    H270634   0.926   1.042   4.027  1.3691 -0.5340 -1.0765
16407TIP3   OH270635   1.383   1.653   5.741 -0.0550 -0.6781  0.2419
16407TIP3    H170636   1.412   1.635   5.831  0.6650  1.5532  0.5240
16407TIP3    H270637   1.368   1.748   5.740 -3.5688 -1.1085 -1.0343
16408TIP3   OH270638   3.160   6.323   4.389 -0.1582 -0.4300  0.0870
16408TIP3    H170639   3.079   6.274   4.379 -0.0505 -0.6236  0.1602
16408TIP3    H270640   3.153   6.365   4.475 -1.5927  2.1702 -1.1694
16409TIP3   OH270641   4.987   3.350   2.681 -0.1374  0.6504  0.1314
16409TIP3    H170642   5.034   3.433   2.692  0.8537 -0.0596  1.5329
16409TIP3    H270643   5.055   3.283   2.690 -1.0710 -0.3407 -0.0667
16410TIP3   OH270644   2.027   4.572   5.317 -0.3073 -0.3214  0.0245
16410TIP3    H170645   2.114   4.611   5.327 -0.7968  1.0306 -0.8339
16410TIP3    H270646   1.993   4.565   5.407  0.5565 -0.5928  0.3405
16411TIP3   OH270647   1.756   4.921   1.197  0.4966  0.2859 -0.4676
16411TIP3    H170648   1.826   4.862   1.167 -1.3468 -1.7091 -1.1416
16411TIP3    H270649   1.688   4.913   1.129 -0.3975  2.1670  0.1475
16412TIP3   OH270650   5.821   1.185  13.686 -0.2164  0.4634  0.3838
16412TIP3    H170651   5.793   1.098  13.657 -1.9955  0.6025  1.5170
16412TIP3    H270652   5.837   1.234  13.605 -0.8727 -0.3976 -0.2816
16413TIP3   OH270653   5.700   1.332  17.042 -0.1305 -0.1932 -0.2095
16413TIP3    H170654   5.787   1.302  17.066 -1.3570 -2.7984  1.4888
16413TIP3    H270655   5.704   1.427  17.050  2.1817 -0.3205  1.1669
16414TIP3   OH270656   2.227   3.868   3.077 -0.4981 -0.3156  0.3275
16414TIP3    H170657   2.300   3.919   3.042  1.3914  0.6749  4.8845
16414TIP3    H270658   2.152   3.927   3.074 -0.9889 -0.9308 -3.3366
16415TIP3   OH270659   5.545   3.885  13.344  0.0306  0.1679  0.2915
16415TIP3    H170660   5.503   3.801  13.364 -1.4526 -0.1115 -3.2331
16415TIP3    H270661   5.620   3.862  13.289 -0.2485  1.0986 -0.5088
16416TIP3   OH270662   0.749   4.652   0.033  0.4951  0.0117  0.2990
16416TIP3    H170663   0.719   4.593   0.102 -0.5029 -0.4049 -0.4693
16416TIP3    H270664   0.843   4.661   0.048  0.3543 -0.3747  1.4709
16417TIP3   OH270665   4.822   3.988   4.597 -0.0334  0.0880  0.5374
16417TIP3    H170666   4.816   4.069   4.546  0.5849  0.9516  1.7804
16417TIP3    H270667   4.913   3.986   4.627 -0.8900  0.9350  3.6232
16418TIP3   OH270668   2.227   5.488   4.083 -0.1456  0.4983 -0.5773
16418TIP3    H170669   2.256   5.560   4.138  1.1846  0.4007 -1.1030
16418TIP3    H270670   2.281   5.495   4.004 -1.0160 -0.2027 -1.2612
16419TIP3   OH270671   2.752   5.176  16.267 -0.0144  0.4427  0.3134
16419TIP3    H170672   2.767   5.148  16.358  0.1208  0.7419  0.3837
16419TIP3    H270673   2.701   5.257  16.275  1.0832  1.1626  0.1538
16420TIP3   OH270674   4.406   5.554   0.125 -0.2486 -0.1614  0.1126
16420TIP3    H170675   4.314   5.564   0.104 -0.9518 -1.4970  2.2039
16420TIP3    H270676   4.433   5.640   0.158  0.1043  1.0695 -2.9846
16421TIP3   OH270677   1.925   4.670   3.757  0.6756 -0.0156  0.4002
16421TIP3    H170678   1.967   4.587   3.735  0.4510 -0.2247  0.7479
16421TIP3    H270679   1.973   4.735   3.706  0.3398 -0.4484 -0.4777
16422TIP3   OH270680   3.571   2.247   1.696 -0.4127  0.2323  0.4178
16422TIP3    H170681   3.536   2.245   1.785  0.3815  1.5740  0.7918
16422TIP3    H270682   3.503   2.289   1.644 -1.3162 -1.4783  0.1435
16423TIP3   OH270683   2.414   5.225   4.323 -0.1643 -0.7663 -0.0784
16423TIP3    H170684   2.389   5.152   4.266  0.7140 -1.5113  0.4471
16423TIP3    H270685   2.332   5.271   4.340 -1.0426 -2.4931  0.7336
16424TIP3   OH270686   5.270   6.187   5.061 -0.3254  0.7484  0.5339
16424TIP3    H170687   5.324   6.234   5.124  2.6288 -1.9067  0.2585
16424TIP3    H270688   5.180   6.199   5.091  0.7399  1.9817  3.5205
16425TIP3   OH270689   1.608   6.738   3.287  0.1247  0.3253  0.1115
16425TIP3    H170690   1.677   6.692   3.239 -0.7259 -0.8042 -0.0814
16425TIP3    H270691   1.622   6.715   3.379 -0.0425  0.0144  0.0613
16426TIP3   OH270692   1.974   3.807  11.261 -0.1468  0.1926  0.4590
16426TIP3    H170693   2.063   3.778  11.277  0.0234  0.1904 -0.4537
16426TIP3    H270694   1.950   3.855  11.340 -0.2570 -1.9404  1.8157
16427TIP3   OH270695   2.152   6.249   0.697 -0.1784  0.3976 -0.2602
16427TIP3    H170696   2.195   6.199   0.627 -0.6678 -1.3440  0.6258
16427TIP3    H270697   2.184   6.338   0.685  1.7966 -0.3602 -1.0974
16428TIP3   OH270698   5.305   6.268   3.424 -0.7850 -0.0544 -0.1866
16428TIP3    H170699   5.306   6.359   3.395  2.5293 -0.1756 -0.8400
16428TIP3    H270700   5.321   6.273   3.519 -1.4443  0.0671 -0.0821
16429TIP3   OH270701   4.443   3.124  14.066 -0.1970  0.4373  0.1931
16429TIP3    H170702   4.360   3.122  14.019  1.0591 -0.7546 -2.1887
16429TIP3    H270703   4.430   3.186  14.137 -2.1854  2.6058 -1.9074
16430TIP3   OH270704   6.717   6.605  13.742  0.4137 -0.5228 -0.6081
16430TIP3    H170705   6.722   6.552  13.821 -1.7318 -1.6934 -1.1768
16430TIP3    H270706   6.799   6.654  13.741  1.3007 -1.8268  1.3582
16431TIP3   OH270707   4.107   6.387   6.466 -0.7322 -0.0197 -0.5798
16431TIP3    H170708   4.123   6.339   6.547  0.3992 -0.1268 -0.8518
16431TIP3    H270709   4.126   6.325   6.396 -0.9091  0.3183 -0.9357
16432TIP3   OH270710   0.845   6.768   1.421  0.4467  0.3508 -0.0096
16432TIP3    H170711   0.894   6.703   1.471 -0.2930  1.9777  3.1513
16432TIP3    H270712   0.910   6.835   1.399  0.7530 -0.3200 -1.2470
16433TIP3   OH270713   3.466   0.525  12.980 -0.3920  0.0798 -0.4494
16433TIP3    H170714   3.460   0.452  12.918 -1.5640 -0.4438  0.2635
16433TIP3    H270715   3.396   0.584  12.954 -1.9373 -0.8908  1.2872
16434TIP3   OH270716   3.269   0.216  13.973  0.1239  0.0685  0.1711
16434TIP3    H170717   3.277   0.285  14.040 -1.4103  0.2290  0.2218
16434TIP3    H270718   3.195   0.243  13.919  0.6980 -0.5902 -0.9852
16435TIP3   OH270719   5.642   6.411   3.123 -0.5170 -0.3686 -0.2139
16435TIP3    H170720   5.681   6.340   3.072  0.1418 -0.0284 -0.1971
16435TIP3    H270721   5.701   6.421   3.199 -0.2354  0.6178 -0.5449
16436TIP3   OH270722   2.847   0.835   1.068  0.1604 -0.7087 -0.7284
16436TIP3    H170723   2.862   0.896   0.996 -1.1560  2.7881  1.7065
16436TIP3    H270724   2.935   0.810   1.098  1.0505  3.5391  0.8281
16437TIP3   OH270725   1.084   6.725  13.111 -0.0323  0.1936  0.8632
16437TIP3    H170726   1.133   6.771  13.043 -1.1323  1.3151  0.8030
16437TIP3    H270727   1.099   6.776  13.191  0.2932 -0.4512  1.2260
16438TIP3   OH270728   5.853   4.049  11.215  0.3617  0.0446  0.2877
16438TIP3    H170729   5.884   4.125  11.166  1.6660 -0.7022 -0.0921
16438TIP3    H270730   5.784   4.011  11.160  0.8284  0.0262 -0.2847
16439TIP3   OH270731   6.615   1.298   2.052 -0.0098 -0.2552 -0.0118
16439TIP3    H170732   6.644   1.347   2.129 -0.7130 -0.2819  0.2799
16439TIP3    H270733   6.696   1.275   2.006  0.3816  0.2985  0.3873
16440TIP3   OH270734   4.142   6.770   4.590  0.3643  0.0294 -0.5875
16440TIP3    H170735   4.147   6.717   4.670 -0.2689 -0.3638 -0.8003
16440TIP3    H270736   4.117   6.857   4.622 -3.3435 -0.8628 -0.5452
16441TIP3   OH270737   5.995   2.220  12.915  0.4479 -0.6375  0.1352
16441TIP3    H170738   5.949   2.296  12.952 -0.3078 -0.5986 -0.8317
16441TIP3    H270739   5.927   2.172  12.868  1.3854 -0.6223 -1.2885
16442TIP3   OH270740   3.090   5.614  14.987  0.4316 -0.6476 -0.2297
16442TIP3    H170741   3.137   5.541  14.948 -0.5080 -1.2635 -0.2522
16442TIP3    H270742   3.134   5.630  15.070  1.6168 -0.1986 -0.9160
16443TIP3   OH270743   0.173   5.334   5.755 -0.1666 -0.1789  0.2867
16443TIP3    H170744   0.111   5.285   5.700 -1.1766  1.1138  0.2317
16443TIP3    H270745   0.256   5.327   5.709 -0.9339  0.6713 -1.3042
16444TIP3   OH270746   0.272   3.775   1.546  0.0837  0.1704  0.1027
16444TIP3    H170747   0.294   3.840   1.480  0.5752  0.1923  0.2810
16444TIP3    H270748   0.231   3.824   1.617 -0.8384  0.0907 -0.3582
16445TIP3   OH270749   6.682   0.288   5.128  0.0876 -0.8179 -0.0913
16445TIP3    H170750   6.700   0.195   5.144 -2.5046 -1.4918 -0.6374
16445TIP3    H270751   6.604   0.288   5.073  1.0938  1.6859 -1.6802
16446TIP3   OH270752   6.474   6.017   5.925  0.0754  0.6433  0.4207
16446TIP3    H170753   6.512   6.070   5.995 -0.7548  0.8399  0.7326
16446TIP3    H270754   6.430   6.080   5.868 -0.7699  0.3208  0.6998
16447TIP3   OH270755   1.904   0.195   2.148  0.2603 -0.2494  0.6966
16447TIP3    H170756   1.861   0.168   2.229 -1.4372 -2.6108 -0.8794
16447TIP3    H270757   1.952   0.117   2.119  1.5201  0.8098 -0.1920
16448TIP3   OH270758   0.808   2.043   5.900  0.0142  0.0378 -0.1382
16448TIP3    H170759   0.887   2.015   5.853  0.4657 -0.8543  1.0712
16448TIP3    H270760   0.840   2.104   5.966 -0.2497 -0.5257  0.5293
16449TIP3   OH270761   6.632   1.680   1.618  0.2191 -0.4093  0.1410
16449TIP3    H170762   6.660   1.756   1.669  0.4413 -0.6297  0.3518
16449TIP3    H270763   6.709   1.655   1.568 -0.5180  1.0063 -1.8513
16450TIP3   OH270764   1.778   4.681   2.848  0.2475 -0.5647  0.2213
16450TIP3    H170765   1.811   4.660   2.936  0.7379  1.8663  0.6977
16450TIP3    H270766   1.832   4.629   2.789  0.2442 -1.8751  1.3147
16451TIP3   OH270767   0.444   2.176  16.618  1.1947 -0.2131  0.7092
16451TIP3    H170768   0.486   2.107  16.670  0.3267 -2.9258 -1.8876
16451TIP3    H270769   0.499   2.185  16.541  0.3621  0.7834  0.2030
16452TIP3   OH270770   4.771   5.049   3.783 -0.3014  0.3418 -0.1865
16452TIP3    H170771   4.772   4.969   3.731 -0.0680 -0.0332  0.3913
16452TIP3    H270772   4.714   5.109   3.733  1.1982  0.5723 -1.7176
16453TIP3   OH270773   2.272   6.763  12.514  0.2917 -0.7773 -0.0812
16453TIP3    H170774   2.335   6.776  12.443 -1.3613 -0.9742 -1.6756
16453TIP3    H270775   2.264   6.668  12.523  1.0242 -0.7567  0.8881
16454TIP3   OH270776   3.351   2.443   2.254 -0.4697 -0.0832  0.2988
16454TIP3    H170777   3.268   2.483   2.230  0.3441  0.8649 -1.0961
16454TIP3    H270778   3.327   2.355   2.285 -1.9425 -0.0330 -0.5886
16455TIP3   OH270779   6.154   6.342  15.034  0.5692 -0.2773  0.0353
16455TIP3    H170780   6.061   6.363  15.043  0.8811  0.8642  0.8215
16455TIP3    H270781   6.184   6.398  14.962  0.7191 -0.3918  0.0080
16456TIP3   OH270782   2.145   3.179  10.669 -0.0044 -0.1739 -0.3493
16456TIP3    H170783   2.088   3.121  10.618 -0.8560 -0.7698  1.2139
16456TIP3    H270784   2.135   3.150  10.759  1.4412  0.8656  0.1906
16457TIP3   OH270785   6.037   3.977  13.888 -0.5510 -0.6556  0.1082
16457TIP3    H170786   5.947   3.979  13.919 -0.4799  0.3140  0.2943
16457TIP3    H270787   6.083   4.041  13.943 -0.2677  0.5905 -1.4847
16458TIP3   OH270788   4.001   2.108  12.838 -0.2603  0.3952 -0.4607
16458TIP3    H170789   3.937   2.178  12.823 -1.0805 -0.4388 -0.9598
16458TIP3    H270790   4.086   2.150  12.823 -0.5550  1.9241  1.7285
16459TIP3   OH270791   6.481   3.860  14.452  0.3761 -0.1288 -0.5262
16459TIP3    H170792   6.453   3.788  14.396 -1.5365 -1.6134  2.0998
16459TIP3    H270793   6.575   3.867  14.438  0.4841 -2.5978 -1.4673
16460TIP3   OH270794   4.441   0.422   1.414  0.4804  0.4062 -0.3943
16460TIP3    H170795   4.445   0.327   1.415  1.4099  0.3929  2.0876
16460TIP3    H270796   4.448   0.446   1.322 -0.9842 -1.9208 -1.2067
16461TIP3   OH270797   4.680   4.384  14.637  0.5121 -0.0404 -0.1702
16461TIP3    H170798   4.660   4.474  14.611  0.4933  0.1155  0.3647
16461TIP3    H270799   4.611   4.331  14.598 -1.0828  0.4961  1.7769
16462TIP3   OH270800   2.289   1.311   1.863  0.3889  0.1821  0.0005
16462TIP3    H170801   2.206   1.266   1.849  0.8665 -1.8478  2.8546
16462TIP3    H270802   2.265   1.402   1.880 -0.9831  0.1470 -1.4770
16463TIP3   OH270803   1.218   6.642  10.718 -0.7542 -0.3371  0.0562
16463TIP3    H170804   1.182   6.712  10.663 -2.0883 -0.4996  0.6851
16463TIP3    H270805   1.226   6.567  10.659  1.3909  0.4797 -0.8150
16464TIP3   OH270806   4.426   6.157  15.346 -0.3602  0.3083 -0.1932
16464TIP3    H170807   4.504   6.210  15.357 -0.8979  1.1052 -0.1148
16464TIP3    H270808   4.458   6.067  15.344  0.4434  0.5393  1.0336
16465TIP3   OH270809   3.671   3.344   0.946  0.5077  0.6844 -0.0634
16465TIP3    H170810   3.595   3.305   0.901 -0.1996  1.2594  0.6059
16465TIP3    H270811   3.745   3.322   0.890  0.0531 -1.0725 -0.0397
16466TIP3   OH270812   6.592   5.332   0.383 -0.4577 -0.0079 -0.4678
16466TIP3    H170813   6.618   5.242   0.363  0.0218 -0.1766  0.7964
16466TIP3    H270814   6.534   5.323   0.459 -2.2995  0.5687 -1.7171
16467TIP3   OH270815   5.503   4.181   5.821  0.6598 -0.5356  0.3139
16467TIP3    H170816   5.549   4.207   5.900 -2.2284 -0.0005  1.9681
16467TIP3    H270817   5.434   4.247   5.810 -1.0015 -2.3282 -0.7907
16468TIP3   OH270818   5.142   0.143  11.419 -0.1532  0.6878 -0.0934
16468TIP3    H170819   5.141   0.233  11.450 -0.3956  0.3040  1.0540
16468TIP3    H270820   5.217   0.139  11.359 -0.2817  1.6929 -0.3431
16469TIP3   OH270821   2.003   0.074   1.238  0.6584 -0.1967  0.1329
16469TIP3    H170822   2.086   0.121   1.226 -1.0417  3.0287 -0.0597
16469TIP3    H270823   1.971   0.104   1.323 -0.9423 -0.3244 -0.4010
16470TIP3   OH270824   3.472   4.423   2.426 -0.1224 -0.6149 -0.6968
16470TIP3    H170825   3.414   4.347   2.436 -2.7349  0.6703 -3.9035
16470TIP3    H270826   3.419   4.497   2.454  0.7834  0.4230 -1.6352
16471TIP3   OH270827   4.620   6.253   5.690  0.1293 -0.3392  0.7190
16471TIP3    H170828   4.633   6.184   5.755 -0.3014 -0.5390  0.5977
16471TIP3    H270829   4.534   6.235   5.653  1.0391 -1.2141 -1.0800
16472TIP3   OH270830   6.227   1.348   4.320 -0.2471  0.3960 -0.1128
16472TIP3    H170831   6.189   1.287   4.257  2.2966 -0.5196 -0.8501
16472TIP3    H270832   6.236   1.296   4.401 -2.0741  1.1316  0.6340
16473TIP3   OH270833   4.858   6.665   1.170  0.2516  0.2410  0.1920
16473TIP3    H170834   4.902   6.707   1.244  0.2818  0.6402 -0.0489
16473TIP3    H270835   4.898   6.705   1.093  0.8555 -0.8141 -0.0584
16474TIP3   OH270836   1.709   3.802   3.590 -0.1555  0.1780  0.1353
16474TIP3    H170837   1.730   3.830   3.679 -0.7400  1.5611 -0.1361
16474TIP3    H270838   1.736   3.710   3.587  0.9283  0.4183  1.3848
16475TIP3   OH270839   4.905   6.473  14.747  0.5313  0.3063  0.1286
16475TIP3    H170840   4.973   6.471  14.814 -0.8153  2.4327  1.6848
16475TIP3    H270841   4.858   6.555  14.763 -2.3026 -0.9845 -0.9549
16476TIP3   OH270842   4.898   3.030   2.366  0.7601  0.6938  0.1127
16476TIP3    H170843   4.956   2.968   2.409  1.2886  0.4092 -0.9587
16476TIP3    H270844   4.891   2.997   2.276  1.3603  2.3686 -0.5937
16477TIP3   OH270845   2.308   3.952  13.252  0.3422 -0.5510  0.4715
16477TIP3    H170846   2.254   4.005  13.310  0.3269  0.5435 -0.4911
16477TIP3    H270847   2.398   3.973  13.275  0.4877 -2.9687  2.6180
16478TIP3   OH270848   3.215   6.059   4.536 -0.1169  0.3120  0.8333
16478TIP3    H170849   3.288   6.028   4.588 -0.8030  0.5872  1.9849
16478TIP3    H270850   3.201   6.150   4.564  0.8596  1.2285 -1.3679
16479TIP3   OH270851   0.625   4.758  16.211  0.1256 -0.1339  0.0425
16479TIP3    H170852   0.559   4.786  16.274  0.0836 -0.7886  0.2978
16479TIP3    H270853   0.642   4.836  16.158 -0.6099  0.1307  0.1795
16480TIP3   OH270854   6.483   3.938   3.619  0.1869  0.4193  0.1242
16480TIP3    H170855   6.456   4.000   3.688  0.4887 -0.1137  0.7318
16480TIP3    H270856   6.417   3.869   3.622  0.5100  0.1135  0.2638
16481TIP3   OH270857   6.501   2.139   0.595 -0.0497  0.1108 -0.2639
16481TIP3    H170858   6.506   2.231   0.569 -0.1600  0.0844 -0.3814
16481TIP3    H270859   6.585   2.120   0.636  0.0135  0.2353 -0.3370
16482TIP3   OH270860   1.236   1.673   3.839  0.0105  0.3188  0.4856
16482TIP3    H170861   1.292   1.710   3.770  0.1838  0.5374  0.7396
16482TIP3    H270862   1.248   1.733   3.913 -1.2648  0.8768  0.2536
16483TIP3   OH270863   5.639   0.859  14.034  0.6278 -0.1352  0.3285
16483TIP3    H170864   5.610   0.884  14.121 -0.5392  1.0621 -0.3616
16483TIP3    H270865   5.578   0.903  13.975  3.5574  2.1579 -1.2486
16484TIP3   OH270866   1.904   4.048  10.764  0.4660 -0.1419 -0.3351
16484TIP3    H170867   1.935   3.997  10.689 -0.5480 -0.7706 -0.3508
16484TIP3    H270868   1.868   3.982  10.824  1.2959  0.3472  0.7307
16485TIP3   OH270869   0.870   5.624  13.449  0.0066 -0.3405  0.1348
16485TIP3    H170870   0.952   5.656  13.412 -0.8645  0.1939 -1.4566
16485TIP3    H270871   0.816   5.603  13.372 -1.3561 -0.6422  1.1378
16486TIP3   OH270872   1.689   0.199  15.945  0.2593 -0.4705 -0.1043
16486TIP3    H170873   1.622   0.228  15.883  1.4769  0.2967 -1.1041
16486TIP3    H270874   1.646   0.202  16.030 -1.0597 -0.2934 -0.7487
16487TIP3   OH270875   6.108   6.065   1.489  0.0625 -0.1102  0.0577
16487TIP3    H170876   6.151   6.070   1.574 -0.9162 -1.5882  0.6552
16487TIP3    H270877   6.124   5.976   1.458 -1.5035 -0.3010 -0.2724
16488TIP3   OH270878   0.423   2.709  12.435 -0.3030 -0.2198  0.2244
16488TIP3    H170879   0.411   2.686  12.527  0.1242 -0.6840  0.1640
16488TIP3    H270880   0.438   2.804  12.435  0.6281 -0.3606  0.7217
16489TIP3   OH270881   2.362   2.375  15.610  0.2015 -0.2369  0.3482
16489TIP3    H170882   2.310   2.440  15.564 -0.3780 -1.2463 -0.4633
16489TIP3    H270883   2.404   2.423  15.681 -0.6960  0.8817  0.1372
16490TIP3   OH270884   3.832   5.132   3.961 -0.0965 -0.6712 -0.2183
16490TIP3    H170885   3.889   5.139   3.884 -0.8468  1.4293 -0.6507
16490TIP3    H270886   3.887   5.163   4.033  0.3531 -1.8994  0.0002
16491TIP3   OH270887   3.368   2.098  16.139 -0.3722 -0.2703  0.1733
16491TIP3    H170888   3.355   2.007  16.167 -1.0698 -0.2769 -0.1633
16491TIP3    H270889   3.326   2.103  16.053 -1.4868  0.6961  0.7389
16492TIP3   OH270890   0.506   5.298  14.582  0.1762  0.2473 -0.1137
16492TIP3    H170891   0.438   5.245  14.539  0.6204  1.3570 -2.3088
16492TIP3    H270892   0.474   5.388  14.575  1.8102  0.7912 -1.1481
16493TIP3   OH270893   2.983   3.869  11.032  0.5229  0.1183 -0.0016
16493TIP3    H170894   2.994   3.779  11.004 -2.2766  0.1428 -1.5320
16493TIP3    H270895   2.892   3.890  11.011  0.6439  2.8411  1.6647
16494TIP3   OH270896   4.424   0.931  16.093 -0.5458 -0.0763 -0.3483
16494TIP3    H170897   4.411   0.978  16.175  0.3347 -2.8067  1.5060
16494TIP3    H270898   4.516   0.945  16.072 -0.7514  0.5559 -0.8514
16495TIP3   OH270899   0.502   2.648   2.756 -0.4831  0.7229  0.7405
16495TIP3    H170900   0.503   2.553   2.753 -0.7844  0.7423 -0.4191
16495TIP3    H270901   0.412   2.672   2.733 -0.6089  1.2785  1.7469
16496TIP3   OH270902   3.070   2.364   0.492 -0.5359 -0.5711  0.0894
16496TIP3    H170903   3.122   2.421   0.434 -0.9066 -0.5452 -0.2210
16496TIP3    H270904   3.033   2.298   0.434 -2.6125  0.6611 -0.0698
16497TIP3   OH270905   5.813   2.251  14.379 -0.0264 -0.0839 -0.1660
16497TIP3    H170906   5.845   2.323  14.432 -0.2964 -0.0468 -0.0493
16497TIP3    H270907   5.743   2.212  14.432  0.3015 -0.6007 -0.1088
16498TIP3   OH270908   1.989   5.086   3.289 -0.1360 -0.1625 -0.0309
16498TIP3    H170909   2.058   5.130   3.338  0.3189  0.1883 -0.9496
16498TIP3    H270910   1.938   5.157   3.249 -1.0251 -0.4176  0.6189
16499TIP3   OH270911   1.054   5.225   2.638 -0.1689 -0.0394  0.6077
16499TIP3    H170912   1.092   5.285   2.574  0.0996  0.3989  1.1666
16499TIP3    H270913   1.079   5.138   2.608 -2.5096 -0.0920 -1.5259
16500TIP3   OH270914   1.273   1.111  10.968  0.3955  0.0503 -0.0992
16500TIP3    H170915   1.255   1.195  10.926  1.0610  0.6473  0.7617
16500TIP3    H270916   1.198   1.097  11.026 -0.5152 -0.7670 -1.4193
16501TIP3   OH270917   4.767   4.472   3.993 -0.1761 -0.1161 -0.0573
16501TIP3    H170918   4.797   4.403   3.933 -2.7878 -2.4034  1.0541
16501TIP3    H270919   4.831   4.470   4.065 -0.0383 -1.2316 -0.1886
16502TIP3   OH270920   0.241   4.223   5.938  0.5819 -0.3559  0.1546
16502TIP3    H170921   0.175   4.173   5.987  0.2420  0.0841  0.1476
16502TIP3    H270922   0.228   4.196   5.847 -0.8005  1.0600 -0.0999
16503TIP3   OH270923   1.920   0.691   3.509  0.5955 -0.0881 -0.4606
16503TIP3    H170924   1.900   0.727   3.422  2.1387  2.4274  0.1044
16503TIP3    H270925   2.013   0.712   3.521  0.0937  0.8565  2.3191
16504TIP3   OH270926   6.608   4.887   4.754  0.1295 -0.5541 -0.1325
16504TIP3    H170927   6.562   4.958   4.798  0.1789  1.1363 -2.5880
16504TIP3    H270928   6.686   4.872   4.807 -1.3468 -0.9016  2.0604
16505TIP3   OH270929   6.292   0.970   1.292  0.5764  0.2001  0.4524
16505TIP3    H170930   6.274   0.955   1.385  0.0357  0.3538  0.3739
16505TIP3    H270931   6.388   0.973   1.287  0.6298 -0.4991  0.8915
16506TIP3   OH270932   4.322   1.639  16.669  0.1106 -0.2104  0.5200
16506TIP3    H170933   4.342   1.685  16.751 -1.4281  0.1849  0.7067
16506TIP3    H270934   4.367   1.689  16.601  2.8614 -1.5140  1.2298
16507TIP3   OH270935   1.844   3.361  15.431  0.1606  0.3452  0.0396
16507TIP3    H170936   1.822   3.299  15.501 -0.6445  0.8782  0.2742
16507TIP3    H270937   1.880   3.307  15.361  1.1596 -0.1799  0.9339
16508TIP3   OH270938   6.058   5.726  15.213  0.1639  0.1992 -0.2638
16508TIP3    H170939   6.147   5.691  15.212 -0.0513 -0.5119 -2.8940
16508TIP3    H270940   6.014   5.678  15.283  0.6475 -2.9769 -1.9097
16509TIP3   OH270941   4.881   0.058  16.563  0.2832  0.7457 -0.3353
16509TIP3    H170942   4.972   0.085  16.575  0.4133  1.4649 -2.4546
16509TIP3    H270943   4.864  -0.001  16.636  1.9570  1.7690  0.9637
16510TIP3   OH270944   1.514   5.155   2.307 -0.3726  0.3279  0.0018
16510TIP3    H170945   1.495   5.248   2.314 -0.2609  0.3006  0.8084
16510TIP3    H270946   1.570   5.147   2.230  0.9314  1.1506  0.8142
16511TIP3   OH270947   3.184   2.624   5.876  0.2064 -0.1396 -0.6633
16511TIP3    H170948   3.183   2.622   5.972 -0.4115 -2.8413 -0.6486
16511TIP3    H270949   3.264   2.671   5.854  1.0534 -0.6271  1.1824
16512TIP3   OH270950   6.100   2.843   2.316  0.4325  0.8745 -0.3875
16512TIP3    H170951   6.038   2.879   2.253  0.5247  3.8895  1.0890
16512TIP3    H270952   6.184   2.879   2.290  0.6929  1.0245  0.6260
16513TIP3   OH270953   6.118   1.459  16.554 -0.1842 -0.1608 -0.4165
16513TIP3    H170954   6.044   1.419  16.508  0.2089  0.9125 -2.0534
16513TIP3    H270955   6.189   1.462  16.490  0.4126  1.3530  0.2437
16514TIP3   OH270956   3.810   4.437   1.840  0.3416  0.3682 -0.2498
16514TIP3    H170957   3.833   4.441   1.747  0.7093  1.6861 -0.1215
16514TIP3    H270958   3.791   4.345   1.856  2.3281 -0.2600 -1.1435
16515TIP3   OH270959   3.526   0.905   5.388  0.2153  0.5133 -0.1911
16515TIP3    H170960   3.505   0.975   5.449 -0.4170  0.9080 -0.8465
16515TIP3    H270961   3.475   0.830   5.419 -0.4652  0.8450 -0.5000
16516TIP3   OH270962   3.181   0.006   1.318  0.1875 -0.3577 -0.1861
16516TIP3    H170963   3.141   0.076   1.368  2.6453  1.0096  0.0204
16516TIP3    H270964   3.132   0.003   1.236 -2.1394 -0.7929  1.1309
16517TIP3   OH270965   4.517   5.265   5.763  0.0340  0.1334 -0.2033
16517TIP3    H170966   4.537   5.209   5.688  1.0842  0.1696  0.0235
16517TIP3    H270967   4.581   5.237   5.830 -0.1698  0.8414  0.2939
16518TIP3   OH270968   5.592   5.412   3.046 -0.2439  0.0060  0.2109
16518TIP3    H170969   5.650   5.423   3.121  0.9864 -0.2873 -0.6609
16518TIP3    H270970   5.559   5.501   3.028 -1.0279 -0.0079  1.4238
16519TIP3   OH270971   4.516   1.940  14.086  0.3033 -0.2146  0.2938
16519TIP3    H170972   4.588   1.994  14.117 -0.6317  1.0915  0.2927
16519TIP3    H270973   4.558   1.870  14.035  1.5461  0.6492  0.0970
16520TIP3   OH270974   1.290   1.008   6.673  0.6937 -0.3608 -0.0475
16520TIP3    H170975   1.197   1.017   6.653  0.5605 -2.1157 -0.3839
16520TIP3    H270976   1.334   1.056   6.603  0.0638  2.7798  1.5503
16521TIP3   OH270977   2.468   5.008  11.873  0.1749  0.9142  0.4123
16521TIP3    H170978   2.421   5.084  11.907 -0.7731  0.3388  0.4186
16521TIP3    H270979   2.488   4.956  11.950  0.2562  0.8470  0.3455
16522TIP3   OH270980   5.005   3.858   6.531 -0.3457  0.4193 -0.3262
16522TIP3    H170981   5.079   3.846   6.592 -0.6202  0.8737  0.1078
16522TIP3    H270982   5.009   3.782   6.474  1.3894  1.1680 -1.2914
16523TIP3   OH270983   2.799   3.777  11.604 -0.0494 -0.3631 -0.2505
16523TIP3    H170984   2.813   3.723  11.526  1.9361 -0.4378  0.0974
16523TIP3    H270985   2.792   3.714  11.676 -2.7762 -0.3451 -0.3945
16524TIP3   OH270986   0.924   0.015   6.298  0.3535 -0.2040 -0.2057
16524TIP3    H170987   0.950   0.060   6.217  0.7764 -0.5854 -0.2889
16524TIP3    H270988   1.007  -0.009   6.339  0.1349 -0.7217 -0.0621
16525TIP3   OH270989   3.452   2.434  15.616  0.2872  0.0701 -0.2175
16525TIP3    H170990   3.444   2.465  15.526  1.0860 -0.3750 -0.4583
16525TIP3    H270991   3.529   2.480  15.650 -0.3086  0.6172  0.4057
16526TIP3   OH270992   0.804   1.324  14.426  0.1301  0.0170  0.1419
16526TIP3    H170993   0.895   1.354  14.417 -0.1110  0.3598 -1.6305
16526TIP3    H270994   0.792   1.263  14.354 -0.7197 -0.9550  1.0806
16527TIP3   OH270995   0.007   4.819   2.522  0.0077 -0.2251 -0.1446
16527TIP3    H170996  -0.024   4.835   2.611  0.2034 -0.2122 -0.0782
16527TIP3    H270997   0.103   4.824   2.528 -0.0128  1.2499 -0.6352
16528TIP3   OH270998   4.676   3.293  13.956 -0.4691 -0.0225  0.6338
16528TIP3    H170999   4.615   3.361  13.985 -0.3277  0.4830 -0.2036
16528TIP3    H271000   4.762   3.332  13.965 -0.4297  0.2049 -0.5466
16529TIP3   OH271001   1.209   1.621  16.789  0.0073  0.7207  0.3968
16529TIP3    H171002   1.235   1.701  16.744  1.0024  1.1630  1.6851
16529TIP3    H271003   1.291   1.576  16.807 -0.5800 -1.0567 -1.0640
16530TIP3   OH271004   0.910   6.666  10.886  0.3367 -0.3878  0.1654
16530TIP3    H171005   0.822   6.632  10.900  0.3069 -0.5891 -0.5056
16530TIP3    H271006   0.941   6.689  10.974 -0.2094 -0.7392  0.4516
16531TIP3   OH271007   5.939   6.181  10.860 -0.2360 -0.3226  0.6444
16531TIP3    H171008   5.936   6.086  10.865 -2.1117 -0.3394  0.1968
16531TIP3    H271009   5.973   6.209  10.945  0.3076 -1.3738  0.7934
16532TIP3   OH271010   5.622   5.980  15.326  0.1868 -0.2007 -0.4348
16532TIP3    H171011   5.642   5.892  15.295  2.1324 -0.3030  0.9541
16532TIP3    H271012   5.553   5.967  15.391 -0.9881 -0.4283 -1.6777
16533TIP3   OH271013   3.666   6.315  14.682 -0.3350  0.2305 -0.2202
16533TIP3    H171014   3.685   6.235  14.633 -1.8264  0.1885 -0.7773
16533TIP3    H271015   3.652   6.286  14.772  3.7809  0.4517  0.7035
16534TIP3   OH271016   1.812   4.771   2.535 -0.2477 -0.2731  0.2399
16534TIP3    H171017   1.794   4.713   2.609  0.7844  0.0914  0.8096
16534TIP3    H271018   1.746   4.840   2.541 -1.6047 -1.4660 -0.5612
16535TIP3   OH271019   6.432   3.865   2.407 -0.2958  0.2965  0.2208
16535TIP3    H171020   6.344   3.902   2.410 -0.1562  0.7518 -0.8590
16535TIP3    H271021   6.469   3.883   2.493 -1.1408  0.3978  0.5645
16536TIP3   OH271022   5.661   5.733  15.182  0.5706  0.2926 -0.5159
16536TIP3    H171023   5.574   5.710  15.147  0.2381 -0.1282  0.5609
16536TIP3    H271024   5.712   5.653  15.170  0.2025 -0.1406  0.7428
16537TIP3   OH271025   0.351   2.683   5.900  0.8341  0.2674 -0.1015
16537TIP3    H171026   0.277   2.668   5.959 -0.3398  1.7959 -1.1110
16537TIP3    H271027   0.414   2.731   5.954  0.5821  0.0219  0.4258
16538TIP3   OH271028   5.351   0.129  16.738 -0.2703 -0.1275  1.1401
16538TIP3    H171029   5.318   0.071  16.668  0.4554  1.0329 -0.2253
16538TIP3    H271030   5.378   0.069  16.808 -0.4059 -1.3876  0.1628
16539TIP3   OH271031   4.045   1.869   0.033  0.1246 -0.1378  0.1463
16539TIP3    H171032   3.966   1.830  -0.005 -0.0705  0.0203  0.3813
16539TIP3    H271033   4.012   1.927   0.101  0.3199  1.4785 -1.0867
16540TIP3   OH271034   1.509   4.165   3.189  0.2617 -0.3174 -0.2425
16540TIP3    H171035   1.570   4.138   3.258 -0.0694  0.4428  0.3576
16540TIP3    H271036   1.467   4.243   3.224 -2.3766 -1.7793  0.1182
16541TIP3   OH271037   1.138   1.826   0.799  0.6688 -0.0805 -0.3066
16541TIP3    H171038   1.161   1.913   0.833  3.8414 -0.5520 -0.9024
16541TIP3    H271039   1.088   1.785   0.870  0.3629  1.7011  0.5636
16542TIP3   OH271040   5.349   2.496   1.559 -0.4113 -0.8317  0.0383
16542TIP3    H171041   5.387   2.468   1.476  1.1708 -1.1119  0.8012
16542TIP3    H271042   5.383   2.585   1.572 -0.5663 -0.8296  0.4359
16543TIP3   OH271043   3.325   0.119  12.372  0.2247 -0.5973  0.3066
16543TIP3    H171044   3.413   0.088  12.394  0.3875 -0.0735  0.4209
16543TIP3    H271045   3.338   0.173  12.294 -0.2778 -2.0485 -0.8335
16544TIP3   OH271046   5.823   1.301   4.208 -0.8391  0.2096 -0.0159
16544TIP3    H171047   5.825   1.213   4.245 -0.2806  0.3472  0.3063
16544TIP3    H271048   5.896   1.303   4.146 -1.2778  0.2296 -0.5318
16545TIP3   OH271049   0.836   2.650   2.383 -0.3763 -0.1728  0.2888
16545TIP3    H171050   0.926   2.673   2.407 -0.6194  0.6006  0.4787
16545TIP3    H271051   0.846   2.595   2.305  0.2366  0.6534 -0.2471
16546TIP3   OH271052   2.536   0.797  15.703  0.0464  0.1984  0.8436
16546TIP3    H171053   2.630   0.782  15.706  0.2788  1.3495 -0.0832
16546TIP3    H271054   2.527   0.888  15.678 -1.3296 -0.6300 -2.0193
16547TIP3   OH271055   5.179   3.694  15.841 -0.3354  0.5015 -0.4946
16547TIP3    H171056   5.264   3.670  15.879 -0.0238  0.4069 -1.2242
16547TIP3    H271057   5.159   3.780  15.877 -0.4423  0.0617  0.5085
16548TIP3   OH271058   5.455   1.539  14.298 -0.1816 -0.1103 -0.1917
16548TIP3    H171059   5.386   1.600  14.324  0.0998  0.5531 -0.9820
16548TIP3    H271060   5.536   1.591  14.300 -0.3277  0.5893 -4.1656
16549TIP3   OH271061   5.317   6.550   1.659  0.2675 -0.2542  0.0756
16549TIP3    H171062   5.261   6.502   1.720 -0.1976  0.8335  0.5144
16549TIP3    H271063   5.406   6.522   1.682  0.1265  0.3848  1.4879
16550TIP3   OH271064   6.599   6.120  12.081  0.3372 -0.2583  0.3597
16550TIP3    H171065   6.681   6.113  12.033  0.6965  1.6469  0.6142
16550TIP3    H271066   6.617   6.078  12.165  0.5438 -1.2402 -0.1679
16551TIP3   OH271067   1.354   5.694  15.221 -0.2398 -0.3902 -0.2276
16551TIP3    H171068   1.347   5.620  15.281  0.7749 -0.9608 -0.7799
16551TIP3    H271069   1.448   5.706  15.208 -0.4067  0.7257 -0.4801
16552TIP3   OH271070   1.741   5.733  11.586  0.0978 -0.0893  0.4814
16552TIP3    H171071   1.816   5.683  11.553  0.7527  1.0977  0.1146
16552TIP3    H271072   1.772   5.823  11.591 -1.8346  0.7963 -1.5037
16553TIP3   OH271073   5.395   4.184  15.199  0.1381 -0.0025 -0.4113
16553TIP3    H171074   5.339   4.172  15.276  0.7381 -1.6140 -0.1729
16553TIP3    H271075   5.423   4.276  15.204  0.0746 -0.0364  1.2560
16554TIP3   OH271076   2.281   5.670   1.101  0.3210 -0.0044  0.8845
16554TIP3    H171077   2.346   5.740   1.093 -0.0235  0.1772 -0.7570
16554TIP3    H271078   2.303   5.609   1.030  0.6484 -1.6170  2.3057
16555TIP3   OH271079   1.534   4.005   4.346 -0.0101  0.4236 -0.2259
16555TIP3    H171080   1.613   4.036   4.390  0.8061  0.1187 -1.4212
16555TIP3    H271081   1.488   3.954   4.412 -0.3080  2.3512  1.1325
16556TIP3   OH271082   5.564   3.014  15.240  0.7600 -0.6277 -0.7587
16556TIP3    H171083   5.489   2.956  15.259  0.3061 -0.0438 -0.7442
16556TIP3    H271084   5.610   3.022  15.323 -0.1987  0.4694 -0.3179
16557TIP3   OH271085   4.434   0.822   4.082 -0.0767  0.3387 -0.7860
16557TIP3    H171086   4.507   0.762   4.071 -0.0554 -0.1461  1.5546
16557TIP3    H271087   4.471   0.909   4.065  0.6655 -0.0299 -1.0729
16558TIP3   OH271088   0.256   4.439   1.568  0.1675  0.2300 -0.6040
16558TIP3    H171089   0.246   4.489   1.488 -0.6361 -0.0936 -0.7207
16558TIP3    H271090   0.217   4.354   1.548 -1.5157  0.6520  0.5840
16559TIP3   OH271091   0.058   4.813   2.217  0.4748  0.2695  0.2416
16559TIP3    H171092   0.013   4.804   2.301  1.7834 -0.3530  0.9072
16559TIP3    H271093  -0.004   4.778   2.153 -0.4949  0.6384  0.9459
16560TIP3   OH271094   2.370   5.081  14.425  0.1577  0.1298 -0.1131
16560TIP3    H171095   2.375   5.030  14.345 -0.4601  1.8983 -1.3426
16560TIP3    H271096   2.444   5.051  14.478  1.1181 -0.4520 -1.7340
16561TIP3   OH271097   6.405   1.963  14.956 -0.0047  0.1181 -0.3545
16561TIP3    H171098   6.383   1.949  14.864  0.4419  1.3409 -0.6567
16561TIP3    H271099   6.383   2.054  14.973  1.9628  0.5538  0.1441
16562TIP3   OH271100   1.196   1.243  16.625  0.2664  0.2127  0.3497
16562TIP3    H171101   1.276   1.196  16.649  0.0811  0.1875  0.9286
16562TIP3    H271102   1.149   1.182  16.568 -1.4562 -1.6850  3.5265
16563TIP3   OH271103   4.101   3.362  12.599  0.0818 -0.4241  0.1157
16563TIP3    H171104   4.076   3.454  12.608  2.6999  0.5268 -1.2296
16563TIP3    H271105   4.110   3.330  12.689 -1.5203  0.3935  0.5955
16564TIP3   OH271106   5.928   6.022   0.060 -0.5600 -0.3357  0.3659
16564TIP3    H171107   5.999   5.969   0.096 -0.2536 -0.8963 -0.9925
16564TIP3    H271108   5.851   5.965   0.062 -0.4523 -0.5132 -0.1887
16565TIP3   OH271109   6.106   6.698   0.910  0.1620 -0.2486  0.7053
16565TIP3    H171110   6.046   6.653   0.969  0.5181 -0.4813  0.9009
16565TIP3    H271111   6.162   6.750   0.968  0.5524 -0.5239  0.5830
16566TIP3   OH271112   0.112   6.514   4.087 -0.3171  0.3307  0.4839
16566TIP3    H171113   0.038   6.538   4.031 -0.0515 -0.2436 -0.1282
16566TIP3    H271114   0.189   6.529   4.032  0.1744  2.4555  1.6295
16567TIP3   OH271115   4.797   3.172   1.111  0.0296  0.4507 -0.1840
16567TIP3    H171116   4.709   3.162   1.147  0.1982 -0.1037  0.0865
16567TIP3    H271117   4.801   3.108   1.039  0.0782  0.7586 -0.4598
16568TIP3   OH271118   5.990   5.547  12.308 -0.0760  0.0511  0.4467
16568TIP3    H171119   6.046   5.508  12.241  0.2367  2.8403 -1.0931
16568TIP3    H271120   5.926   5.479  12.329  0.0451 -1.0828 -2.4507
16569TIP3   OH271121   4.560   5.336  11.976  0.3972  0.3376  0.0064
16569TIP3    H171122   4.647   5.309  12.006 -0.6715 -1.7443  1.3696
16569TIP3    H271123   4.546   5.422  12.017  1.3466  0.1861  0.6741
16570TIP3   OH271124   2.352   6.740   5.588 -0.1579  0.2736 -0.3441
16570TIP3    H171125   2.343   6.713   5.679 -1.3896 -1.7702 -0.9966
16570TIP3    H271126   2.445   6.731   5.569  0.0243  0.1959  0.5674
16571TIP3   OH271127   2.802   4.973   5.050 -0.1758 -0.4119 -0.3868
16571TIP3    H171128   2.852   5.027   5.112 -0.5417 -1.3071  0.7173
16571TIP3    H271129   2.732   5.031   5.020 -0.4718 -0.1977  0.6629
16572TIP3   OH271130   2.029   1.731  16.196 -0.0329  0.2823  0.3466
16572TIP3    H171131   2.022   1.806  16.256  0.2999 -0.3379  1.1696
16572TIP3    H271132   2.071   1.662  16.247 -1.3227 -0.8443 -0.0459
16573TIP3   OH271133   4.448   0.162   1.459 -0.6950  0.3290 -0.4699
16573TIP3    H171134   4.412   0.110   1.531 -3.0941  2.5836  0.1296
16573TIP3    H271135   4.466   0.099   1.390 -1.6473 -1.5045  0.8774
16574TIP3   OH271136   4.801   6.170   0.601 -0.6765  0.0819 -0.5509
16574TIP3    H171137   4.848   6.095   0.637  1.9119  1.9707  0.3203
16574TIP3    H271138   4.710   6.157   0.627 -0.3343 -2.7423 -0.4979
16575TIP3   OH271139   3.240   3.183  15.608 -0.2100 -0.4368 -0.0170
16575TIP3    H171140   3.165   3.242  15.597  1.6509  2.4134  1.3585
16575TIP3    H271141   3.201   3.097  15.622 -3.3774  1.2587  3.1094
16576TIP3   OH271142   5.732   4.654   3.683  0.3658 -0.3025  0.1491
16576TIP3    H171143   5.757   4.649   3.775 -0.9924 -0.8064  0.5068
16576TIP3    H271144   5.722   4.563   3.655 -2.7781 -0.1898  0.5595
16577TIP3   OH271145   5.534   5.843   0.879 -0.0113 -0.3034 -0.2564
16577TIP3    H171146   5.532   5.935   0.904  0.0647  0.1092 -1.6969
16577TIP3    H271147   5.444   5.824   0.850 -0.1621 -0.8398  0.5165
16578TIP3   OH271148   4.564   1.751  11.245  0.3119  0.7036  0.0442
16578TIP3    H171149   4.574   1.690  11.171 -0.4855  1.5244 -0.7798
16578TIP3    H271150   4.611   1.829  11.217  1.2372  0.5265  1.0498
16579TIP3   OH271151   5.864   0.980   5.210  0.4012  0.0049  0.5105
16579TIP3    H171152   5.910   0.945   5.287  0.2913  0.7680  0.9292
16579TIP3    H271153   5.922   0.960   5.137  1.8388  1.6854  1.1171
16580TIP3   OH271154   3.168   0.716  11.939  0.4670  0.0396  0.1628
16580TIP3    H171155   3.112   0.698  12.015  2.4048 -0.7540  1.4958
16580TIP3    H271156   3.245   0.760  11.976  1.2787  0.0226 -1.4087
16581TIP3   OH271157   2.687   6.568   5.190 -0.4615 -0.5545  0.5234
16581TIP3    H171158   2.649   6.483   5.213  1.0040 -0.7541  2.4149
16581TIP3    H271159   2.765   6.546   5.139 -1.1225 -0.2367 -0.6767
16582TIP3   OH271160   0.690   0.146  13.614 -0.0460 -0.5851  0.3558
16582TIP3    H171161   0.676   0.105  13.529  0.4462 -1.6887  0.7996
16582TIP3    H271162   0.678   0.076  13.678  0.2325  0.0838  1.1706
16583TIP3   OH271163   0.660   6.362  17.249 -0.2411 -0.0739  0.2984
16583TIP3    H171164   0.672   6.272  17.219 -1.2881 -0.4924  1.0680
16583TIP3    H271165   0.718   6.370  17.325 -1.7330 -0.8213  1.5677
16584TIP3   OH271166   5.960   4.353   1.800 -0.1545  0.4033  0.2562
16584TIP3    H171167   5.903   4.280   1.826  0.8562 -0.1879  0.8824
16584TIP3    H271168   5.992   4.328   1.713 -1.6575  1.2482 -0.5794
16585TIP3   OH271169   0.564   2.665  13.112  0.0790  0.2517 -0.1508
16585TIP3    H171170   0.635   2.629  13.165  0.8536 -0.9557 -1.8923
16585TIP3    H271171   0.605   2.686  13.028 -1.2236  1.4924 -0.5298
16586TIP3   OH271172   3.343   4.396   2.846 -0.2042 -0.1015  0.8332
16586TIP3    H171173   3.358   4.478   2.893  0.6133 -0.0654  0.5261
16586TIP3    H271174   3.267   4.414   2.790 -0.2376  0.3368  1.0173
16587TIP3   OH271175   5.517   4.740  15.848 -0.3955 -0.4009  0.0465
16587TIP3    H171176   5.422   4.754  15.850 -0.4320 -0.1787 -1.5798
16587TIP3    H271177   5.554   4.823  15.877 -0.7099  0.4533 -1.8389
16588TIP3   OH271178   1.360   5.382   4.891  1.0234 -0.6922  0.2460
16588TIP3    H171179   1.309   5.445   4.840  1.8799  0.0854  0.3198
16588TIP3    H271180   1.361   5.302   4.837  1.2113 -0.1486 -0.5686
16589TIP3   OH271181   6.049   2.532  13.377  0.4145 -0.1281  0.4002
16589TIP3    H171182   6.143   2.519  13.373  0.5975  1.2838 -1.8769
16589TIP3    H271183   6.018   2.502  13.291 -1.2214 -0.5628  1.1037
16590TIP3   OH271184   3.929   3.538  12.232  0.0246 -0.1588  0.3169
16590TIP3    H171185   3.961   3.497  12.152  0.8992  0.7142  0.2013
16590TIP3    H271186   4.003   3.534  12.293 -0.4649 -0.3479  0.9134
16591TIP3   OH271187   1.289   5.398   3.112  0.2993  0.0599 -0.2356
16591TIP3    H171188   1.217   5.462   3.105  2.2445  2.2211 -2.5007
16591TIP3    H271189   1.320   5.407   3.202 -0.4255  1.2197 -0.0777
16592TIP3   OH271190   2.766   5.123  16.553  0.0860 -0.0442 -0.0450
16592TIP3    H171191   2.682   5.163  16.575 -0.7400 -1.3573 -0.6996
16592TIP3    H271192   2.755   5.030  16.573  1.0295 -0.4052 -1.0625
16593TIP3   OH271193   5.290   4.706   1.948  0.3517 -0.4346  0.0828
16593TIP3    H171194   5.319   4.644   2.015  0.3882  0.0340  0.5113
16593TIP3    H271195   5.365   4.765   1.936 -0.9224  1.9550  2.5553
16594TIP3   OH271196   1.314   2.960  15.409  0.1497 -0.1622 -0.2981
16594TIP3    H171197   1.241   3.016  15.436 -0.2355 -0.4131 -0.8052
16594TIP3    H271198   1.316   2.890  15.474 -2.6277 -2.4098 -2.3526
16595TIP3   OH271199   6.265   2.767   0.854  0.2982 -0.1245 -0.1269
16595TIP3    H171200   6.351   2.746   0.891 -0.4447 -0.5927  1.4218
16595TIP3    H271201   6.276   2.852   0.813  1.8347 -0.7663 -1.1265
16596TIP3   OH271202   4.249   5.361  16.780  0.1438  0.0694 -0.0354
16596TIP3    H171203   4.301   5.320  16.711 -1.8938 -3.0778  0.1064
16596TIP3    H271204   4.296   5.340  16.860  0.4802  0.2964 -0.1732
16597TIP3   OH271205   2.987   5.825   2.395 -0.0305  0.0145 -0.0988
16597TIP3    H171206   2.908   5.771   2.399 -0.7172  0.8441 -1.6132
16597TIP3    H271207   2.981   5.871   2.311  1.6392  0.7571  0.1397
16598TIP3   OH271208   6.157   4.099  13.247 -0.1212  0.0282  0.0059
16598TIP3    H171209   6.154   4.127  13.338  1.3615  0.4296 -0.0349
16598TIP3    H271210   6.160   4.004  13.250  1.0178  0.0623  0.4492
16599TIP3   OH271211   4.072   5.650  16.672  0.1602 -0.0950 -0.0615
16599TIP3    H171212   3.981   5.661  16.646  0.0681 -0.4262  0.1108
16599TIP3    H271213   4.089   5.557  16.658  0.5449  0.0164 -0.3305
16600TIP3   OH271214   2.617   3.303  10.201  0.7392  0.5619 -0.3835
16600TIP3    H171215   2.690   3.243  10.182 -0.4943 -0.2511 -3.1487
16600TIP3    H271216   2.659   3.388  10.217  2.3579 -0.2389 -0.1971
16601TIP3   OH271217   5.733   5.103  15.240 -0.1527  0.2174  0.2253
16601TIP3    H171218   5.639   5.123  15.248 -0.1543 -0.0684  1.0778
16601TIP3    H271219   5.759   5.142  15.157 -1.0738  0.1343 -0.1146
16602TIP3   OH271220   1.571   2.487  14.568 -0.0921  0.4591  0.1523
16602TIP3    H171221   1.638   2.545  14.533  0.1528  0.6148  0.8462
16602TIP3    H271222   1.593   2.401  14.533  1.1534  0.2969  1.2377
16603TIP3   OH271223   4.617   1.704  11.510  0.0230 -0.3058 -0.0768
16603TIP3    H171224   4.549   1.756  11.552  0.8611  1.2836 -0.5739
16603TIP3    H271225   4.595   1.708  11.417  0.9537  0.5500 -0.2865
16604TIP3   OH271226   1.334   2.687  14.862  0.0412 -0.2666  0.1456
16604TIP3    H171227   1.387   2.614  14.832 -0.3328 -0.7514  0.6533
16604TIP3    H271228   1.312   2.666  14.953 -0.6212  0.1511  0.0899
16605TIP3   OH271229   0.656   2.006   2.801  0.0234  0.1572 -0.4177
16605TIP3    H171230   0.580   2.023   2.746 -0.4210  1.6734  0.6024
16605TIP3    H271231   0.618   1.980   2.885  0.6404  0.4369 -0.0521
16606TIP3   OH271232   5.972   1.604  12.676 -0.3278 -0.4861 -0.0312
16606TIP3    H171233   6.040   1.546  12.711 -1.5550 -0.3155  2.8490
16606TIP3    H271234   5.957   1.572  12.587  3.5433 -0.4615 -0.8846
16607TIP3   OH271235   3.769   1.622  12.633 -0.1480 -0.2690 -0.1685
16607TIP3    H171236   3.732   1.646  12.548 -0.2583 -0.2986 -0.1289
16607TIP3    H271237   3.848   1.675  12.641  0.7974 -1.4882 -1.0391
16608TIP3   OH271238   0.606   6.367  13.122 -0.1845  0.8161  0.3067
16608TIP3    H171239   0.546   6.293  13.119  0.9028 -0.0766  0.2006
16608TIP3    H271240   0.554   6.439  13.159 -0.8206 -0.4302  1.9681
16609TIP3   OH271241   0.085   1.361   6.018  0.8573 -0.3770  0.0225
16609TIP3    H171242   0.022   1.432   6.031  2.9064  1.4625  0.4418
16609TIP3    H271243   0.036   1.281   6.038 -1.6875  0.8320 -0.9988
16610TIP3   OH271244   3.796   6.676  17.234 -0.6311  0.6267 -0.8117
16610TIP3    H171245   3.721   6.661  17.292  0.9927 -1.6846  0.8930
16610TIP3    H271246   3.811   6.770  17.238 -2.7521  0.9997 -0.3497
16611TIP3   OH271247   2.824   4.792  15.227 -0.1194 -0.0761  0.3134
16611TIP3    H171248   2.815   4.786  15.322  1.2888  1.1700  0.5560
16611TIP3    H271249   2.769   4.866  15.203 -1.2432 -0.9814  0.0006
16612TIP3   OH271250   0.562   2.666  15.914 -0.9490  0.0781 -0.0900
16612TIP3    H171251   0.488   2.695  15.862 -1.0220  1.1396  0.5913
16612TIP3    H271252   0.601   2.595  15.863 -1.1355  0.9560 -1.4863
16613TIP3   OH271253   1.111   1.699  14.898  0.1777 -0.3866 -0.2100
16613TIP3    H171254   1.104   1.745  14.814 -1.3570 -1.6259 -0.8117
16613TIP3    H271255   1.084   1.610  14.878  0.4308 -0.8699  1.4897
16614TIP3   OH271256   3.062   4.933   0.441  0.2071 -0.2108 -0.6360
16614TIP3    H171257   3.001   4.919   0.514 -0.0672  0.1984 -0.7805
16614TIP3    H271258   3.094   5.022   0.455 -0.2508  0.0662 -1.3036
16615TIP3   OH271259   3.347   3.376   3.894  0.6818 -0.6866  0.3695
16615TIP3    H171260   3.434   3.352   3.862  0.7468  0.4314 -0.3171
16615TIP3    H271261   3.326   3.458   3.850  0.2069  0.2249  2.1860
16616TIP3   OH271262   5.213   2.740   4.993  0.4769 -0.0294 -0.3105
16616TIP3    H171263   5.266   2.676   5.040 -1.9455  0.4216  3.4608
16616TIP3    H271264   5.146   2.689   4.948 -1.0358 -0.3110  2.1263
16617TIP3   OH271265   4.382   6.304  16.432 -0.0302  0.2046  0.0664
16617TIP3    H171266   4.309   6.354  16.395  0.0675  1.3274  1.3311
16617TIP3    H271267   4.396   6.342  16.518  1.3086 -0.7703  0.3103
16618TIP3   OH271268   3.693   4.462   4.836 -0.6186  0.0106 -0.1169
16618TIP3    H171269   3.628   4.397   4.810 -1.6957  1.3594 -0.9698
16618TIP3    H271270   3.726   4.496   4.753  0.6296 -0.1033  0.3157
16619TIP3   OH271271   1.902   2.773  16.988 -0.1891 -0.1984  0.4107
16619TIP3    H171272   1.898   2.678  16.975 -1.0916 -0.1256  0.0993
16619TIP3    H271273   1.991   2.789  17.019 -0.0413 -1.1513  0.5090
16620TIP3   OH271274   0.023   3.131   3.622  0.4080 -0.0770  0.1958
16620TIP3    H171275  -0.018   3.211   3.655  0.9051  0.1287  0.3194
16620TIP3    H271276  -0.024   3.113   3.540 -0.7667 -0.5478  0.9553
16621TIP3   OH271277   6.317   5.279  11.471 -0.3099 -0.2870  0.5403
16621TIP3    H171278   6.365   5.264  11.389  1.3186 -0.6124  1.4960
16621TIP3    H271279   6.333   5.200  11.522 -4.2985 -1.7312 -0.1165
16622TIP3   OH271280   0.721   6.746  11.153  0.4563  0.3426 -1.0878
16622TIP3    H171281   0.645   6.729  11.208 -0.3347  2.8174 -1.2678
16622TIP3    H271282   0.687   6.740  11.063  0.8019  0.1393 -1.2075
16623TIP3   OH271283   5.329   4.041   4.955  0.3242  0.0191  0.5024
16623TIP3    H171284   5.341   4.106   5.025  1.6298 -0.5151  0.8150
16623TIP3    H271285   5.359   4.084   4.876  1.6214 -0.3178  0.7852
16624TIP3   OH271286   0.857   0.179  14.836 -0.5730  0.0917 -0.0808
16624TIP3    H171287   0.805   0.259  14.830  1.7428  1.7639  0.6931
16624TIP3    H271288   0.874   0.168  14.929  2.8537  1.3679 -0.4183
16625TIP3   OH271289   0.490   5.229   5.209 -0.5178 -0.1100  0.0880
16625TIP3    H171290   0.415   5.277   5.174  1.5124  3.3098 -0.0545
16625TIP3    H271291   0.531   5.190   5.131 -0.0267  1.3810 -0.4458
16626TIP3   OH271292   4.222   1.936   0.337  0.1636  0.0710  0.3437
16626TIP3    H171293   4.310   1.907   0.363  0.1305 -0.0188  0.3553
16626TIP3    H271294   4.223   2.030   0.352  0.3062  0.0914  0.2051
16627TIP3   OH271295   6.413   3.553   5.611 -0.2029  0.0349  0.2244
16627TIP3    H171296   6.433   3.503   5.690  1.0555  1.1115  0.6278
16627TIP3    H271297   6.319   3.566   5.613 -0.0731  1.0012  2.1643
16628TIP3   OH271298   1.184   6.056  16.758  0.7362 -0.4955 -0.0796
16628TIP3    H171299   1.109   6.052  16.818  1.9633 -0.4284  1.5145
16628TIP3    H271300   1.148   6.028  16.674 -1.0183 -0.7209  0.6926
16629TIP3   OH271301   3.463   1.472  14.441 -0.2622  0.2117 -0.1539
16629TIP3    H171302   3.420   1.557  14.447  0.7446  0.8212 -1.1736
16629TIP3    H271303   3.552   1.492  14.412 -0.4372 -1.2624 -1.9217
16630TIP3   OH271304   2.582   5.340   2.514  0.7420 -0.7406  0.1580
16630TIP3    H171305   2.652   5.292   2.470  1.7581  0.7529  0.0632
16630TIP3    H271306   2.544   5.394   2.445 -1.0338 -2.0691  0.0445
16631TIP3   OH271307   3.599   2.438  15.101  0.1077  0.2016  0.1488
16631TIP3    H171308   3.589   2.387  15.020  0.0784 -0.7458  0.7265
16631TIP3    H271309   3.683   2.482  15.092 -0.4427  1.0857 -0.9167
16632TIP3   OH271310   4.206   6.654   3.918 -0.4839  0.1342 -0.2269
16632TIP3    H171311   4.224   6.566   3.885 -0.1115  0.6973 -1.5946
16632TIP3    H271312   4.288   6.681   3.961 -0.8863 -0.5039  0.9787
16633TIP3   OH271313   6.224   3.732  11.429 -0.1860 -0.3031  0.1671
16633TIP3    H171314   6.225   3.810  11.374  1.0609 -0.8332 -0.6099
16633TIP3    H271315   6.285   3.672  11.386 -0.7271 -1.5087  1.0317
16634TIP3   OH271316   1.168   2.478   2.829  0.0350 -0.2691  0.0068
16634TIP3    H171317   1.104   2.408   2.844  0.2415 -0.1330  1.7237
16634TIP3    H271318   1.214   2.486   2.912 -0.2560  2.2060 -0.0134
16635TIP3   OH271319   0.040   0.897   4.857  0.3100  0.0029  0.0983
16635TIP3    H171320  -0.043   0.944   4.865 -0.0571 -0.8103  1.5929
16635TIP3    H271321   0.099   0.942   4.917  1.1999  1.0092 -1.4727
16636TIP3   OH271322   3.131   6.384  11.858  0.0984 -0.2867 -0.4914
16636TIP3    H171323   3.216   6.397  11.900  0.4049 -0.1426 -1.1380
16636TIP3    H271324   3.084   6.466  11.874  0.8899  0.5023 -1.9458
16637TIP3   OH271325   4.862   2.217   4.056  0.1453 -0.0705  0.3976
16637TIP3    H171326   4.905   2.302   4.043  0.6953 -0.3907  0.1223
16637TIP3    H271327   4.881   2.194   4.147  0.5871 -0.2282  0.2659
16638TIP3   OH271328   5.973   5.722  11.700  0.0895  0.0723 -0.1114
16638TIP3    H171329   6.061   5.741  11.732 -0.9376  1.4412  2.2358
16638TIP3    H271330   5.915   5.767  11.763 -2.2775 -0.8001 -1.5364
16639TIP3   OH271331   6.003   0.474   5.599  0.0929  0.3185  0.0690
16639TIP3    H171332   6.068   0.513   5.657 -0.0691  0.8635 -0.1107
16639TIP3    H271333   5.977   0.392   5.642  0.8615  0.1172  0.1591
16640TIP3   OH271334   5.158   3.587  14.930  0.6946 -0.1889 -0.3124
16640TIP3    H171335   5.155   3.680  14.907  1.7014 -0.0936 -0.1133
16640TIP3    H271336   5.094   3.546  14.873 -0.8578  0.8300  0.6133
16641TIP3   OH271337   5.248   0.190  13.578 -0.2031  0.0493  0.1192
16641TIP3    H171338   5.219   0.234  13.659 -0.4118  0.7588 -0.3285
16641TIP3    H271339   5.220   0.249  13.508 -2.5092 -1.8564 -0.6833
16642TIP3   OH271340   5.742   2.677  16.261  0.4420 -0.8255 -0.5104
16642TIP3    H171341   5.741   2.585  16.233 -0.5554 -0.7517 -0.7666
16642TIP3    H271342   5.697   2.724  16.190  1.3889 -0.0625 -0.6210
16643TIP3   OH271343   4.364   0.999  13.201 -0.0912 -0.1730  0.1451
16643TIP3    H171344   4.370   0.983  13.107 -0.4752  0.8029 -0.0538
16643TIP3    H271345   4.323   1.085  13.208 -1.4495 -0.8816  1.2363
16644TIP3   OH271346   4.919   0.640  13.010 -0.4403  0.6022 -0.5139
16644TIP3    H171347   4.947   0.556  12.975  1.4849  1.0118 -0.0854
16644TIP3    H271348   4.832   0.624  13.046 -1.1070 -0.6052 -2.5111
16645TIP3   OH271349   1.748   0.556   5.859  0.2266 -0.5841 -0.1210
16645TIP3    H171350   1.704   0.597   5.933  0.8665 -1.7319  0.9224
16645TIP3    H271351   1.697   0.477   5.842 -0.9229  0.4946 -2.0291
16646TIP3   OH271352   5.897   2.923   3.750 -0.4348 -0.1787 -0.2599
16646TIP3    H171353   5.981   2.881   3.732 -1.3835 -1.7990 -1.2361
16646TIP3    H271354   5.847   2.858   3.799 -1.1381  0.7358  0.2726
16647TIP3   OH271355   6.412   2.955  14.083  0.2476 -0.5244 -0.3250
16647TIP3    H171356   6.492   2.925  14.125 -0.8412 -0.4051  1.9769
16647TIP3    H271357   6.438   3.034  14.036  1.1350  0.6600  2.0225
16648TIP3   OH271358   0.794   1.749  12.155 -0.5235 -0.1168 -0.4923
16648TIP3    H171359   0.736   1.757  12.079 -1.7811 -0.0675  0.4475
16648TIP3    H271360   0.797   1.655  12.173  0.2551 -0.1922 -0.9371
16649TIP3   OH271361   1.002   3.809   4.424 -0.0687 -0.3617 -0.8195
16649TIP3    H171362   0.944   3.789   4.497  1.8978 -0.6693  0.7392
16649TIP3    H271363   1.003   3.905   4.421 -0.6579 -0.3531 -0.8735
16650TIP3   OH271364   0.479   2.624   6.611  0.7654 -0.2351  0.4797
16650TIP3    H171365   0.428   2.627   6.530  2.5164  1.3307 -0.6402
16650TIP3    H271366   0.551   2.564   6.592  1.9575  1.1858  0.3427
16651TIP3   OH271367   2.472   5.528  15.229  0.2839  0.5439 -0.0798
16651TIP3    H171368   2.523   5.538  15.149  0.0911 -0.9729 -0.4265
16651TIP3    H271369   2.536   5.534  15.300  0.4369  2.0134 -0.3131
16652TIP3   OH271370   3.254   0.418  11.176  0.1616 -0.3072 -0.4092
16652TIP3    H171371   3.182   0.472  11.144 -0.7928 -1.6250 -0.5417
16652TIP3    H271372   3.292   0.470  11.247 -1.7916 -0.1552  0.5979
16653TIP3   OH271373   3.880   1.380   2.030  0.3013 -0.0284 -0.1176
16653TIP3    H171374   3.902   1.374   1.937 -0.5312  0.0441 -0.3309
16653TIP3    H271375   3.963   1.398   2.074  0.7342 -0.2604 -0.8266
16654TIP3   OH271376   2.161   4.048  16.550 -0.7083  0.1224  0.3965
16654TIP3    H171377   2.218   3.990  16.602 -0.8395 -0.9629 -0.6384
16654TIP3    H271378   2.220   4.089  16.487 -0.9387 -0.3804 -0.1461
16655TIP3   OH271379   6.439   0.129   5.349 -0.3681  0.5017 -0.0979
16655TIP3    H171380   6.407   0.060   5.291  0.0532  0.4767 -0.3018
16655TIP3    H271381   6.520   0.095   5.386 -0.1786  0.8731 -0.1686
16656TIP3   OH271382   4.494   2.417  10.936 -0.1651 -0.0045  0.1650
16656TIP3    H171383   4.425   2.483  10.940 -1.7303 -1.5990  0.8174
16656TIP3    H271384   4.552   2.448  10.866 -0.9372  1.9249  0.3023
16657TIP3   OH271385   3.285   6.475  12.466 -0.1104  0.2228 -0.3053
16657TIP3    H171386   3.278   6.380  12.479 -0.8283  0.2812 -0.2445
16657TIP3    H271387   3.375   6.488  12.434  0.1570 -0.4226  0.1574
16658TIP3   OH271388   4.834   5.547  13.752 -0.2325  0.4589  0.5363
16658TIP3    H171389   4.849   5.616  13.688  1.1137 -1.2779 -1.1122
16658TIP3    H271390   4.740   5.553  13.771 -0.5243  1.4811 -1.0370
16659TIP3   OH271391   5.477   1.584   2.511 -0.0071  0.3839  0.2097
16659TIP3    H171392   5.546   1.520   2.497 -1.7415 -1.5766  0.1335
16659TIP3    H271393   5.409   1.561   2.448  0.1840  3.7777 -1.4444
16660TIP3   OH271394   4.987   6.761  15.016 -0.2061 -0.0876 -0.3002
16660TIP3    H171395   4.923   6.801  14.957 -1.4569 -2.0498 -0.3448
16660TIP3    H271396   5.033   6.697  14.963  0.1451 -0.3804  0.3377
16661TIP3   OH271397   3.812   0.956   4.271  0.0961  0.4094  0.5812
16661TIP3    H171398   3.804   1.018   4.343  1.5662  1.2590  0.0567
16661TIP3    H271399   3.806   1.011   4.192  0.1377 -0.2928  0.0831
16662TIP3   OH271400   2.515   3.196   5.825 -0.2643 -0.0600 -0.0547
16662TIP3    H171401   2.605   3.228   5.822 -0.7860  1.4490 -2.7793
16662TIP3    H271402   2.518   3.122   5.887  2.3880  1.1270  1.4220
16663TIP3   OH271403   6.328   1.509  15.662  0.0193  0.1841 -0.0518
16663TIP3    H171404   6.397   1.493  15.597 -0.8765  0.0390 -0.9911
16663TIP3    H271405   6.346   1.597  15.695 -0.4660  0.9635 -1.7462
16664TIP3   OH271406   2.916   4.326   0.289  0.5781 -0.3579  0.6001
16664TIP3    H171407   2.895   4.298   0.379  0.2981  0.1727  0.7014
16664TIP3    H271408   2.832   4.354   0.253  1.1153  2.0438  1.0882
16665TIP3   OH271409   3.737   2.953   3.810 -1.0900  0.6222 -0.1149
16665TIP3    H171410   3.799   2.967   3.738  0.0440 -0.1697  0.6838
16665TIP3    H271411   3.654   2.985   3.775 -0.7360 -0.4006 -2.0467
16666TIP3   OH271412   4.496   3.896   4.323  0.1840 -0.1552  0.5500
16666TIP3    H171413   4.464   3.835   4.256  0.0972 -1.5349  1.7862
16666TIP3    H271414   4.583   3.921   4.293  0.2016 -0.8593 -0.0190
16667TIP3   OH271415   0.130   2.537  14.538  0.5784  0.3686 -0.2634
16667TIP3    H171416   0.140   2.598  14.611  0.1087  0.2693 -0.1091
16667TIP3    H271417   0.203   2.556  14.480  0.5062  0.9983 -0.1570
16668TIP3   OH271418   4.195   1.650   0.760 -0.1490 -0.7453  0.0823
16668TIP3    H171419   4.122   1.590   0.748  0.5122 -2.0687  2.0365
16668TIP3    H271420   4.269   1.606   0.718  0.1486 -0.8858  0.7426
16669TIP3   OH271421   2.204   1.667   4.830  0.0817  0.2323  0.4818
16669TIP3    H171422   2.120   1.712   4.831 -0.9772 -1.6091 -0.6871
16669TIP3    H271423   2.202   1.611   4.908 -0.0742 -0.3214  0.0821
16670TIP3   OH271424   5.625   2.607   4.163  0.3514 -0.2332  0.0523
16670TIP3    H171425   5.535   2.583   4.185  0.0553  0.8710  0.0915
16670TIP3    H271426   5.664   2.526   4.130 -1.2442 -0.2991 -1.8562
16671TIP3   OH271427   5.986   0.898  11.733  0.1836  0.3986  0.4676
16671TIP3    H171428   5.913   0.840  11.755  0.8181 -0.5081  0.2443
16671TIP3    H271429   5.950   0.986  11.741 -1.2832 -0.0460 -0.8641
16672TIP3   OH271430   3.845   4.405  11.691  0.1614  0.2367  0.4690
16672TIP3    H171431   3.808   4.423  11.604  0.6327  2.0586  0.6021
16672TIP3    H271432   3.815   4.478  11.745  1.7454  0.3310  1.2612
16673TIP3   OH271433   2.642   3.793  17.171 -0.0348  0.1998  0.0017
16673TIP3    H171434   2.696   3.723  17.207 -0.7079 -0.0499  0.5503
16673TIP3    H271435   2.699   3.838  17.109  0.3932 -0.8826 -0.4222
16674TIP3   OH271436   3.507   4.843   0.338 -0.0188 -0.0846 -0.0657
16674TIP3    H171437   3.513   4.929   0.378  0.2603  0.2665 -0.8260
16674TIP3    H271438   3.484   4.861   0.247 -0.7292 -0.8606 -0.0424
16675TIP3   OH271439   1.203   1.077  15.867  0.5448 -0.1485 -0.0842
16675TIP3    H171440   1.192   1.165  15.831 -3.3654  0.0696  1.1706
16675TIP3    H271441   1.257   1.032  15.802  0.9534  2.5514 -1.8164
16676TIP3   OH271442   1.408   4.491   3.023 -0.1627  0.3969  0.2657
16676TIP3    H171443   1.322   4.528   3.044  0.4666  0.3902  3.2221
16676TIP3    H271444   1.457   4.564   2.985 -1.2138  0.5712 -0.8285
16677TIP3   OH271445   3.234   3.059   3.140  0.5450  0.3147  0.3553
16677TIP3    H171446   3.263   3.134   3.087  0.8791  0.2001  0.3750
16677TIP3    H271447   3.184   3.005   3.078 -0.3843  0.9362  0.5233
16678TIP3   OH271448   4.135   2.322   0.811 -0.1704 -0.2726  0.4884
16678TIP3    H171449   4.041   2.311   0.795 -0.3578 -0.1060  1.4226
16678TIP3    H271450   4.172   2.235   0.794 -0.4330 -0.2534 -0.2239
16679TIP3   OH271451   3.272   3.171   0.172  0.8106 -0.4945  0.1031
16679TIP3    H171452   3.332   3.166   0.098  0.8558 -1.2534  0.1795
16679TIP3    H271453   3.218   3.248   0.155  1.0154 -0.4984 -0.5646
16680TIP3   OH271454   4.292   2.549   0.687 -0.3638 -0.0073  0.1868
16680TIP3    H171455   4.236   2.480   0.722  0.2785 -0.3839  0.4952
16680TIP3    H271456   4.274   2.625   0.741 -0.7142 -0.0729  0.1645
16681TIP3   OH271457   3.528   1.577   1.526  0.7124 -0.3211  0.7614
16681TIP3    H171458   3.533   1.496   1.475  0.5352 -1.3576  2.3322
16681TIP3    H271459   3.611   1.621   1.508  0.6122 -0.5901 -0.4817
16682TIP3   OH271460   2.386   2.487  12.749 -0.2087  0.9320 -0.2145
16682TIP3    H171461   2.296   2.455  12.745 -1.3113  3.7562  0.0319
16682TIP3    H271462   2.411   2.477  12.841  0.9071 -2.4823 -0.7216
16683TIP3   OH271463   4.053   1.378  15.102  0.1872  0.6814  0.3774
16683TIP3    H171464   3.963   1.380  15.069  0.6571 -1.4889 -1.1756
16683TIP3    H271465   4.042   1.383  15.198 -1.6169  0.0249  0.2558
16684TIP3   OH271466   1.664   2.509   3.374  0.7674  0.3227  0.1866
16684TIP3    H171467   1.729   2.580   3.373  1.9568 -0.6858  1.3970
16684TIP3    H271468   1.587   2.548   3.415  0.5384  1.5703 -1.3577
16685TIP3   OH271469   3.391   0.129   5.996 -0.3727  0.0450 -0.6337
16685TIP3    H171470   3.392   0.225   5.999 -1.4965  0.0481  1.2676
16685TIP3    H271471   3.468   0.106   5.945  1.4311  1.8982  1.0634
16686TIP3   OH271472   0.415   0.573   1.327  0.3035 -0.5579 -0.1485
16686TIP3    H171473   0.397   0.542   1.238 -1.3702 -1.7271  0.5320
16686TIP3    H271474   0.479   0.511   1.362 -2.4909 -3.0939  0.9575
16687TIP3   OH271475   6.469   6.109  11.837 -0.7995 -0.2373 -0.7736
16687TIP3    H171476   6.488   6.112  11.931 -1.8901 -0.3814 -0.5382
16687TIP3    H271477   6.440   6.019  11.820 -0.9355 -0.1211 -1.1815
16688TIP3   OH271478   0.182   6.556   5.774 -0.6572  0.1153  0.4699
16688TIP3    H171479   0.258   6.507   5.805  0.6033  2.3590  1.1527
16688TIP3    H271480   0.111   6.528   5.831  0.3586  0.1016  1.7901
16689TIP3   OH271481   5.307   0.403  12.168  0.6782 -0.4280  0.0953
16689TIP3    H171482   5.397   0.400  12.136  0.9672  1.7462  0.5474
16689TIP3    H271483   5.257   0.355  12.102  1.9041 -0.0031 -1.1986
16690TIP3   OH271484   1.923   0.445   2.405 -0.3577 -0.2066 -0.1192
16690TIP3    H171485   1.903   0.366   2.454 -0.6575 -2.1279 -3.0848
16690TIP3    H271486   2.019   0.447   2.400 -0.1630  1.3978  2.4783
16691TIP3   OH271487   5.381   3.969   2.904 -0.1953 -0.2077  0.1882
16691TIP3    H171488   5.344   3.991   2.818  0.0773  3.5535  0.8468
16691TIP3    H271489   5.310   3.927   2.951 -1.0278 -0.3560 -1.1497
16692TIP3   OH271490   2.008   1.911   4.159 -0.4958  0.6543 -0.1388
16692TIP3    H171491   1.985   1.844   4.223  0.1092  1.1076  0.5623
16692TIP3    H271492   2.040   1.984   4.211  0.1047  0.9886 -0.9595
16693TIP3   OH271493   4.188   3.345  13.135 -0.2236  0.2469 -0.1395
16693TIP3    H171494   4.154   3.268  13.181 -0.6321 -0.2251 -1.2026
16693TIP3    H271495   4.267   3.313  13.090  0.6384  0.9038  0.8706
16694TIP3   OH271496   1.652   5.443  13.462  0.1197  0.2998 -0.3640
16694TIP3    H171497   1.659   5.408  13.551 -1.0395  0.2287 -0.2871
16694TIP3    H271498   1.619   5.369  13.411 -2.1233  1.1358 -0.2502
16695TIP3   OH271499   3.379   1.112  12.630  0.5048  0.5838  0.0098
16695TIP3    H171500   3.296   1.081  12.667  0.1980  1.5742  0.1789
16695TIP3    H271501   3.357   1.141  12.542  0.5931  1.1814  0.1788
16696TIP3   OH271502   5.794   2.519   1.637 -0.0995  0.0062  0.4585
16696TIP3    H171503   5.766   2.560   1.555  1.5862 -0.6179 -0.4784
16696TIP3    H271504   5.874   2.567   1.661  0.4563 -1.0293  0.7189
16697TIP3   OH271505   1.676   3.745   4.794  0.5659 -0.7176 -0.3181
16697TIP3    H171506   1.756   3.792   4.814 -0.4800  0.4196  1.3881
16697TIP3    H271507   1.616   3.812   4.760 -0.3275 -1.1407  0.3769
16698TIP3   OH271508   1.272   5.801   3.474  0.2739  0.4934 -0.1751
16698TIP3    H171509   1.323   5.879   3.450 -0.1450  0.7038 -0.3978
16698TIP3    H271510   1.337   5.735   3.497  0.6703  0.5186 -1.1928
16699TIP3   OH271511   2.818   4.497   0.025  0.7035 -0.1599 -0.0407
16699TIP3    H171512   2.739   4.473  -0.024 -0.3200  0.4173  1.2457
16699TIP3    H271513   2.888   4.447  -0.016 -0.0794  0.3119 -2.0847
16700TIP3   OH271514   2.175   4.618   3.156 -0.2848  0.6466  0.3600
16700TIP3    H171515   2.141   4.687   3.099  2.3250  1.3511 -0.4861
16700TIP3    H271516   2.136   4.537   3.122 -0.2571  1.2682 -1.2253
16701TIP3   OH271517   2.220   6.683  15.742  0.2693 -0.5693 -0.2930
16701TIP3    H171518   2.146   6.637  15.781  1.2368 -0.2547  2.1150
16701TIP3    H271519   2.242   6.632  15.664 -2.4249 -0.6612 -1.0934
16702TIP3   OH271520   3.402   4.749  11.950  0.7998 -0.1209 -0.4833
16702TIP3    H171521   3.439   4.804  11.881 -0.6238  1.0308 -0.3677
16702TIP3    H271522   3.387   4.808  12.023 -2.9395 -0.0432 -1.1250
16703TIP3   OH271523   2.122   2.073   2.535 -0.4668  0.0576  0.1660
16703TIP3    H171524   2.191   2.015   2.570 -0.2715 -0.2559 -0.7188
16703TIP3    H271525   2.041   2.026   2.554 -0.6146  1.1461  2.6444
16704TIP3   OH271526   2.753   0.348  11.060 -0.3276 -0.8843  0.0106
16704TIP3    H171527   2.743   0.295  10.981  1.1614  1.6109 -2.0272
16704TIP3    H271528   2.665   0.385  11.075 -0.0935  0.9162 -2.3737
16705TIP3   OH271529   0.641   2.480   1.701 -0.1665 -0.4976  0.1352
16705TIP3    H171530   0.653   2.505   1.610  1.4657  0.0188  0.4618
16705TIP3    H271531   0.658   2.560   1.751  1.5575 -1.3394  1.0080
16706TIP3   OH271532   0.851   3.483   0.321 -0.5829  0.1484  0.2043
16706TIP3    H171533   0.794   3.552   0.288 -0.3309  0.0294 -0.4930
16706TIP3    H271534   0.791   3.416   0.354 -0.8402  0.2164 -0.1287
16707TIP3   OH271535   1.521   5.544  12.475 -0.2153 -0.2149 -0.6319
16707TIP3    H171536   1.557   5.632  12.460 -1.2263  0.4867  0.8123
16707TIP3    H271537   1.426   5.554  12.465 -0.1877 -2.1667 -5.0309
16708TIP3   OH271538   4.735   3.627  12.385 -0.5923  0.1787  0.8272
16708TIP3    H171539   4.706   3.716  12.365 -0.9850 -0.3585 -1.1846
16708TIP3    H271540   4.696   3.607  12.470 -2.3573  1.1462  0.2877
16709TIP3   OH271541   1.231   0.845  10.386  0.5483  0.1627 -0.4412
16709TIP3    H171542   1.228   0.766  10.440  2.9545  0.1234 -0.2752
16709TIP3    H271543   1.168   0.828  10.316  1.3392 -2.1281 -0.6804
16710TIP3   OH271544   2.926   3.087  15.280  0.2650  0.0889  0.2860
16710TIP3    H171545   2.931   3.020  15.348  4.0261 -1.7385 -1.4737
16710TIP3    H271546   2.862   3.054  15.217  0.3144 -0.6441  0.6150
16711TIP3   OH271547   0.879   6.375   5.453  0.5726 -0.0091 -0.4871
16711TIP3    H171548   0.933   6.450   5.481 -0.2045  0.2322  0.4445
16711TIP3    H271549   0.917   6.300   5.499  0.7600 -0.0266 -0.6672
16712TIP3   OH271550   1.946   3.771  16.638  0.0865  0.0835 -0.0113
16712TIP3    H171551   1.912   3.800  16.553  1.5282  1.7893 -0.0760
16712TIP3    H271552   2.022   3.716  16.617 -0.0165 -0.1290  0.1648
16713TIP3   OH271553   0.983   6.341  14.134  0.2040 -0.2655  0.0219
16713TIP3    H171554   1.066   6.294  14.120  1.3873  2.0428 -1.4482
16713TIP3    H271555   0.922   6.300  14.073  0.9646 -0.4928 -0.6117
16714TIP3   OH271556   1.506   3.489   3.442  0.0059 -0.0069  0.4134
16714TIP3    H171557   1.586   3.472   3.492  1.3778 -1.6167 -2.1186
16714TIP3    H271558   1.526   3.567   3.390  0.1783 -0.7039 -0.6031
16715TIP3   OH271559   5.913   2.427   0.694  0.1323 -0.1869  0.1028
16715TIP3    H171560   5.893   2.428   0.788  0.2904  0.8723  0.1327
16715TIP3    H271561   5.843   2.479   0.654 -0.4033 -1.3130 -0.4740
16716TIP3   OH271562   0.064   5.891  15.592  0.2414  0.3326 -0.4151
16716TIP3    H171563   0.001   5.934  15.535  1.2135  0.7682 -1.1983
16716TIP3    H271564   0.023   5.892  15.679 -1.2396 -0.2785 -1.0698
16717TIP3   OH271565   3.921   0.009   0.686  0.0443 -0.2448 -0.6269
16717TIP3    H171566   4.005   0.033   0.646  0.5076 -0.5429  0.1580
16717TIP3    H271567   3.945  -0.034   0.768 -0.8321 -1.5683 -1.0513
16718TIP3   OH271568   3.430   0.530  15.123  0.1525  0.1986  0.9706
16718TIP3    H171569   3.429   0.444  15.164 -0.1060 -0.0545  0.4511
16718TIP3    H271570   3.371   0.583  15.176 -0.2828 -0.1602  0.8544
16719TIP3   OH271571   5.509   1.229  11.006  0.1403 -0.5456  0.3309
16719TIP3    H171572   5.526   1.324  11.005  2.7757 -0.9375 -0.6843
16719TIP3    H271573   5.532   1.200  10.918 -0.5903 -2.1701  0.6365
16720TIP3   OH271574   0.338   1.701   3.178 -0.2096  0.2530 -0.1589
16720TIP3    H171575   0.330   1.653   3.261  1.0087  1.4265  0.6911
16720TIP3    H271576   0.392   1.778   3.200 -0.8920  1.2523 -1.7731
16721TIP3   OH271577   0.502   2.049   0.935  0.2485  0.0742  0.0257
16721TIP3    H171578   0.462   2.020   1.017 -2.2483 -0.7315 -1.3773
16721TIP3    H271579   0.473   2.140   0.925 -0.6931 -0.2857 -0.6411
16722TIP3   OH271580   3.677   6.741  11.784  0.3439 -0.1163 -0.1008
16722TIP3    H171581   3.646   6.664  11.831 -0.3189 -0.5899 -1.2763
16722TIP3    H271582   3.745   6.708  11.726 -0.3813  0.0604 -1.0693
16723TIP3   OH271583   5.665   6.167   5.293 -0.0898 -0.1014  0.0979
16723TIP3    H171584   5.752   6.174   5.253 -1.0854  2.1573 -1.9379
16723TIP3    H271585   5.665   6.232   5.363  0.0209 -0.5216  0.4957
16724TIP3   OH271586   4.197   3.448  11.268  0.5488 -0.3102  0.0077
16724TIP3    H171587   4.179   3.368  11.317 -0.7411 -0.0574 -0.0157
16724TIP3    H271588   4.259   3.422  11.200  1.2971 -0.9515  0.9196
16725TIP3   OH271589   2.201   4.545  14.249 -0.3431 -0.4169  0.0759
16725TIP3    H171590   2.106   4.538  14.260 -0.2608 -1.2817  0.3505
16725TIP3    H271591   2.213   4.601  14.172 -1.0391  0.9637  0.9387
16726TIP3   OH271592   3.117   4.302  12.429  0.6857  0.3627  0.2354
16726TIP3    H171593   3.197   4.355  12.435  1.7436 -0.6532 -2.7708
16726TIP3    H271594   3.148   4.212  12.438 -0.5333  0.0465  1.5256
16727TIP3   OH271595   6.760   1.788   4.111 -0.8587  0.2923 -0.0804
16727TIP3    H171596   6.679   1.792   4.061 -0.5194  1.4765 -0.5798
16727TIP3    H271597   6.805   1.869   4.089 -0.2982  0.4303  1.4833
16728TIP3   OH271598   0.785   2.827  16.356 -0.3072  1.0491  1.0027
16728TIP3    H171599   0.818   2.749  16.312 -1.1231  1.3239 -0.1515
16728TIP3    H271600   0.691   2.827  16.336  0.0721  3.8516 -1.5736
16729TIP3   OH271601   6.334   2.673   3.547  0.4726  0.1126 -0.0402
16729TIP3    H171602   6.340   2.688   3.452 -0.2274 -0.6379 -0.2160
16729TIP3    H271603   6.385   2.594   3.562  1.7636  1.0085  0.4418
16730TIP3   OH271604   2.423   1.504  13.879  0.6003  0.5201 -0.4115
16730TIP3    H171605   2.413   1.598  13.895 -0.2689  0.6831 -1.7837
16730TIP3    H271606   2.339   1.466  13.905  1.0872  0.0553  0.5127
16731TIP3   OH271607   4.246   6.544   1.390  0.2661 -0.0568  0.1496
16731TIP3    H171608   4.181   6.587   1.334 -0.1451 -0.8428  0.0061
16731TIP3    H271609   4.325   6.598   1.381 -0.7772  1.7747  1.4854
16732TIP3   OH271610   4.215   5.839  12.364  0.4070  0.4152  0.4452
16732TIP3    H171611   4.129   5.818  12.400 -0.3400  1.6285 -0.5082
16732TIP3    H271612   4.246   5.913  12.417 -0.3725  1.7274 -0.8423
16733TIP3   OH271613   4.594   0.292  14.309 -0.2244  0.7887  0.7358
16733TIP3    H171614   4.595   0.199  14.285 -0.0611  0.5057  1.7802
16733TIP3    H271615   4.632   0.294  14.397 -2.4551  1.5586  1.7451
16734TIP3   OH271616   6.412   3.804  16.489 -0.1391 -0.4627 -0.0234
16734TIP3    H171617   6.340   3.744  16.508  0.6446 -1.2449  0.5430
16734TIP3    H271618   6.480   3.781  16.552 -0.2834  1.8744  1.1067
16735TIP3   OH271619   3.170   0.703  13.158  0.0855 -0.0147 -0.1298
16735TIP3    H171620   3.229   0.689  13.084  1.3403 -2.6200  1.2159
16735TIP3    H271621   3.095   0.647  13.139  0.5714 -0.9751  0.6682
16736TIP3   OH271622   2.731   6.745   3.784 -0.0649  0.0986  0.3762
16736TIP3    H171623   2.814   6.700   3.799  0.6888  1.2383 -0.2559
16736TIP3    H271624   2.755   6.836   3.769 -1.1896  0.0263 -2.3221
16737TIP3   OH271625   6.527   0.866   5.647 -0.0400  0.3341  0.1471
16737TIP3    H171626   6.574   0.820   5.577 -1.1806  0.1833 -0.5431
16737TIP3    H271627   6.524   0.802   5.718  0.5617  0.2493  0.1031
16738TIP3   OH271628   5.709   3.593   0.657  1.0183  0.4688  0.4469
16738TIP3    H171629   5.676   3.664   0.714  1.4959  1.1123 -0.0668
16738TIP3    H271630   5.735   3.637   0.576  2.7973 -0.0603  0.6854
16739TIP3   OH271631   0.672   1.170   1.563  0.6177  0.1838 -0.1326
16739TIP3    H171632   0.598   1.215   1.523  0.0960  0.2748  0.8995
16739TIP3    H271633   0.671   1.082   1.524  0.0498  0.2260 -0.2272
16740TIP3   OH271634   0.271   1.525  11.970 -0.5656 -0.3488 -0.3457
16740TIP3    H171635   0.319   1.586  11.913 -0.9173  0.5613  0.3188
16740TIP3    H271636   0.206   1.485  11.912  0.3145 -0.8503 -1.0212
16741TIP3   OH271637   3.147   1.879  12.426  0.0924  0.2071  0.2331
16741TIP3    H171638   3.188   1.875  12.339 -2.3730 -1.9774 -1.0039
16741TIP3    H271639   3.054   1.890  12.407 -0.8168 -2.5565  2.4342
16742TIP3   OH271640   2.255   4.238  16.948  0.1320  0.2647 -0.5577
16742TIP3    H171641   2.286   4.197  17.029  0.8772  0.6816 -0.6164
16742TIP3    H271642   2.188   4.179  16.914 -1.0339  0.6466  0.9525
16743TIP3   OH271643   2.223   6.230   1.910  0.1581  0.1658  0.3209
16743TIP3    H171644   2.150   6.270   1.862  0.5989  0.9066  0.2393
16743TIP3    H271645   2.288   6.301   1.917  0.3245 -0.0886  1.5511
16744TIP3   OH271646   6.646   1.251   4.700 -0.4041  0.5738  0.4860
16744TIP3    H171647   6.617   1.176   4.752  0.5792 -0.1914 -0.0360
16744TIP3    H271648   6.727   1.280   4.741 -0.5333  1.0587  0.4062
16745TIP3   OH271649   5.084   1.078   2.358  0.3210  0.4332  0.5714
16745TIP3    H171650   5.159   1.121   2.400  0.4997  1.5884 -0.8668
16745TIP3    H271651   5.121   1.029   2.285 -0.1770 -0.1152  0.6769
16746TIP3   OH271652   5.447   3.515  15.420  0.4434  0.6661 -0.1576
16746TIP3    H171653   5.484   3.442  15.370 -4.4012 -2.1967 -0.2353
16746TIP3    H271654   5.475   3.500  15.510  0.2227 -0.8640 -0.3195
16747TIP3   OH271655   1.064   5.529  15.284  0.0225 -0.4005 -0.1474
16747TIP3    H171656   1.138   5.487  15.240 -0.8201 -1.2583 -0.7682
16747TIP3    H271657   1.098   5.553  15.371  0.7626 -1.6252 -0.0800
16748TIP3   OH271658   0.713   4.935  15.023  0.3714  0.2078 -0.0150
16748TIP3    H171659   0.691   4.981  15.104 -0.3749  1.5037 -0.9241
16748TIP3    H271660   0.677   4.847  15.035  1.0886  0.0697  1.4202
16749TIP3   OH271661   3.974   6.301  16.008  0.2440 -0.3588  0.7108
16749TIP3    H171662   3.995   6.387  15.970 -0.1347 -1.5098 -2.3553
16749TIP3    H271663   4.010   6.305  16.097 -1.3461  3.5895  1.4113
16750TIP3   OH271664   2.416   1.059  12.002 -0.2213  0.2649  0.1826
16750TIP3    H171665   2.490   1.103  11.960 -0.5285 -0.0782 -0.7579
16750TIP3    H271666   2.354   1.129  12.021  0.1481  0.4937  0.5429
16751TIP3   OH271667   0.168   2.484   4.536 -0.4107  0.5845  0.3906
16751TIP3    H171668   0.181   2.403   4.585  0.1918  0.8888  0.7572
16751TIP3    H271669   0.078   2.510   4.555 -0.2093  0.6691  1.3098
16752TIP3   OH271670   1.508   5.626  11.609  0.4534  0.3599  0.8184
16752TIP3    H171671   1.585   5.681  11.590  0.5331  0.4884  1.4825
16752TIP3    H271672   1.529   5.584  11.693 -0.2985  0.5758  1.1236
16753TIP3   OH271673   0.876   1.483   3.747  0.5976 -0.7014  0.0716
16753TIP3    H171674   0.909   1.545   3.813  0.7576 -1.4651  0.7222
16753TIP3    H271675   0.955   1.449   3.705  0.4695  1.0393 -1.7452
16754TIP3   OH271676   6.200   2.058   5.361 -0.5445  0.0744  0.1811
16754TIP3    H171677   6.280   2.095   5.322  0.3524  0.1037  1.9469
16754TIP3    H271678   6.144   2.134   5.375 -0.1378  0.3126  0.5687
16755TIP3   OH271679   6.598   2.097   0.021 -0.3283 -0.0110 -0.4052
16755TIP3    H171680   6.656   2.156  -0.028  2.1955 -2.2957 -0.3953
16755TIP3    H271681   6.563   2.151   0.091  0.9249  1.7663 -1.0655
16756TIP3   OH271682   3.213   4.487  16.722  0.1750 -0.1560  0.5929
16756TIP3    H171683   3.255   4.539  16.790  1.0486 -0.9426  0.6678
16756TIP3    H271684   3.241   4.397  16.739 -0.3330 -0.4920 -0.2599
16757TIP3   OH271685   3.604   6.168  12.512 -0.0030 -0.6869  0.1408
16757TIP3    H171686   3.651   6.250  12.498 -1.9251  0.6597  1.1937
16757TIP3    H271687   3.663   6.100  12.477  1.4108  1.1507 -1.2128
16758TIP3   OH271688   1.900   2.816   6.444  0.2011  0.0441 -0.7300
16758TIP3    H171689   1.977   2.868   6.463  1.8776 -2.4016 -0.3118
16758TIP3    H271690   1.895   2.753   6.517 -0.9188 -1.2029 -1.8212
16759TIP3   OH271691   4.262   4.577  13.376  0.0602  0.3916  0.1190
16759TIP3    H171692   4.353   4.560  13.353  0.3105  2.5072 -0.6509
16759TIP3    H271693   4.267   4.633  13.453 -0.5639  1.0214 -0.2880
16760TIP3   OH271694   2.826   3.625  11.386  1.1079 -0.5158  0.0366
16760TIP3    H171695   2.834   3.537  11.422  0.5078 -0.3134  0.6870
16760TIP3    H271696   2.907   3.638  11.336  1.8891 -0.8930  1.1482
16761TIP3   OH271697   5.352   3.684   2.413 -0.0236  0.1509 -0.1383
16761TIP3    H171698   5.297   3.725   2.480  0.4843 -0.0056  0.3800
16761TIP3    H271699   5.312   3.711   2.330 -0.5035  0.5668  0.2190
16762TIP3   OH271700   3.910   1.257  16.638 -0.4191  0.4741  0.2323
16762TIP3    H171701   3.925   1.349  16.661 -1.9429  1.0336 -0.8028
16762TIP3    H271702   3.842   1.228  16.700  1.2029 -0.4972  1.6387
16763TIP3   OH271703   5.250   6.059   3.124  0.7169 -0.4945 -0.4804
16763TIP3    H171704   5.162   6.083   3.093 -0.0380 -1.6485  0.6973
16763TIP3    H271705   5.308   6.085   3.052 -0.4911  0.9314 -1.0011
16764TIP3   OH271706   5.718   2.397   1.947 -0.5584 -0.0752 -0.1108
16764TIP3    H171707   5.758   2.479   1.916 -0.7522 -0.4650 -1.4364
16764TIP3    H271708   5.726   2.337   1.873  0.4369 -1.5743  1.1511
16765TIP3   OH271709   3.768   3.793  13.871  0.1520  0.4679  0.2822
16765TIP3    H171710   3.683   3.801  13.829  0.7073  0.4146 -0.9034
16765TIP3    H271711   3.790   3.882  13.899  1.1201  1.1734 -2.3709
16766TIP3   OH271712   5.587   0.924   5.144  0.3113  0.2756 -0.3664
16766TIP3    H171713   5.501   0.891   5.172 -0.3081  1.5225 -0.7211
16766TIP3    H271714   5.649   0.879   5.200 -0.6417 -0.0366  0.4765
16767TIP3   OH271715   5.383   5.915   4.960  0.0297 -0.3740  0.0567
16767TIP3    H171716   5.292   5.886   4.951 -0.3116  0.3401  0.9792
16767TIP3    H271717   5.376   6.005   4.993  1.0767 -0.4706  0.5798
16768TIP3   OH271718   1.135   0.617   5.498  0.2420 -0.0542  0.7494
16768TIP3    H171719   1.053   0.586   5.537  0.6427 -2.2653 -0.0415
16768TIP3    H271720   1.204   0.573   5.547  0.8308 -0.8398 -0.7196
16769TIP3   OH271721   5.039   2.175  12.288 -0.1925 -0.4422  0.4795
16769TIP3    H171722   4.957   2.216  12.261 -0.3307 -2.1206 -1.9922
16769TIP3    H271723   5.065   2.222  12.367 -1.9912  2.0878 -0.3224
16770TIP3   OH271724   5.235   1.529   1.158 -0.1292  0.7130 -0.5200
16770TIP3    H171725   5.173   1.524   1.085  0.7819 -4.9245 -1.3844
16770TIP3    H271726   5.181   1.516   1.236 -0.4892 -0.4561 -0.9395
16771TIP3   OH271727   1.055   1.661   5.180  0.3283 -0.2485 -0.2423
16771TIP3    H171728   1.006   1.728   5.227  1.2017  1.9527 -2.2602
16771TIP3    H271729   0.992   1.623   5.119  0.1814 -0.2078 -0.1158
16772TIP3   OH271730   2.620   3.881   0.775  0.1507 -0.1440 -0.0059
16772TIP3    H171731   2.558   3.861   0.845 -0.7349 -0.7735 -0.9441
16772TIP3    H271732   2.583   3.838   0.698  1.2386  0.3263 -0.8037
16773TIP3   OH271733   4.288   6.182   1.913 -0.5004 -0.2024 -0.6081
16773TIP3    H171734   4.324   6.118   1.851 -2.6667 -1.8428 -0.3084
16773TIP3    H271735   4.272   6.132   1.993  0.1799  1.3691  0.5759
16774TIP3   OH271736   2.348   2.016   1.713 -0.4242  1.0570  0.1665
16774TIP3    H171737   2.282   2.015   1.782 -0.7477 -0.0030 -0.1493
16774TIP3    H271738   2.300   1.999   1.633  0.3016 -0.5061  0.0163
16775TIP3   OH271739   3.830   3.132  12.164 -0.1952 -0.1720  0.4009
16775TIP3    H171740   3.864   3.150  12.252 -0.5941  0.4227  0.4429
16775TIP3    H271741   3.882   3.189  12.107 -0.3067 -0.1482  0.3228
16776TIP3   OH271742   1.318   5.373  15.258  0.1683  0.8891 -0.4775
16776TIP3    H171743   1.286   5.287  15.284  0.9410 -0.0615 -2.4956
16776TIP3    H271744   1.338   5.365  15.165 -0.1873  3.3971 -0.8562
16777TIP3   OH271745   0.944   1.913   0.602 -0.2282 -0.3210  0.3651
16777TIP3    H171746   0.973   1.905   0.693 -1.4920  0.6808  0.8845
16777TIP3    H271747   0.975   1.999   0.574  0.6915 -0.8728 -0.3758
16778TIP3   OH271748   3.629   4.637   1.943  0.3366 -0.3668 -0.5110
16778TIP3    H171749   3.703   4.585   1.975  1.8951  1.6389 -0.6607
16778TIP3    H271750   3.618   4.705   2.009  0.5165  1.0577 -1.9134
16779TIP3   OH271751   0.358   5.091  16.688  0.3013  0.1187  0.3570
16779TIP3    H171752   0.305   5.029  16.738  0.5856 -0.9684 -0.6304
16779TIP3    H271753   0.305   5.171  16.686 -1.0295 -0.7289 -0.0433
16780TIP3   OH271754   0.344   2.877  14.543 -0.2931 -0.2234 -0.4235
16780TIP3    H171755   0.316   2.836  14.461 -0.3229 -0.3400 -0.3548
16780TIP3    H271756   0.428   2.836  14.563 -0.9227 -1.2052  0.3258
16781TIP3   OH271757   3.924   0.362   2.512 -0.0962 -0.5855 -0.1478
16781TIP3    H171758   3.924   0.457   2.498 -0.4634 -0.4967  0.4055
16781TIP3    H271759   3.956   0.352   2.602  1.0061 -1.0526 -0.5867
16782TIP3   OH271760   3.537   0.626  10.531  0.6129  0.5439  1.2263
16782TIP3    H171761   3.581   0.707  10.505 -0.8335  1.0494  0.2069
16782TIP3    H271762   3.600   0.556  10.509  0.5830  1.1587 -1.1029
16783TIP3   OH271763   5.225   3.107   2.325  0.5905  0.8140  0.1082
16783TIP3    H171764   5.220   3.027   2.274  0.0991 -0.0760  1.5066
16783TIP3    H271765   5.304   3.151   2.293  1.0474 -0.3810 -0.4546
16784TIP3   OH271766   1.775   3.617  13.806 -0.3788  0.0340 -0.0591
16784TIP3    H171767   1.810   3.698  13.767  2.0442 -0.7051  0.4214
16784TIP3    H271768   1.833   3.548  13.774 -0.4992 -1.0862  1.9593
16785TIP3   OH271769   5.513   0.514  16.540  1.0782 -0.0390 -0.0968
16785TIP3    H171770   5.549   0.442  16.591 -0.9282 -1.2065 -0.2160
16785TIP3    H271771   5.525   0.591  16.595 -0.7178 -1.2061  2.1026
16786TIP3   OH271772   1.155   2.742  11.734 -0.5147  0.2002  0.3493
16786TIP3    H171773   1.206   2.767  11.657  1.6860 -3.1721  0.5159
16786TIP3    H271774   1.078   2.698  11.698 -0.1935 -0.1299  0.0538
16787TIP3   OH271775   2.100   6.398  15.022 -0.9694  0.3623 -0.1888
16787TIP3    H171776   2.119   6.306  15.006 -2.5374 -0.0566  0.1190
16787TIP3    H271777   2.160   6.445  14.965  1.8521 -0.7062  1.6869
16788TIP3   OH271778   1.623   4.024   4.087  0.2970 -0.1746 -0.8569
16788TIP3    H171779   1.572   4.022   4.168 -0.4542  1.4901 -1.2422
16788TIP3    H271780   1.568   3.981   4.022  0.6818 -1.0508 -0.6151
16789TIP3   OH271781   6.023   0.195   1.582 -0.0780 -0.3799  0.0083
16789TIP3    H171782   6.097   0.165   1.634 -0.5315 -2.5575 -0.5222
16789TIP3    H271783   6.042   0.165   1.493 -1.1410 -0.1284 -0.3188
16790TIP3   OH271784   2.527   3.820   1.942  0.1382  0.3236  0.9331
16790TIP3    H171785   2.598   3.883   1.956 -0.6653  0.8504  3.0282
16790TIP3    H271786   2.453   3.872   1.913 -0.0215  0.0935  0.9240
16791TIP3   OH271787   3.083   6.320  11.006 -0.3938  0.0170 -0.1970
16791TIP3    H171788   3.133   6.264  10.947  1.1062 -0.0811  1.0884
16791TIP3    H271789   3.067   6.400  10.956  0.6424 -0.1487 -0.8186
16792TIP3   OH271790   3.694   3.180   0.412 -0.4780  0.1522 -0.0762
16792TIP3    H171791   3.704   3.267   0.450 -1.4911 -0.7708  2.5253
16792TIP3    H271792   3.776   3.166   0.363  0.7938  1.5956  1.5018
16793TIP3   OH271793   1.937   5.497  16.773  0.3985 -0.4604 -0.3329
16793TIP3    H171794   1.932   5.412  16.730  1.8529 -1.6678  1.6969
16793TIP3    H271795   1.866   5.496  16.837  1.4878 -0.9321  0.9113
16794TIP3   OH271796   3.605   2.559   4.209  0.4014 -0.0760 -0.6412
16794TIP3    H171797   3.653   2.603   4.138  0.0402  0.8045 -0.3578
16794TIP3    H271798   3.513   2.582   4.193  0.3093  0.0681  0.0587
16795TIP3   OH271799   2.672   4.043  11.388 -0.3363  0.6116 -0.6768
16795TIP3    H171800   2.647   4.066  11.477 -1.2265  0.9917 -1.0105
16795TIP3    H271801   2.612   3.972  11.365  0.8895 -0.5329 -0.4519
16796TIP3   OH271802   3.392   5.074   4.288  0.1482  0.7978  0.3455
16796TIP3    H171803   3.414   4.985   4.316 -2.7156  0.1867  0.8967
16796TIP3    H271804   3.344   5.111   4.362 -0.4951  2.0770 -0.6778
16797TIP3   OH271805   5.109   5.193  13.462  0.8536 -0.5582 -0.4939
16797TIP3    H171806   5.180   5.149  13.508  1.5147  0.2028 -0.7642
16797TIP3    H271807   5.065   5.245  13.530  1.3723 -0.0130 -0.5651
16798TIP3   OH271808   3.176   1.360  11.645  0.3145  0.6539 -0.0782
16798TIP3    H171809   3.109   1.398  11.589  1.3860 -0.1357 -1.9872
16798TIP3    H271810   3.129   1.300  11.702 -0.5881 -0.0837 -1.5531
16799TIP3   OH271811   3.510   2.089  14.440 -0.7120  0.2498 -0.4439
16799TIP3    H171812   3.553   2.015  14.482 -1.8431 -0.5260 -0.6036
16799TIP3    H271813   3.559   2.103  14.359  0.0431  0.2538  0.0036
16800TIP3   OH271814   6.144   4.024  13.637 -0.1854  0.5953 -0.1627
16800TIP3    H171815   6.095   4.013  13.719 -0.2246  0.0015 -0.2658
16800TIP3    H271816   6.094   4.089  13.588 -1.6105 -0.9209 -0.8199
16801TIP3   OH271817   1.323   1.189  13.891  0.2102 -0.2155  0.6310
16801TIP3    H171818   1.393   1.199  13.956  0.1576 -2.1430  1.0553
16801TIP3    H271819   1.276   1.110  13.919 -1.6408  0.5609 -0.1216
16802TIP3   OH271820   4.891   4.955   2.947 -0.1250  0.4978 -0.8426
16802TIP3    H171821   4.866   4.981   3.036  0.3001  1.2328 -0.9276
16802TIP3    H271822   4.906   5.038   2.901 -0.4332  0.1261 -1.6313
16803TIP3   OH271823   2.249   3.682   3.578 -0.0350 -0.1425  0.0254
16803TIP3    H171824   2.328   3.642   3.542 -0.5543  0.3152 -1.7291
16803TIP3    H271825   2.177   3.632   3.540 -0.6308  1.0151 -0.4308
16804TIP3   OH271826   0.262   4.888   2.544 -0.6088  0.4462  0.1214
16804TIP3    H171827   0.280   4.922   2.632  0.5228 -2.2804  1.0282
16804TIP3    H271828   0.330   4.927   2.489  0.1775  0.2683  0.9544
16805TIP3   OH271829   5.395   4.025   4.498  0.3345  0.6580 -0.7459
16805TIP3    H171830   5.327   3.972   4.457  0.6912  0.1637 -0.6938
16805TIP3    H271831   5.449   3.963   4.547  0.0441  1.2078  0.3034
16806TIP3   OH271832   4.588   4.636  14.539  0.5234 -0.0330  0.2734
16806TIP3    H171833   4.626   4.717  14.507 -0.3710 -0.0122 -0.8015
16806TIP3    H271834   4.496   4.657  14.556 -0.1823 -1.2198 -1.7434
16807TIP3   OH271835   5.668   5.631   5.867 -0.4029  0.0445  0.0184
16807TIP3    H171836   5.691   5.584   5.946 -0.3811 -1.6417 -0.9493
16807TIP3    H271837   5.683   5.723   5.889  0.0856 -0.4192  1.7867
16808TIP3   OH271838   2.785   5.410  11.089 -0.2774 -0.0127  0.3020
16808TIP3    H171839   2.739   5.342  11.040 -0.4558 -1.3128  2.1956
16808TIP3    H271840   2.740   5.491  11.065  1.0538 -0.1753 -3.3919
16809TIP3   OH271841   4.756   4.349   0.036  0.7147  0.4626 -0.2761
16809TIP3    H171842   4.832   4.402   0.011  0.1695  1.5552  0.3382
16809TIP3    H271843   4.753   4.279  -0.030  0.8572  1.7688 -1.7307
16810TIP3   OH271844   2.115   2.618   3.321 -0.2174 -0.7065 -0.4906
16810TIP3    H171845   2.020   2.629   3.312 -0.0710  0.6595 -0.6211
16810TIP3    H271846   2.131   2.628   3.415 -0.0431  0.6386 -0.6509
16811TIP3   OH271847   4.923   0.179   5.300  0.0104 -0.2496  0.0939
16811TIP3    H171848   4.935   0.084   5.310  0.4839 -0.0655  1.3929
16811TIP3    H271849   4.991   0.218   5.355 -1.7104  0.8540  1.5415
16812TIP3   OH271850   3.249   0.397   6.298  0.2409  0.0137 -0.4151
16812TIP3    H171851   3.325   0.372   6.351  0.3150 -1.3887 -1.1269
16812TIP3    H271852   3.276   0.478   6.254  0.6122  0.5378  0.7501
16813TIP3   OH271853   1.370   6.669  13.327 -0.1978  0.3194  0.0751
16813TIP3    H171854   1.342   6.731  13.395 -0.1862 -0.6152  0.9619
16813TIP3    H271855   1.304   6.600  13.329 -1.4366  1.3073 -2.4169
16814TIP3   OH271856   4.117   2.170  10.751  0.0221 -0.2328  0.1876
16814TIP3    H171857   4.185   2.135  10.807 -0.2749  0.7995  1.2451
16814TIP3    H271858   4.164   2.219  10.683  0.3632 -0.5454  0.1989
16815TIP3   OH271859   4.471   2.778   3.535 -0.2330  0.7302  0.3165
16815TIP3    H171860   4.422   2.703   3.501 -0.5041  0.6541  0.8618
16815TIP3    H271861   4.562   2.748   3.535 -0.1938  0.8114 -0.5413
16816TIP3   OH271862   1.083   4.045   1.757 -0.7241 -0.3083 -0.4467
16816TIP3    H171863   1.036   4.098   1.693 -1.5328 -0.7984 -0.2697
16816TIP3    H271864   1.075   3.955   1.725  1.3172 -0.2866 -1.1748
16817TIP3   OH271865   6.518   2.955   4.828  0.4714 -0.0700 -0.4768
16817TIP3    H171866   6.433   2.911   4.831  0.3035  0.1413 -1.8539
16817TIP3    H271867   6.541   2.967   4.921  0.5119 -3.0074  0.0093
16818TIP3   OH271868   3.990   0.141  15.613  0.3426 -0.2551  1.0047
16818TIP3    H171869   4.068   0.187  15.582 -1.4530  2.4442  0.1086
16818TIP3    H271870   3.930   0.210  15.640 -2.3361 -2.1022  0.2373
16819TIP3   OH271871   6.087   4.445  16.450  0.2368 -0.1684 -0.2702
16819TIP3    H171872   6.072   4.381  16.519  1.7586 -0.9476 -0.6130
16819TIP3    H271873   6.152   4.404  16.393  0.0653  1.0348 -1.3894
16820TIP3   OH271874   2.172   4.419   2.089 -0.2125 -0.4985  0.8729
16820TIP3    H171875   2.131   4.334   2.080 -0.0818 -0.5851  1.0895
16820TIP3    H271876   2.100   4.479   2.106 -0.6983 -0.0642 -2.1092
16821TIP3   OH271877   2.937   4.219   3.868 -0.3335  0.3205 -0.6006
16821TIP3    H171878   3.007   4.283   3.854 -0.6561  0.7343 -0.3321
16821TIP3    H271879   2.886   4.254   3.941 -0.1220 -0.5796  0.0098
16822TIP3   OH271880   3.819   1.797   3.318  0.0230 -0.2149  0.4089
16822TIP3    H171881   3.840   1.833   3.404  0.5950 -0.5471  0.4093
16822TIP3    H271882   3.843   1.866   3.257  2.5264 -1.0934  0.2972
16823TIP3   OH271883   5.056   4.467   5.546  0.5634  0.7373  0.2788
16823TIP3    H171884   5.088   4.403   5.482 -0.4318 -0.5603  1.0285
16823TIP3    H271885   5.069   4.425   5.631 -4.5865 -0.8153  0.6303
16824TIP3   OH271886   3.761   1.404  15.879  0.1431  0.4513  0.0382
16824TIP3    H171887   3.798   1.324  15.843  0.3019 -0.1835  1.5525
16824TIP3    H271888   3.724   1.450  15.803  0.3500 -0.8830 -0.8956
16825TIP3   OH271889   1.313   3.540  12.342 -0.4939  0.2936  0.4089
16825TIP3    H171890   1.309   3.482  12.266  0.8265  1.0194 -0.2263
16825TIP3    H271891   1.263   3.493  12.409 -0.0639 -1.2446 -0.3029
16826TIP3   OH271892   2.282   4.660   6.110  0.2657  0.6027 -0.4248
16826TIP3    H171893   2.213   4.598   6.133 -0.0079  1.3034  0.7055
16826TIP3    H271894   2.237   4.728   6.059  0.7074 -0.4802 -2.3831
16827TIP3   OH271895   1.037   3.903   3.015 -0.5300  0.2338 -0.2485
16827TIP3    H171896   1.085   3.983   2.992  0.8518 -0.5745 -0.2423
16827TIP3    H271897   1.050   3.893   3.109 -0.1174 -0.3647 -0.3655
16828TIP3   OH271898   4.039   5.226   4.135 -0.0109  0.1232 -0.5074
16828TIP3    H171899   4.124   5.182   4.134  0.9479  1.8269 -2.2750
16828TIP3    H271900   4.049   5.297   4.199 -0.4858 -0.3171  0.0651
16829TIP3   OH271901   5.929   3.146   5.646 -0.4104 -0.0436 -0.1298
16829TIP3    H171902   5.930   3.090   5.724  1.3934 -0.3311 -0.3139
16829TIP3    H271903   5.956   3.089   5.575 -2.0797  0.2151 -1.0002
16830TIP3   OH271904   3.904   3.676   3.206  0.0206  0.3661  0.5039
16830TIP3    H171905   3.857   3.740   3.154 -0.1502 -1.5469 -1.9136
16830TIP3    H271906   3.842   3.604   3.218  0.6352  0.0395  1.9118
16831TIP3   OH271907   6.593   0.651   2.029 -0.0503  0.0389  0.6846
16831TIP3    H171908   6.662   0.716   2.041  1.1272 -0.9553 -0.2742
16831TIP3    H271909   6.522   0.698   1.986  1.0500  0.5703 -0.6456
16832TIP3   OH271910   0.903   5.360   3.310 -0.4188 -0.1796  0.4006
16832TIP3    H171911   0.869   5.447   3.290 -0.9122 -0.4182  0.1926
16832TIP3    H271912   0.826   5.308   3.331  0.0038 -0.1542  2.1631
16833TIP3   OH271913   3.948   4.260  16.921 -0.1670 -0.2782 -0.5856
16833TIP3    H171914   4.001   4.198  16.870  0.8357  1.7476 -2.1718
16833TIP3    H271915   3.962   4.235  17.012  1.2748 -1.5600 -1.1161
16834TIP3   OH271916   1.920   3.796   4.921  0.5838  0.5830  0.3401
16834TIP3    H171917   1.940   3.878   4.965  2.9679  0.5746 -0.5732
16834TIP3    H271918   1.865   3.748   4.983 -1.0987  2.9149  0.7694
16835TIP3   OH271919   1.387   6.114  10.451  0.2856 -0.5517  0.6956
16835TIP3    H171920   1.433   6.191  10.483 -0.8658  0.2869  0.3837
16835TIP3    H271921   1.409   6.045  10.513  1.2013  0.0633  1.0638
16836TIP3   OH271922   3.613   1.629   3.780  0.3741  0.2946 -0.0485
16836TIP3    H171923   3.598   1.717   3.813  0.8954  0.1460  0.6232
16836TIP3    H271924   3.542   1.576   3.817  1.1811  0.0450  1.2437
16837TIP3   OH271925   4.935   5.514   1.600  0.5079  0.8553 -0.0488
16837TIP3    H171926   4.946   5.602   1.635 -1.6006  1.1589 -0.0187
16837TIP3    H271927   4.878   5.469   1.663 -0.0009  0.0976 -1.0081
16838TIP3   OH271928   4.620   5.002   5.020 -0.0137  0.3195 -0.2086
16838TIP3    H171929   4.634   4.908   5.009  0.0767  0.4663 -1.4962
16838TIP3    H271930   4.687   5.029   5.083  2.0707  0.0378 -2.1572
16839TIP3   OH271931   2.174   1.312   6.050  0.0783  0.3848 -0.0341
16839TIP3    H171932   2.193   1.238   6.107  0.3056  0.9788  0.6673
16839TIP3    H271933   2.212   1.387   6.094 -0.5083  0.9906 -0.5403
16840TIP3   OH271934   5.031   0.110   5.791 -0.9330 -0.6169  0.2375
16840TIP3    H171935   4.957   0.069   5.746  0.1707 -1.9789 -0.4104
16840TIP3    H271936   5.073   0.162   5.722 -1.1042 -0.0764  0.5349
16841TIP3   OH271937   5.659   1.619   0.110 -0.2870  0.3033 -0.3229
16841TIP3    H171938   5.744   1.596   0.148 -1.2469 -1.6093  0.7862
16841TIP3    H271939   5.633   1.698   0.156 -0.5229 -0.8687  1.6503
16842TIP3   OH271940   2.820   3.693   6.045  0.3363  0.3681 -0.0081
16842TIP3    H171941   2.813   3.711   5.951 -0.6870  0.1407  0.0201
16842TIP3    H271942   2.785   3.604   6.055 -1.0588  0.9789  0.7983
16843TIP3   OH271943   0.296   2.304   4.349  0.1807 -0.3658  0.1384
16843TIP3    H171944   0.245   2.357   4.410  0.6968  1.0274 -0.5975
16843TIP3    H271945   0.366   2.266   4.402 -0.0768 -0.1545  0.6344
16844TIP3   OH271946   6.475   2.264  14.467  0.0007  0.6768  0.0444
16844TIP3    H171947   6.529   2.338  14.495 -0.9129  1.4749 -0.2465
16844TIP3    H271948   6.463   2.277  14.373  0.7039 -0.4385 -0.2202
16845TIP3   OH271949   1.012   2.929   1.473 -0.7208 -0.0236  0.3111
16845TIP3    H171950   1.061   2.858   1.432  0.2295  0.6014  0.3594
16845TIP3    H271951   1.032   3.006   1.421 -0.5474  0.5137  1.1540
16846TIP3   OH271952   3.587   5.729  12.451 -0.3804 -0.3645 -0.0469
16846TIP3    H171953   3.509   5.740  12.397  0.6776  1.8821 -1.2485
16846TIP3    H271954   3.601   5.634  12.453 -3.0082 -0.8279  0.1183
16847TIP3   OH271955   3.417   2.979   2.713  0.3948 -0.0352  0.1701
16847TIP3    H171956   3.467   3.060   2.722  0.1956 -0.0699  1.8512
16847TIP3    H271957   3.483   2.913   2.690  0.8403  0.2575  0.5844
16848TIP3   OH271958   5.707   1.271  13.921 -0.2149 -0.4682  0.2827
16848TIP3    H171959   5.753   1.214  13.859 -1.3399 -1.5749  0.4274
16848TIP3    H271960   5.621   1.229  13.933 -0.3173  0.1535  1.9801
16849TIP3   OH271961   3.336   4.933  16.976  0.1093  0.3498  0.8829
16849TIP3    H171962   3.339   4.984  16.895 -0.4078  1.3759  1.4989
16849TIP3    H271963   3.404   4.970  17.031 -0.2064  0.3129  1.3037
16850TIP3   OH271964   2.818   3.285  14.340  0.5621  0.4624 -0.0128
16850TIP3    H171965   2.811   3.231  14.261  2.6378 -0.7706  0.5720
16850TIP3    H271966   2.839   3.223  14.410  1.0693  1.8080  1.0735
16851TIP3   OH271967   1.013   3.873   0.517 -0.6920  0.5148  0.0575
16851TIP3    H171968   0.991   3.846   0.606 -0.1620  1.8224  0.6053
16851TIP3    H271969   0.992   3.796   0.463 -0.0879 -0.6650  1.4237
16852TIP3   OH271970   2.718   3.403   3.288  0.5055 -0.0597  0.3625
16852TIP3    H171971   2.709   3.495   3.263 -2.7283 -0.3541 -0.0098
16852TIP3    H271972   2.754   3.360   3.210  0.6769  0.6634  0.0412
16853TIP3   OH271973   1.800   6.235  12.150  0.0805 -0.7795 -0.3032
16853TIP3    H171974   1.793   6.257  12.243  0.9681 -0.8601 -0.2088
16853TIP3    H271975   1.746   6.301  12.106  0.0787 -0.4163  0.2279
16854TIP3   OH271976   6.069   6.403  15.352 -0.2410  0.0101  0.2357
16854TIP3    H171977   6.045   6.326  15.300 -1.7207 -0.0934  1.0168
16854TIP3    H271978   6.116   6.460  15.291 -0.3369 -0.9114 -0.7202
16855TIP3   OH271979   4.922   0.132  11.215 -0.7208  0.4458 -0.0856
16855TIP3    H171980   4.967   0.151  11.297  0.2673  1.5680 -0.8561
16855TIP3    H271981   4.991   0.096  11.158 -0.6354  2.4969 -1.3976
16856TIP3   OH271982   3.077   4.349   5.805  0.3083 -0.1703 -0.6566
16856TIP3    H171983   3.064   4.354   5.899 -1.3358  3.2618 -0.9033
16856TIP3    H271984   3.137   4.276   5.792  0.2785 -0.9912  2.9736
16857TIP3   OH271985   5.870   4.490   6.367 -0.0776 -0.8857 -0.1315
16857TIP3    H171986   5.797   4.437   6.334 -1.8571  1.0797  0.4314
16857TIP3    H271987   5.830   4.573   6.391  2.2801  0.0549  0.8137
16858TIP3   OH271988   2.161   5.724  12.434 -0.0383  0.3449  0.2222
16858TIP3    H171989   2.119   5.650  12.390  0.2862  0.2998 -0.0128
16858TIP3    H271990   2.252   5.697  12.445 -0.1755  0.2427  1.1736
16859TIP3   OH271991   4.957   0.923   2.547 -0.1599 -0.0384 -0.3726
16859TIP3    H171992   4.972   0.998   2.489 -4.2086  0.9956 -0.3772
16859TIP3    H271993   4.985   0.848   2.496  3.7447  1.2888 -0.4946
16860TIP3   OH271994   2.125   5.177  15.955  0.1345  0.4954  0.3928
16860TIP3    H171995   2.124   5.230  16.034  2.1180  2.3232 -0.6935
16860TIP3    H271996   2.051   5.209  15.903 -0.3455  0.2358  0.9095
16861TIP3   OH271997   1.230   0.164  16.345 -0.3131 -0.2545  0.0585
16861TIP3    H171998   1.157   0.225  16.329  0.8538  1.0737 -0.3734
16861TIP3    H271999   1.236   0.112  16.265 -0.7136 -0.2862  0.0476
16862TIP3   OH272000   2.151   1.168  12.238 -0.2061 -0.2033  0.5299
16862TIP3    H172001   2.146   1.190  12.145 -1.3230 -0.7667  0.4395
16862TIP3    H272002   2.172   1.251  12.280 -1.4364  0.4560 -0.0788
16863TIP3   OH272003   1.053   4.842  13.447 -0.1786 -0.1791  0.7330
16863TIP3    H172004   1.057   4.813  13.538 -0.2824  0.5547  0.9810
16863TIP3    H272005   1.010   4.928  13.451  1.1128  0.5382  0.1715
16864TIP3   OH272006   2.877   6.441   5.031 -0.8681  1.0006  0.6285
16864TIP3    H172007   2.896   6.351   5.057  1.0046  0.8443 -1.0178
16864TIP3    H272008   2.791   6.438   4.990 -0.2581 -0.3576 -0.6445
16865TIP3   OH272009   3.350   2.256   3.233 -0.8144  0.0290 -0.0539
16865TIP3    H172010   3.309   2.230   3.315  0.9863 -1.5127  0.4320
16865TIP3    H272011   3.292   2.323   3.197 -3.7978 -2.1012  0.4459
16866TIP3   OH272012   6.542   5.048   4.494  0.1887  0.2216 -0.2975
16866TIP3    H172013   6.523   4.969   4.443 -2.1636 -0.0993  0.9277
16866TIP3    H272014   6.566   5.015   4.580  0.5998  0.8467 -0.1653
16867TIP3   OH272015   4.171   4.646  11.871 -0.2140 -0.6049  0.5688
16867TIP3    H172016   4.134   4.686  11.792  0.5929 -0.2814  0.3391
16867TIP3    H272017   4.261   4.625  11.847 -0.2482 -1.4128  1.0967
16868TIP3   OH272018   5.626   4.127  13.445 -0.6613 -0.4856  0.6609
16868TIP3    H172019   5.618   4.191  13.374  0.9361  0.9426  1.7105
16868TIP3    H272020   5.595   4.045  13.406  0.5301  0.1540 -1.8200
16869TIP3   OH272021   6.081   1.867  12.649  0.4508 -0.5513 -0.2454
16869TIP3    H172022   6.055   1.775  12.650  1.4272 -0.8456  1.0364
16869TIP3    H272023   6.004   1.914  12.682  1.1457 -1.3419  2.8775
16870TIP3   OH272024   5.420   4.359   0.658 -0.0854  0.5209  1.1793
16870TIP3    H172025   5.460   4.297   0.598 -1.9320  0.1511  0.2654
16870TIP3    H272026   5.452   4.444   0.629 -1.8572  0.4793 -1.1759
16871TIP3   OH272027   3.744   0.111   6.246  0.1228 -0.0844 -0.3637
16871TIP3    H172028   3.741   0.155   6.331 -0.4763 -1.3612  0.2939
16871TIP3    H272029   3.655   0.077   6.234 -0.2673  1.4249 -2.2499
16872TIP3   OH272030   0.133   2.479   3.018 -0.1066  0.3972  0.6193
16872TIP3    H172031   0.098   2.527   2.943  0.1719  1.6412  1.2605
16872TIP3    H272032   0.137   2.388   2.988 -0.1789  0.8297 -0.8012
16873TIP3   OH272033   5.548   4.788   0.124  1.1155  0.8011 -0.5864
16873TIP3    H172034   5.633   4.831   0.113  1.0187  0.6823 -1.9739
16873TIP3    H272035   5.488   4.840   0.070  0.5588  0.1875 -0.5697
16874TIP3   OH272036   1.972   3.253   1.867  0.3956 -0.1428 -0.2667
16874TIP3    H172037   2.044   3.190   1.866  0.9220  0.4385 -0.0397
16874TIP3    H272038   2.006   3.330   1.821  0.9937  1.2392  2.2585
16875TIP3   OH272039   5.813   0.559  16.009 -0.3835  0.4392  0.9284
16875TIP3    H172040   5.909   0.570  16.007 -0.3926  0.5374 -1.7931
16875TIP3    H272041   5.779   0.640  15.972 -1.4433 -0.2657  0.3216
16876TIP3   OH272042   5.441   3.649  16.403  0.2335  0.2576 -0.2684
16876TIP3    H172043   5.366   3.649  16.463  1.0627  1.3703  0.8121
16876TIP3    H272044   5.402   3.646  16.316 -1.0926  1.2571  0.2618
16877TIP3   OH272045   6.295   4.645  16.856  0.1211  0.2622  0.0509
16877TIP3    H172046   6.263   4.704  16.924 -0.7542  0.4481 -0.5059
16877TIP3    H272047   6.224   4.583  16.843  0.5609 -0.1933 -0.2061
16878TIP3   OH272048   1.219   6.662   0.850  0.4843  0.0825 -0.9997
16878TIP3    H172049   1.236   6.699   0.763  0.2776  2.2593 -0.1711
16878TIP3    H272050   1.280   6.707   0.908  0.8718 -1.6097 -0.0379
16879TIP3   OH272051   0.723   5.964  15.611 -0.0618  0.5776  0.3075
16879TIP3    H172052   0.814   5.982  15.590  0.0133  1.9704  1.6291
16879TIP3    H272053   0.689   5.916  15.536  1.1252  2.1145 -1.2854
16880TIP3   OH272054   4.265   0.786   0.121 -0.1677 -1.1212 -0.1794
16880TIP3    H172055   4.195   0.844   0.091  0.5949 -0.6813 -1.1612
16880TIP3    H272056   4.242   0.767   0.212 -1.7405 -1.2704 -0.5660
16881TIP3   OH272057   1.858   5.871   1.675 -0.4747  0.6305  0.1886
16881TIP3    H172058   1.845   5.928   1.600  0.9487 -0.6628 -1.1201
16881TIP3    H272059   1.876   5.931   1.748  1.1472  1.8965 -1.1616
16882TIP3   OH272060   2.769   4.802  13.200 -0.1326  0.3590  0.0318
16882TIP3    H172061   2.739   4.746  13.273 -2.1946  1.9406  0.4728
16882TIP3    H272062   2.850   4.841  13.233  1.1532 -1.9605 -0.1287
16883TIP3   OH272063   6.730   3.626   5.760  0.6169 -0.7151  0.0297
16883TIP3    H172064   6.803   3.575   5.795  1.9830 -0.7461 -2.6418
16883TIP3    H272065   6.691   3.570   5.693  0.4463  0.7029 -1.0986
16884TIP3   OH272066   0.141   6.242   2.071  0.1603  0.0503 -0.7888
16884TIP3    H172067   0.058   6.287   2.053  1.5058  2.0706 -2.4821
16884TIP3    H272068   0.204   6.286   2.014  2.3071 -1.7703  0.0594
16885TIP3   OH272069   0.935   0.852  13.712 -0.0836  0.4742 -0.2002
16885TIP3    H172070   0.846   0.820  13.729  0.3003  0.1104  1.3047
16885TIP3    H272071   0.986   0.818  13.785  1.2899  0.7265 -1.0251
16886TIP3   OH272072   2.996   2.874   3.573  0.7321 -0.9143  0.0297
16886TIP3    H172073   2.985   2.880   3.478 -0.1784 -0.2996  0.1618
16886TIP3    H272074   2.912   2.839   3.604 -0.2445  1.9091  0.8909
16887TIP3   OH272075   5.391   2.077   2.527  0.3215  0.0224  0.3183
16887TIP3    H172076   5.459   2.145   2.516 -0.3188  0.5656 -0.3964
16887TIP3    H272077   5.440   1.996   2.536  1.0907  0.4882  0.4579
16888TIP3   OH272078   5.052   4.624   4.017  1.0665  0.0854  0.5391
16888TIP3    H172079   5.015   4.578   3.942  1.1796  1.9832 -0.7366
16888TIP3    H272080   5.113   4.561   4.056 -1.5003 -2.2010  1.1806
16889TIP3   OH272081   1.721   0.666   1.652 -0.1997 -0.2844  0.5126
16889TIP3    H172082   1.662   0.641   1.581  0.4869 -0.3903 -0.0336
16889TIP3    H272083   1.666   0.714   1.714 -0.7488  0.0404 -0.2219
16890TIP3   OH272084   2.456   2.395  17.027  0.0595 -0.3346 -0.0079
16890TIP3    H172085   2.447   2.329  16.958 -1.1266 -0.6249  0.3994
16890TIP3    H272086   2.445   2.478  16.981  0.3427 -0.4726 -0.3335
16891TIP3   OH272087   0.445   5.761   5.472 -0.2557  0.3946  0.1854
16891TIP3    H172088   0.471   5.822   5.403  0.2481  0.2241  0.2143
16891TIP3    H272089   0.452   5.811   5.553 -0.8525  0.5968  0.1163
16892TIP3   OH272090   0.703   6.163  16.069 -0.2587 -0.4281  0.0327
16892TIP3    H172091   0.669   6.245  16.104  1.9937 -0.1283  1.7449
16892TIP3    H272092   0.680   6.097  16.134  0.1499 -0.6855 -0.0760
16893TIP3   OH272093   1.563   2.496  15.718 -0.0625  0.1597  0.1448
16893TIP3    H172094   1.509   2.490  15.639 -0.7308 -0.9892  0.6755
16893TIP3    H272095   1.565   2.407  15.753 -1.1580  0.9420  2.3650
16894TIP3   OH272096   0.075   0.761  15.366 -0.3248 -0.0275  0.1731
16894TIP3    H172097   0.084   0.715  15.449  0.0302  1.8040  1.2277
16894TIP3    H272098   0.163   0.796  15.349 -0.4536 -0.1739 -0.8452
16895TIP3   OH272099   6.059   6.668   6.526  0.0683  0.1742 -0.2345
16895TIP3    H172100   6.143   6.640   6.562 -0.0569  0.3809  0.2192
16895TIP3    H272101   6.034   6.597   6.466  0.3595 -0.0845 -0.0528
16896TIP3   OH272102   0.077   3.966   0.725  0.4181 -0.4719 -0.2932
16896TIP3    H172103   0.149   3.954   0.786  0.2919 -0.5089 -0.1520
16896TIP3    H272104  -0.001   3.941   0.774  0.4142 -1.4865 -0.7715
16897TIP3   OH272105   3.136   1.455  14.804  0.0258 -0.6001  0.1822
16897TIP3    H172106   3.082   1.386  14.841  1.1264 -1.2083  0.7185
16897TIP3    H272107   3.211   1.409  14.765  0.9978  0.2793  0.9332
16898TIP3   OH272108   3.529   3.861   4.409  0.4877  0.3849 -0.6149
16898TIP3    H172109   3.503   3.934   4.352 -1.8666 -0.1035 -0.3046
16898TIP3    H272110   3.575   3.801   4.351  1.9115  1.7838 -1.0132
16899TIP3   OH272111   3.554   2.279  14.888 -0.8147 -0.0231 -0.1172
16899TIP3    H172112   3.614   2.245  14.821 -2.7024 -0.3359 -1.7314
16899TIP3    H272113   3.518   2.358  14.850  1.0039  2.1048  2.2330
16900TIP3   OH272114   6.034   2.435   3.363 -0.0886  0.0461  0.2887
16900TIP3    H172115   5.966   2.488   3.403 -1.1843 -2.0787  1.4238
16900TIP3    H272116   6.112   2.490   3.364 -1.0737  1.4904  1.6698
16901TIP3   OH272117   6.704   6.068   4.777  0.3504  0.1327  0.4541
16901TIP3    H172118   6.732   6.100   4.863  1.6970  0.0635  0.0718
16901TIP3    H272119   6.719   5.974   4.780  1.1305  0.2277 -0.0932
16902TIP3   OH272120   1.638   5.144   1.832 -0.4354  0.5682  0.5548
16902TIP3    H172121   1.694   5.221   1.833 -0.8926  0.9131  1.9745
16902TIP3    H272122   1.554   5.176   1.798 -0.4770  0.5871  0.6747
16903TIP3   OH272123   1.352   1.643   4.872 -0.3524 -0.5699  0.2282
16903TIP3    H172124   1.363   1.597   4.788 -1.0363 -0.3727  0.0256
16903TIP3    H272125   1.367   1.575   4.938  0.3921 -0.6815 -0.0478
16904TIP3   OH272126   6.239   3.380  11.240  0.6368 -0.0671 -0.0612
16904TIP3    H172127   6.222   3.426  11.158  0.8871  0.0372 -0.0554
16904TIP3    H272128   6.153   3.352  11.270  0.6346 -0.9874 -0.8685
16905TIP3   OH272129   5.857   5.037   4.924  0.1503  0.3919 -0.1963
16905TIP3    H172130   5.880   4.957   4.971 -0.7181 -0.5951 -1.3603
16905TIP3    H272131   5.936   5.061   4.877  0.5473  0.4832  0.4980
16906TIP3   OH272132   3.617   5.227   2.760 -0.1899 -0.3015 -0.4843
16906TIP3    H172133   3.690   5.249   2.702  0.2263 -2.5841 -0.9544
16906TIP3    H272134   3.653   5.234   2.848 -0.8041  3.1180 -0.3962
16907TIP3   OH272135   4.687   3.421  11.635 -0.2888  0.4169  0.0774
16907TIP3    H172136   4.692   3.392  11.544 -1.1834 -2.0610  0.7273
16907TIP3    H272137   4.711   3.513  11.632 -1.7411  0.8210 -2.8593
16908TIP3   OH272138   4.314   4.953  11.571 -0.1102 -0.1543 -0.4833
16908TIP3    H172139   4.383   4.928  11.633  0.6782 -0.3316 -1.4135
16908TIP3    H272140   4.317   5.049  11.571  3.2514 -0.0342 -3.7707
16909TIP3   OH272141   2.605   0.929   2.521  0.0215 -0.4939 -0.1344
16909TIP3    H172142   2.615   0.848   2.470 -0.0064 -0.7525  0.2722
16909TIP3    H272143   2.544   0.982   2.469  1.4616  0.0440 -1.3635
16910TIP3   OH272144   0.315   6.111  13.915 -0.2155  0.0095 -0.0085
16910TIP3    H172145   0.393   6.135  13.965 -0.0560 -0.7025  0.0898
16910TIP3    H272146   0.308   6.016  13.924 -2.3329  0.2326  1.8507
16911TIP3   OH272147   5.607   4.265   6.057  0.2319 -0.5252 -0.4788
16911TIP3    H172148   5.560   4.271   6.140  1.1192  0.5443 -0.0307
16911TIP3    H272149   5.700   4.265   6.082  0.5113 -0.0781 -1.4740
16912TIP3   OH272150   2.567   6.511   2.731 -0.1271 -0.1151 -0.1707
16912TIP3    H172151   2.573   6.451   2.806 -0.3285 -0.3343 -0.3276
16912TIP3    H272152   2.655   6.511   2.694  0.2189  0.7326  0.6267
16913TIP3   OH272153   4.855   1.490  13.617  0.0824  0.3467  0.3718
16913TIP3    H172154   4.851   1.548  13.541  0.0009 -0.2117 -0.0584
16913TIP3    H272155   4.894   1.409  13.583 -1.1228 -0.3593  0.6338
16914TIP3   OH272156   0.914   4.387   6.719 -0.4848 -0.0236 -0.1803
16914TIP3    H172157   0.950   4.349   6.639 -1.0332  1.4760 -1.1726
16914TIP3    H272158   0.819   4.380   6.709 -0.5751 -1.5272  1.2251
16915TIP3   OH272159   4.775   0.847   1.108  0.8540  0.1764 -0.1089
16915TIP3    H172160   4.768   0.793   1.187  1.4118 -1.5333 -1.1815
16915TIP3    H272161   4.858   0.893   1.118  1.8933 -1.5223 -0.5404
16916TIP3   OH272162   5.991   2.582  14.993  0.7998  0.2842 -0.5315
16916TIP3    H172163   5.972   2.670  15.025  1.5875 -0.1919  1.3734
16916TIP3    H272164   5.961   2.524  15.063  0.9183 -0.9350 -1.4553
16917TIP3   OH272165   5.910   4.310  14.398 -0.1794 -0.0246  0.2358
16917TIP3    H172166   5.997   4.276  14.375 -0.7310 -2.1359  1.1088
16917TIP3    H272167   5.861   4.307  14.316  0.1755 -0.0794  0.0221
16918TIP3   OH272168   6.525   3.538  13.182  0.3905 -0.3174  0.5306
16918TIP3    H172169   6.534   3.444  13.190  0.4416 -0.2201  1.6980
16918TIP3    H272170   6.520   3.570  13.272 -0.1161  0.7424  0.1467
16919TIP3   OH272171   1.845   1.616   0.212  0.3107 -0.5174 -0.7914
16919TIP3    H172172   1.855   1.523   0.191 -1.3319 -1.2455  1.2413
16919TIP3    H272173   1.754   1.636   0.189 -1.5356 -1.2782  4.5041
16920TIP3   OH272174   3.075   3.312  15.281  0.1666 -0.6616  0.8086
16920TIP3    H172175   3.071   3.325  15.186 -0.1837  0.7611  0.9886
16920TIP3    H272176   3.001   3.254  15.300 -0.6332  0.1780  0.3669
16921TIP3   OH272177   3.950   2.751  14.741 -0.2076  0.1595 -0.1903
16921TIP3    H172178   3.919   2.838  14.767 -0.6316  0.3962 -1.4531
16921TIP3    H272179   3.870   2.702  14.722  0.1124  0.2602 -1.8616
16922TIP3   OH272180   1.870   0.577  12.598  0.2480  0.1836 -0.1162
16922TIP3    H172181   1.786   0.540  12.569  0.9893 -1.4765 -0.2925
16922TIP3    H272182   1.935   0.522  12.554  1.4141  0.5618  1.1046
16923TIP3   OH272183   5.975   3.613  16.631  1.0826 -0.7651 -0.4479
16923TIP3    H172184   5.996   3.525  16.660  1.6627 -0.5622 -0.2360
16923TIP3    H272185   5.916   3.648  16.699 -1.2272 -1.8535 -1.7761
16924TIP3   OH272186   3.319   0.821   3.971 -0.0438  0.4607  0.3915
16924TIP3    H172187   3.295   0.732   3.998 -0.3504  0.4016 -0.0730
16924TIP3    H272188   3.379   0.809   3.898 -1.6541  0.6295 -1.0255
16925TIP3   OH272189   4.590   4.405  12.814  0.0105 -0.3221 -0.0421
16925TIP3    H172190   4.598   4.375  12.723  0.0832 -0.2329 -0.0656
16925TIP3    H272191   4.627   4.334  12.866  0.7788  0.0002 -0.1386
16926TIP3   OH272192   3.459   5.515  15.698  0.3473 -0.4155  0.3426
16926TIP3    H172193   3.405   5.569  15.639  0.7618 -1.9888 -1.6064
16926TIP3    H272194   3.531   5.572  15.723  0.0274  0.3927 -0.5023
16927TIP3   OH272195   3.187   2.663  16.776  0.0057 -0.0479  0.4913
16927TIP3    H172196   3.256   2.705  16.726 -0.8312  0.5090 -0.2288
16927TIP3    H272197   3.106   2.706  16.746 -0.7765 -1.4933  0.4313
16928TIP3   OH272198   4.294   1.868   2.732 -0.5412  0.5222  0.0892
16928TIP3    H172199   4.372   1.856   2.786  0.0155  1.1690 -0.5457
16928TIP3    H272200   4.221   1.857   2.792  0.0286 -0.4655  0.6176
16929TIP3   OH272201   5.924   1.590   3.578  0.5322  0.4269  0.5687
16929TIP3    H172202   5.981   1.649   3.528  1.9489  0.7713  2.5034
16929TIP3    H272203   5.968   1.505   3.572 -0.2922  0.0369 -0.2772
16930TIP3   OH272204   3.757   4.444  14.458  0.4157  0.2694 -0.0083
16930TIP3    H172205   3.808   4.376  14.503 -0.2395 -0.1925  0.0428
16930TIP3    H272206   3.681   4.458  14.514 -0.9643 -1.0587 -1.4304
16931TIP3   OH272207   1.948   4.508   4.169 -0.1409 -0.1329 -0.3309
16931TIP3    H172208   1.936   4.599   4.143 -1.0429  0.7108  2.7020
16931TIP3    H272209   1.877   4.491   4.231  1.6037 -2.0332  1.2859
16932TIP3   OH272210   5.976   3.883   5.308  0.4373 -0.3302 -0.4280
16932TIP3    H172211   5.906   3.944   5.285  0.4222  0.4206  1.4170
16932TIP3    H272212   5.942   3.834   5.383  1.0335 -1.5708 -0.9317
16933TIP3   OH272213   4.479   1.896  11.635 -0.1904  0.3563 -0.2348
16933TIP3    H172214   4.535   1.933  11.703 -1.0185  1.4975 -0.1317
16933TIP3    H272215   4.393   1.889  11.677 -0.1071 -1.5860 -0.3031
16934TIP3   OH272216   3.582   5.645  15.342  0.4735 -0.1416  0.3646
16934TIP3    H172217   3.493   5.656  15.375  0.5827 -2.0927  1.4547
16934TIP3    H272218   3.585   5.700  15.264 -1.1368  1.2962  1.2232
16935TIP3   OH272219   3.934   3.281   5.604  0.0259 -0.3957  0.4225
16935TIP3    H172220   3.887   3.250   5.682  0.0900 -0.4943  0.4218
16935TIP3    H272221   4.015   3.231   5.604  0.4878  0.3366  0.8628
16936TIP3   OH272222   4.534   2.740   4.394  0.3810  0.0067 -0.4267
16936TIP3    H172223   4.465   2.804   4.377 -0.5876 -1.6466 -3.2477
16936TIP3    H272224   4.614   2.793   4.403 -1.0449  1.9302  2.5621
16937TIP3   OH272225   6.757   3.465  15.929 -0.0236  0.6596  0.0690
16937TIP3    H172226   6.851   3.462  15.946  0.0167  1.2972 -0.0360
16937TIP3    H272227   6.750   3.481  15.835 -0.2436 -0.4749 -0.1227
16938TIP3   OH272228   3.509   0.957  16.269  0.3263 -0.5817 -0.5366
16938TIP3    H172229   3.602   0.941  16.289  0.2597 -1.5556 -0.9776
16938TIP3    H272230   3.511   1.035  16.213  0.8605 -0.4957 -0.4083
16939TIP3   OH272231   5.613   6.320   1.488 -0.2409  0.4146 -0.7294
16939TIP3    H172232   5.598   6.356   1.401  1.4490  2.2035 -0.3467
16939TIP3    H272233   5.566   6.380   1.547 -1.1097 -0.6018 -0.3402
16940TIP3   OH272234   6.365   6.045   0.642 -0.0105  0.6122  0.4476
16940TIP3    H172235   6.441   6.101   0.630  1.4004 -1.0563  1.1337
16940TIP3    H272236   6.375   6.010   0.731 -1.3166 -0.0241  0.3741
16941TIP3   OH272237   1.422   4.735  13.119  0.1368 -0.0324 -0.0695
16941TIP3    H172238   1.449   4.722  13.028 -1.9322 -0.5582 -0.6669
16941TIP3    H272239   1.404   4.646  13.151  1.2291  0.1059  1.0206
16942TIP3   OH272240   3.660   2.669  13.835  0.3090  0.1755 -0.0938
16942TIP3    H172241   3.633   2.725  13.763  0.1287  0.4562  0.1889
16942TIP3    H272242   3.724   2.609  13.797 -0.9807 -0.7613 -0.8641
16943TIP3   OH272243   2.846   4.826  11.034  0.1273  0.0299  0.0772
16943TIP3    H172244   2.874   4.737  11.056 -2.8880 -1.3397 -1.1104
16943TIP3    H272245   2.882   4.841  10.947  2.4995  0.9451  1.1356
16944TIP3   OH272246   4.502   4.312  10.761 -0.0866 -0.1220 -0.0762
16944TIP3    H172247   4.540   4.372  10.825 -1.3032  0.2161  0.3576
16944TIP3    H272248   4.570   4.247  10.746  0.0561 -0.5335  1.9909
16945TIP3   OH272249   2.961   5.601  13.700 -0.3921  0.3891 -0.5690
16945TIP3    H172250   2.897   5.627  13.633  1.6867  1.1019 -2.3872
16945TIP3    H272251   3.018   5.538  13.655 -0.5118 -1.2279  1.3945
16946TIP3   OH272252   4.935   2.914  16.299  0.1901  0.2884 -0.0093
16946TIP3    H172253   4.889   2.895  16.217  0.6880  0.1090 -0.2465
16946TIP3    H272254   4.879   2.979  16.343  0.4656  1.1984 -0.9802
16947TIP3   OH272255   4.938   3.234  13.369  0.1839  0.5357 -0.1760
16947TIP3    H172256   4.907   3.305  13.313  1.1692 -1.0144 -2.8533
16947TIP3    H272257   5.033   3.232  13.356  0.7268  1.1208  2.8888
16948TIP3   OH272258   6.253   3.758  16.794 -0.3670  0.2993  0.0695
16948TIP3    H172259   6.296   3.673  16.786 -1.1686 -0.1569  0.4447
16948TIP3    H272260   6.181   3.742  16.856 -1.9806  0.6619 -1.6199
16949TIP3   OH272261   3.742   3.020  11.336 -0.4313 -0.1660  0.2439
16949TIP3    H172262   3.688   2.949  11.370 -0.1112 -0.9101 -0.7326
16949TIP3    H272263   3.830   3.000  11.368 -0.2927 -0.3655 -0.2524
16950TIP3   OH272264   2.093   4.035  14.218  0.2205  0.2721  0.5148
16950TIP3    H172265   2.031   3.969  14.188 -0.0467  1.1201 -0.8562
16950TIP3    H272266   2.173   4.017  14.169  1.3223 -1.1460  2.6471
16951TIP3   OH272267   6.171   2.488   1.945 -0.4939 -0.2002  0.0692
16951TIP3    H172268   6.104   2.514   1.882 -1.1080  0.8866  1.1177
16951TIP3    H272269   6.182   2.394   1.932 -0.5618  0.0144 -1.6742
16952TIP3   OH272270   0.583   4.436  13.769  0.0516  0.3466  0.2095
16952TIP3    H172271   0.626   4.472  13.691  0.5171  2.4217  1.3580
16952TIP3    H272272   0.511   4.497  13.786 -0.6259 -0.6130  0.8727
16953TIP3   OH272273   0.735   4.711   0.841  0.0447  0.4688  1.1808
16953TIP3    H172274   0.702   4.621   0.835 -0.6235  0.7853 -2.0927
16953TIP3    H272275   0.821   4.707   0.800  0.2857  1.2270  1.6037
16954TIP3   OH272276   3.778   6.724  10.417  0.1634 -0.3237 -0.3987
16954TIP3    H172277   3.800   6.743  10.509 -1.7759  1.0204 -0.1571
16954TIP3    H272278   3.726   6.644  10.421 -0.1890 -0.0904 -0.2845
16955TIP3   OH272279   1.043   0.495   1.706  0.6410  0.6604 -0.4491
16955TIP3    H172280   1.031   0.510   1.613  1.8147 -0.1475 -0.7483
16955TIP3    H272281   1.094   0.414   1.711  2.0623  1.5792  0.8335
16956TIP3   OH272282   5.432   0.699   3.843  0.1895 -0.3375  0.0021
16956TIP3    H172283   5.341   0.673   3.831 -0.2794  0.8149  0.8670
16956TIP3    H272284   5.464   0.647   3.916  0.1853 -0.6326 -0.2051
16957TIP3   OH272285   6.361   4.337  13.273 -0.2068 -0.2530 -0.2248
16957TIP3    H172286   6.267   4.348  13.287 -0.3684  0.2226 -1.5357
16957TIP3    H272287   6.368   4.255  13.224  0.1128 -0.5023  0.2270
16958TIP3   OH272288   1.316   2.208   3.692  0.4101  0.0848 -0.3247
16958TIP3    H172289   1.280   2.245   3.611 -1.4356 -2.1061 -0.5846
16958TIP3    H272290   1.406   2.183   3.668  0.1176  0.0677 -1.4883
16959TIP3   OH272291   0.807   3.564   5.349  1.0977 -0.4846  0.6168
16959TIP3    H172292   0.715   3.554   5.323  0.5449  0.9765  1.8143
16959TIP3    H272293   0.849   3.602   5.272  0.5299 -0.5063  0.2850
16960TIP3   OH272294   3.376   4.111   2.994  0.5783  0.3483  0.6207
16960TIP3    H172295   3.333   4.026   2.999  0.1429  0.6144  1.8758
16960TIP3    H272296   3.317   4.171   3.040  0.6088  1.4609 -0.7078
16961TIP3   OH272297   0.329   5.809   3.581  0.1384 -0.0226 -0.1827
16961TIP3    H172298   0.408   5.809   3.527  0.9188 -1.3205  0.9143
16961TIP3    H272299   0.261   5.841   3.522  1.2643  0.1465 -1.4566
16962TIP3   OH272300   1.917   5.505   6.395 -0.5067  0.1872 -0.5480
16962TIP3    H172301   1.861   5.561   6.341  0.7707  1.2393 -0.8266
16962TIP3    H272302   2.005   5.517   6.360 -0.0600 -1.3591 -0.0580
16963TIP3   OH272303   3.251   6.726  15.446  0.0815  0.5399 -0.1687
16963TIP3    H172304   3.330   6.724  15.392  0.8941  0.5471  0.9843
16963TIP3    H272305   3.283   6.743  15.535 -0.8964 -2.3783  0.8584
16964TIP3   OH272306   2.052   2.238  14.850 -0.0812  0.1157  1.3619
16964TIP3    H172307   1.965   2.201  14.835  0.0479  0.2933  0.0834
16964TIP3    H272308   2.046   2.328  14.820  0.5728  0.0981  1.1631
16965TIP3   OH272309   2.475   6.023  11.775 -0.7662  0.7419 -0.5809
16965TIP3    H172310   2.522   5.969  11.712 -1.2093  1.9629 -2.0025
16965TIP3    H272311   2.522   6.106  11.777 -0.9662  0.8535  0.4508
16966TIP3   OH272312   1.493   3.116   1.779 -0.9886  0.1029 -0.8644
16966TIP3    H172313   1.535   3.201   1.796  0.4003 -0.3073 -2.0435
16966TIP3    H272314   1.464   3.086   1.865  0.3635  0.8289 -0.1176
16967TIP3   OH272315   2.863   4.327  11.885 -0.0858 -0.1575  0.0493
16967TIP3    H172316   2.896   4.282  11.963  0.9904  0.3077 -0.1205
16967TIP3    H272317   2.934   4.386  11.860 -0.6503  0.1130 -0.9544
16968TIP3   OH272318   4.108   5.942   1.094  0.4266 -0.3160  0.4222
16968TIP3    H172319   4.110   6.037   1.082 -0.6073 -0.4405 -1.0137
16968TIP3    H272320   4.123   5.930   1.187  2.1375  1.1681  0.3999
16969TIP3   OH272321   6.059   3.923  15.298  0.0621 -0.7455 -0.1355
16969TIP3    H172322   6.123   3.859  15.329 -0.6267 -0.8617  1.1563
16969TIP3    H272323   5.983   3.871  15.274  0.0295 -0.5190 -0.5351
16970TIP3   OH272324   2.567   4.221   5.398  0.2615  0.1333 -0.5541
16970TIP3    H172325   2.638   4.158   5.390 -0.3077 -0.4877 -0.8994
16970TIP3    H272326   2.562   4.241   5.491 -0.8155 -1.8799 -0.1099
16971TIP3   OH272327   1.589   6.052   5.760 -0.5745 -0.2261  0.2318
16971TIP3    H172328   1.590   6.022   5.851  0.4804  0.6738  0.5354
16971TIP3    H272329   1.660   6.116   5.754 -1.7813  1.1153 -0.7597
16972TIP3   OH272330   6.375   5.182   3.127 -1.0703  0.1839  0.5702
16972TIP3    H172331   6.361   5.088   3.141  0.2787 -0.4398 -1.6349
16972TIP3    H272332   6.430   5.186   3.048 -2.6634  2.9042 -0.5411
16973TIP3   OH272333   2.333   3.212  16.725 -0.0690 -0.2689 -0.6991
16973TIP3    H172334   2.414   3.237  16.682  0.0431  1.2908  0.3564
16973TIP3    H272335   2.361   3.165  16.804 -0.2630 -2.1476 -1.6874
16974TIP3   OH272336   1.388   0.910   1.626 -0.0192 -0.1945  0.4197
16974TIP3    H172337   1.440   0.917   1.707 -0.9859  0.7423  0.9908
16974TIP3    H272338   1.443   0.950   1.559 -0.7404  2.7078  1.4117
16975TIP3   OH272339   1.494   5.031  11.540  0.4328 -0.0522  0.2844
16975TIP3    H172340   1.403   5.004  11.530  0.8463 -0.9416 -1.3168
16975TIP3    H272341   1.538   4.954  11.576  0.6060  0.3218  0.8926
16976TIP3   OH272342   5.324   2.182  15.972 -0.5510 -0.2259  0.1156
16976TIP3    H172343   5.380   2.129  15.916 -0.2512 -1.8791  1.8600
16976TIP3    H272344   5.237   2.142  15.964 -0.5675 -0.2931  0.5875
16977TIP3   OH272345   1.282   0.722   3.056  0.7416 -0.0056  0.5272
16977TIP3    H172346   1.279   0.765   2.970  3.1247 -0.2843  0.2240
16977TIP3    H272347   1.241   0.637   3.041  1.8141 -0.3618 -0.5808
16978TIP3   OH272348   4.763   5.520  16.706  0.8879  0.8691  0.2139
16978TIP3    H172349   4.780   5.501  16.613  1.3908  0.8959  0.2987
16978TIP3    H272350   4.690   5.581  16.705  1.6845  1.8274 -0.2222
16979TIP3   OH272351   1.579   1.998   5.747 -1.2608  0.0612  0.3756
16979TIP3    H172352   1.516   2.070   5.741 -1.0739  0.4124  2.1504
16979TIP3    H272353   1.649   2.032   5.802  2.1413  0.7896 -3.9199
16980TIP3   OH272354   5.737   6.587   4.779  0.3720  0.2415  0.5851
16980TIP3    H172355   5.825   6.608   4.748  1.2953 -0.6562  2.4234
16980TIP3    H272356   5.731   6.491   4.769 -0.4260  0.3012  0.4307
16981TIP3   OH272357   6.572   1.438   2.578 -0.0976  0.1903 -0.0656
16981TIP3    H172358   6.538   1.521   2.609  0.3889  1.0099 -1.5941
16981TIP3    H272359   6.650   1.422   2.631  0.5711  1.4067 -0.6488
16982TIP3   OH272360   3.408   0.002  15.680 -0.2030  0.5212  0.0460
16982TIP3    H172361   3.374   0.025  15.766 -0.1043 -0.2257  0.2985
16982TIP3    H272362   3.466  -0.073  15.696  0.3178  0.7695 -0.5867
16983TIP3   OH272363   2.109   5.406   1.775 -0.0027  0.4398  0.0210
16983TIP3    H172364   2.064   5.431   1.856 -1.6681 -1.5825 -0.1980
16983TIP3    H272365   2.039   5.378   1.716  1.4308 -2.4767 -0.4861
16984TIP3   OH272366   1.433   2.981  13.366  0.0654  0.9304  0.0563
16984TIP3    H172367   1.403   2.912  13.306  0.1001  1.6222 -0.7781
16984TIP3    H272368   1.527   2.987  13.350  0.3867 -0.0344  1.4114
16985TIP3   OH272369   2.783   4.760   6.051 -0.5659  0.8051  0.0592
16985TIP3    H172370   2.800   4.854   6.040  0.3739  0.4032 -2.8181
16985TIP3    H272371   2.702   4.744   6.003  0.2309 -0.1115 -1.0238
16986TIP3   OH272372   2.967   5.495   3.183 -0.3154 -0.0037  0.5709
16986TIP3    H172373   2.878   5.532   3.179  0.5183  2.2587  1.4814
16986TIP3    H272374   2.981   5.475   3.275  0.0616 -0.5808  0.3963
16987TIP3   OH272375   5.009   4.474   0.047 -0.3060  0.5996 -0.4146
16987TIP3    H172376   4.994   4.529   0.124 -1.4118 -1.2889  0.7864
16987TIP3    H272377   5.086   4.513   0.004 -1.0149  3.0366  0.3541
16988TIP3   OH272378   2.791   5.780  12.678  0.2731 -0.0631  0.3685
16988TIP3    H172379   2.853   5.784  12.751  1.1789 -0.4714 -0.3560
16988TIP3    H272380   2.846   5.770  12.600 -0.6829  0.1876 -0.3565
16989TIP3   OH272381   5.492   5.189   2.946  0.2094 -0.4195  0.4917
16989TIP3    H172382   5.521   5.258   3.005  2.0228 -0.6112 -0.1198
16989TIP3    H272383   5.567   5.173   2.888 -1.8703  0.7581 -2.8477
16990TIP3   OH272384   1.567   1.120   0.324 -0.1121 -0.7987  0.5548
16990TIP3    H172385   1.642   1.106   0.265  0.2373 -1.1962  1.0922
16990TIP3    H272386   1.527   1.034   0.333  0.5502 -0.9898  1.8536
16991TIP3   OH272387   5.687   4.531  15.801  0.1207 -0.1195  0.3778
16991TIP3    H172388   5.725   4.501  15.884 -0.9977 -1.1440  0.5466
16991TIP3    H272389   5.616   4.590  15.827  2.2187  2.7969  0.0526
16992TIP3   OH272390   4.111   4.520   1.417  0.0441  0.1338 -0.2543
16992TIP3    H172391   4.141   4.439   1.459  0.3875 -0.3811 -1.4323
16992TIP3    H272392   4.161   4.524   1.335  0.2453  1.6998 -0.0837
16993TIP3   OH272393   2.269   4.818   3.832  0.3885  0.1350  0.3755
16993TIP3    H172394   2.257   4.852   3.921  0.6484  0.6536  0.2138
16993TIP3    H272395   2.352   4.855   3.803  0.8217 -0.8896  0.3047
16994TIP3   OH272396   6.040   3.046  15.236 -1.0428 -0.1453  0.1134
16994TIP3    H172397   6.127   3.014  15.211 -1.6317 -0.9640 -1.0399
16994TIP3    H272398   6.039   3.043  15.331 -0.3615 -1.7120  0.0990
16995TIP3   OH272399   5.991   6.265   3.005  0.2880 -0.6764 -0.6166
16995TIP3    H172400   6.065   6.205   3.015  0.0109 -0.7495  1.3422
16995TIP3    H272401   6.025   6.350   3.031  0.1694 -0.3344 -1.5483
16996TIP3   OH272402   1.509   4.191  17.102 -0.4261  0.3951 -0.0615
16996TIP3    H172403   1.458   4.158  17.028  1.6528  0.4149 -1.5895
16996TIP3    H272404   1.580   4.127  17.112  1.9121  2.6676 -1.0756
16997TIP3   OH272405   4.390   0.150  14.752  0.2583 -0.0617  0.2250
16997TIP3    H172406   4.448   0.218  14.788 -0.0733  0.5479 -0.3708
16997TIP3    H272407   4.417   0.069  14.796 -0.4619  0.7264  2.2809
16998TIP3   OH272408   3.887   0.092   2.973 -0.0181  0.3782 -0.2315
16998TIP3    H172409   3.966   0.124   3.017 -0.4268 -0.9479  1.5643
16998TIP3    H272410   3.897  -0.003   2.971 -2.5396 -0.0614  2.1442
16999TIP3   OH272411   1.976   2.925   4.060  0.4017  0.4562  0.0816
16999TIP3    H172412   2.012   3.014   4.054  0.0869  0.6041  0.3404
16999TIP3    H272413   2.041   2.876   4.110 -0.3441  1.0570  1.7322
17000TIP3   OH272414   3.630   0.401  12.061 -0.6898  0.0353 -0.0794
17000TIP3    H172415   3.642   0.376  11.970 -0.9507 -0.6610  0.0740
17000TIP3    H272416   3.544   0.366  12.085 -0.6268  0.2151  0.4342
17001TIP3   OH272417   6.514   2.494  12.649 -0.0259  0.4029 -0.1824
17001TIP3    H172418   6.580   2.425  12.642 -2.4582 -1.8547 -3.5401
17001TIP3    H272419   6.482   2.487  12.739  1.3686 -1.2630  0.2442
17002TIP3   OH272420   0.381   3.106   4.918  0.3139  0.0361  0.6067
17002TIP3    H172421   0.377   3.015   4.948 -1.2845 -0.0843  0.1420
17002TIP3    H272422   0.438   3.104   4.841  0.9140 -0.4304  1.0603
17003TIP3   OH272423   1.353   3.153  14.366 -0.1810 -0.1092 -0.5943
17003TIP3    H172424   1.418   3.185  14.429 -1.8396  0.3556  0.9336
17003TIP3    H272425   1.294   3.227  14.353 -0.4933 -0.5605 -1.8912
17004TIP3   OH272426   2.564   1.720   5.179  0.2028  0.3122 -0.1491
17004TIP3    H172427   2.557   1.627   5.160  4.3252 -0.5025  1.2177
17004TIP3    H272428   2.640   1.749   5.128  0.1475  2.4753  0.8771
17005TIP3   OH272429   0.819   1.862  14.739  0.1360 -0.1754 -0.2613
17005TIP3    H172430   0.799   1.947  14.778  1.0499 -1.0825  2.3995
17005TIP3    H272431   0.912   1.868  14.716  0.4746 -0.7481  0.8825
17006TIP3   OH272432   4.221   2.685   1.207 -0.3299  0.5262  0.2168
17006TIP3    H172433   4.214   2.643   1.121  1.1150  1.1311 -0.2435
17006TIP3    H272434   4.139   2.665   1.251 -0.9614 -0.0903 -1.1792
17007TIP3   OH272435   6.393   1.423   4.650  0.1153  0.5628  0.8929
17007TIP3    H172436   6.309   1.410   4.607  0.8308  0.3731 -0.5004
17007TIP3    H272437   6.403   1.518   4.655 -1.1419  0.6558  3.0941
17008TIP3   OH272438   4.472   4.314  15.156  0.3667 -0.1812 -0.6607
17008TIP3    H172439   4.401   4.251  15.174 -0.2887  0.5323 -0.6859
17008TIP3    H272440   4.503   4.340  15.243  0.8738 -0.7924 -0.6538
17009TIP3   OH272441   2.178   6.686   3.726  0.4747 -0.2368  0.1894
17009TIP3    H172442   2.155   6.625   3.795 -1.2085  0.9621  0.7395
17009TIP3    H272443   2.259   6.728   3.757  0.4037 -0.5751  0.8370
17010TIP3   OH272444   6.355   2.518  15.114 -0.0711  0.6955  0.2302
17010TIP3    H172445   6.418   2.577  15.156 -0.9093  1.4163  0.4923
17010TIP3    H272446   6.324   2.462  15.185 -0.0182  0.5938  0.1741
17011TIP3   OH272447   2.442   4.451  13.888  0.0128 -0.1504  0.1931
17011TIP3    H172448   2.393   4.510  13.944  0.6402 -2.1882  3.1040
17011TIP3    H272449   2.531   4.487  13.885  0.1496 -0.4049  1.1250
17012TIP3   OH272450   6.127   5.325   5.593 -0.0223  1.0058 -0.3334
17012TIP3    H172451   6.125   5.373   5.675 -0.4823 -0.8825  0.8215
17012TIP3    H272452   6.048   5.270   5.595  0.9490 -0.4940 -1.1244
17013TIP3   OH272453   2.110   1.660  13.649 -0.3869 -0.2391  0.1330
17013TIP3    H172454   2.032   1.709  13.622  0.5549  2.0740  1.2810
17013TIP3    H272455   2.097   1.645  13.743  0.1895 -0.5412  0.1677
17014TIP3   OH272456   2.033   1.107  11.620 -0.0531 -0.8302  0.0286
17014TIP3    H172457   2.024   1.068  11.533  0.6591 -1.7157  0.3357
17014TIP3    H272458   1.955   1.161  11.630  1.1053  1.4296 -2.1985
17015TIP3   OH272459   2.568   3.111  14.769  0.6456 -0.2891 -0.5377
17015TIP3    H172460   2.531   3.139  14.685  1.0778 -0.1290 -0.6771
17015TIP3    H272461   2.532   3.173  14.833  0.7039 -0.1096 -0.6773
17016TIP3   OH272462   4.690   1.859   0.807  0.4663  0.3480  0.8360
17016TIP3    H172463   4.765   1.804   0.783 -1.3554 -1.5199 -0.8885
17016TIP3    H272464   4.690   1.859   0.903  1.5763 -1.1653  0.8631
17017TIP3   OH272465   5.997   4.975   6.294  0.2940  0.4128  0.2388
17017TIP3    H172466   5.940   5.032   6.346  0.2601 -0.2482  0.9323
17017TIP3    H272467   6.086   5.003   6.316  0.2732  0.3315  0.4228
17018TIP3   OH272468   6.709   6.743   4.416 -0.4420  0.2009  0.5396
17018TIP3    H172469   6.783   6.690   4.386  0.0705  0.4864  1.2675
17018TIP3    H272470   6.742   6.790   4.493 -1.5883 -0.1670  1.2835
17019TIP3   OH272471   0.055   5.878   3.420 -0.0379 -0.3608  0.2232
17019TIP3    H172472  -0.015   5.854   3.481 -0.5829 -0.3854 -0.4039
17019TIP3    H272473   0.032   5.834   3.338  1.5795 -1.7004  0.4436
17020TIP3   OH272474   0.201   1.889   1.730  0.0060 -0.0887  0.0709
17020TIP3    H172475   0.244   1.860   1.811  0.7258  0.8428  0.0339
17020TIP3    H272476   0.193   1.984   1.740  0.6684  0.1113 -1.2320
17021TIP3   OH272477   5.670   6.417   0.613  0.0427 -0.1574 -0.7902
17021TIP3    H172478   5.594   6.360   0.623  0.2842 -0.6061 -1.4216
17021TIP3    H272479   5.744   6.356   0.602  0.5774  0.2607  0.2811
17022TIP3   OH272480   6.400   1.237  17.105  0.0837 -0.2665  0.1814
17022TIP3    H172481   6.318   1.233  17.154  1.1112  0.8713  2.1514
17022TIP3    H272482   6.402   1.326  17.070  1.0682  0.1933  1.3348
17023TIP3   OH272483   5.332   6.462  11.734  0.3804 -0.0108  0.5220
17023TIP3    H172484   5.343   6.534  11.797  1.3616  0.0041  0.3477
17023TIP3    H272485   5.391   6.485  11.662  1.7312 -1.6397  1.0450
17024TIP3   OH272486   5.098   6.275  12.945 -0.1031 -0.6927 -0.1961
17024TIP3    H172487   5.058   6.354  12.910 -0.1216 -0.5582  0.1210
17024TIP3    H272488   5.189   6.279  12.916  0.0489 -0.2487  0.3177
17025TIP3   OH272489   5.137   2.173  15.615  0.3405 -0.1595 -0.5543
17025TIP3    H172490   5.177   2.246  15.662  0.8536 -0.7256 -0.0993
17025TIP3    H272491   5.129   2.204  15.525  0.6806  0.4050 -0.3942
17026TIP3   OH272492   5.358   2.811  16.372  0.4171 -0.3534 -0.8215
17026TIP3    H172493   5.407   2.756  16.434  0.8000  1.1018  0.2372
17026TIP3    H272494   5.397   2.898  16.383 -1.7489  0.6552 -0.6672
17027TIP3   OH272495   4.693   5.461   0.242 -0.4843 -0.0220 -0.2137
17027TIP3    H172496   4.600   5.483   0.246  0.1142  3.0348 -0.8239
17027TIP3    H272497   4.715   5.466   0.149  0.1930 -1.4720 -0.1662
17028TIP3   OH272498   3.531   0.268  13.298  0.2625 -0.2210 -0.5477
17028TIP3    H172499   3.622   0.297  13.309  0.5855 -1.0474 -0.9465
17028TIP3    H272500   3.537   0.195  13.236 -0.6861 -0.2281 -0.6356
17029TIP3   OH272501   5.588   2.675   6.847 -0.0984  0.2683 -0.2128
17029TIP3    H172502   5.601   2.591   6.891  2.0953  1.1029  0.8625
17029TIP3    H272503   5.493   2.688   6.850 -0.2981 -1.1376  1.5658
17030TIP3   OH272504   4.553   2.263  15.872 -0.0122  0.0339  0.0981
17030TIP3    H172505   4.624   2.292  15.814 -0.7186 -0.0039 -0.8072
17030TIP3    H272506   4.539   2.337  15.932 -0.7635  0.9998 -1.2114
17031TIP3   OH272507   2.351   6.328   2.680 -0.1026  0.3604 -0.0141
17031TIP3    H172508   2.402   6.406   2.701 -0.3759  0.0955  1.7588
17031TIP3    H272509   2.338   6.284   2.764 -0.4124 -1.3223 -0.8968
17032TIP3   OH272510   1.846   1.957   4.762  0.7095  0.0008 -0.4647
17032TIP3    H172511   1.808   2.016   4.697 -0.4018  0.1523  0.2957
17032TIP3    H272512   1.916   2.008   4.803 -0.8392  1.1649  0.8271
17033TIP3   OH272513   3.212   5.507   1.212  0.4981 -1.0005  0.7503
17033TIP3    H172514   3.249   5.594   1.219  1.9640 -1.6122  0.9235
17033TIP3    H272515   3.120   5.518   1.235  0.0271  0.9306 -1.6449
17034TIP3   OH272516   1.428   2.133   5.005 -0.4545 -0.7112  0.2412
17034TIP3    H172517   1.517   2.100   4.998  0.2765  1.4528 -2.2338
17034TIP3    H272518   1.388   2.113   4.920 -0.8239  2.0858 -0.3570
17035TIP3   OH272519   1.017   3.859  16.686 -0.0162 -0.2477 -0.3095
17035TIP3    H172520   0.949   3.796  16.661  0.0361 -0.6846  0.6374
17035TIP3    H272521   1.029   3.912  16.607 -1.9830  0.3301 -0.2691
17036TIP3   OH272522   0.414   1.168   5.724  0.1426 -0.4512  0.2513
17036TIP3    H172523   0.504   1.137   5.710  0.0053  0.3966 -3.6118
17036TIP3    H272524   0.368   1.147   5.643 -2.8346  0.3296  1.5910
17037TIP3   OH272525   1.354   3.560   6.211 -0.1835 -0.7387  0.0762
17037TIP3    H172526   1.396   3.511   6.282  1.2992  0.4317  0.0621
17037TIP3    H272527   1.285   3.610   6.255  1.1204  0.4549  0.8523
17038TIP3   OH272528   3.055   1.845  17.211 -0.2244 -1.2081 -0.7685
17038TIP3    H172529   3.058   1.807  17.298  0.0330 -0.3752 -0.4106
17038TIP3    H272530   3.145   1.872  17.192 -0.6057  0.4360 -0.4510
17039TIP3   OH272531   5.833   0.174  11.910  0.1484  0.1089  0.0914
17039TIP3    H172532   5.772   0.151  11.980  0.9581  0.4700  0.9401
17039TIP3    H272533   5.800   0.256  11.874  0.5478  0.6990  1.0555
17040TIP3   OH272534   5.247   3.995   2.673  0.7500 -0.1113  0.1434
17040TIP3    H172535   5.256   4.052   2.596  1.4224 -0.4609 -0.0417
17040TIP3    H272536   5.197   3.920   2.642 -1.2139  0.8914  0.6781
17041TIP3   OH272537   5.691   1.987  13.429 -0.2503  0.1019  0.2910
17041TIP3    H172538   5.696   2.055  13.496 -1.6939  0.2566  0.2814
17041TIP3    H272539   5.654   2.032  13.353 -1.0184 -0.6313  0.2185
17042TIP3   OH272540   2.440   0.596  15.188  0.2193 -0.3498  0.3223
17042TIP3    H172541   2.478   0.520  15.231  1.8086  0.1743 -0.0989
17042TIP3    H272542   2.471   0.671  15.239  0.9179  0.1819 -0.8351
17043TIP3   OH272543   6.653   2.768   2.431  0.1470  0.1480  0.2518
17043TIP3    H172544   6.707   2.846   2.441 -1.2027  1.0294  1.0975
17043TIP3    H272545   6.710   2.704   2.390  1.3555  1.5205 -0.3001
17044TIP3   OH272546   2.976   1.773  16.699  0.3782  0.1207 -0.3123
17044TIP3    H172547   3.005   1.694  16.653 -1.0787 -0.0803 -0.9529
17044TIP3    H272548   3.056   1.810  16.736  1.2005 -1.2233 -0.6719
17045TIP3   OH272549   4.972   3.793   1.514 -0.1418  0.1320  0.4130
17045TIP3    H172550   4.991   3.850   1.440  1.0095  1.0774  1.3919
17045TIP3    H272551   4.990   3.704   1.482  0.6856  0.5612 -0.3529
17046TIP3   OH272552   6.171   0.195   1.331  0.1638  0.1030  0.3401
17046TIP3    H172553   6.231   0.143   1.278  0.7438 -0.6753  1.7256
17046TIP3    H272554   6.091   0.201   1.278  0.7457 -0.5797 -0.6379
17047TIP3   OH272555   2.059   4.467  12.950  0.1651  0.1567  0.3153
17047TIP3    H172556   2.097   4.513  13.025 -0.2630  1.2634 -0.1232
17047TIP3    H272557   2.120   4.396  12.932  1.3662  1.1168  0.4494
17048TIP3   OH272558   3.455   2.732   5.843  0.0463 -0.7480 -0.3234
17048TIP3    H172559   3.527   2.709   5.784  0.3798  0.8051 -0.5723
17048TIP3    H272560   3.494   2.727   5.930  0.3999 -0.1641 -0.4413
17049TIP3   OH272561   0.224   1.854  11.773  0.7580  0.5162  0.1369
17049TIP3    H172562   0.249   1.863  11.865 -0.5519  0.9711  0.4721
17049TIP3    H272563   0.265   1.772  11.745  0.6656  0.0487  1.3056
17050TIP3   OH272564   6.446   2.498  12.931  0.4332 -0.8007  0.0386
17050TIP3    H172565   6.374   2.436  12.945  1.1310 -1.9983 -1.4018
17050TIP3    H272566   6.427   2.570  12.991 -1.0312 -1.8696  0.9424
17051TIP3   OH272567   5.352   4.607  11.330 -0.0353 -0.2304 -0.0360
17051TIP3    H172568   5.404   4.661  11.270  0.0161 -0.5006 -0.2383
17051TIP3    H272569   5.412   4.539  11.360  0.3569  0.7365  1.4629
17052TIP3   OH272570   3.435   5.252   6.267 -0.8246 -0.0921 -0.2236
17052TIP3    H172571   3.499   5.238   6.337  0.7201  1.5103 -1.2724
17052TIP3    H272572   3.472   5.208   6.191 -0.1878  2.0327 -1.2183
17053TIP3   OH272573   3.631   5.501   2.215 -0.0520 -0.1653  0.1034
17053TIP3    H172574   3.608   5.411   2.192 -0.0914 -0.0613 -0.2749
17053TIP3    H272575   3.702   5.523   2.154  1.5494 -0.7078  1.6580
17054TIP3   OH272576   6.132   0.109   3.375 -0.3084  0.5021  0.4608
17054TIP3    H172577   6.201   0.119   3.440  0.3551  1.6730 -0.3939
17054TIP3    H272578   6.119   0.196   3.339 -1.3604  0.0642 -0.2908
17055TIP3   OH272579   2.897   0.883  17.200  0.1122 -0.5318  0.6317
17055TIP3    H172580   2.923   0.973  17.214 -2.9481  0.6763 -0.5110
17055TIP3    H272581   2.804   0.881  17.224 -0.5653 -2.7315 -1.6680
17056TIP3   OH272582   2.899   1.188  11.614  0.4526  0.4939  0.1505
17056TIP3    H172583   2.922   1.234  11.533  0.9087 -1.0829 -0.6446
17056TIP3    H272584   2.896   1.096  11.590  3.0239 -0.3229  2.4078
17057TIP3   OH272585   4.251   6.325  15.941  0.3238 -0.2163 -0.4144
17057TIP3    H172586   4.284   6.289  16.023  0.4274 -2.2196 -1.2847
17057TIP3    H272587   4.157   6.308  15.943  0.2034  0.4279 -0.3838
17058TIP3   OH272588   0.716   5.522  16.756  0.2373 -0.2986 -0.0855
17058TIP3    H172589   0.739   5.465  16.828  0.3366 -0.2853 -0.1067
17058TIP3    H272590   0.720   5.466  16.678 -0.7058 -0.5295  0.0207
17059TIP3   OH272591   0.286   4.191   4.769  0.1862  0.0964 -0.5201
17059TIP3    H172592   0.312   4.269   4.719  1.8215 -0.4915 -0.6481
17059TIP3    H272593   0.229   4.226   4.838  1.5118  1.5657 -0.0804
17060TIP3   OH272594   2.253   0.751   2.608 -0.1005 -0.5518  0.8274
17060TIP3    H172595   2.163   0.757   2.639  0.1708 -0.7423  1.6669
17060TIP3    H272596   2.248   0.778   2.516 -1.1445 -1.3813  0.6272
17061TIP3   OH272597   5.301   0.673   1.223 -0.4273  0.9496  0.0294
17061TIP3    H172598   5.248   0.604   1.183  1.7931 -0.5943 -0.4172
17061TIP3    H272599   5.287   0.749   1.166  1.6282 -0.8216 -3.1575
17062TIP3   OH272600   4.955   2.225   2.232 -0.5626 -0.6166 -0.2452
17062TIP3    H172601   4.998   2.306   2.206  2.2694 -1.7735  0.4976
17062TIP3    H272602   4.995   2.157   2.177 -0.4257 -1.9603  1.4298
17063TIP3   OH272603   1.607   2.344   4.276  0.1408  0.0849 -0.3168
17063TIP3    H172604   1.577   2.398   4.350 -0.4814  0.0242 -0.5231
17063TIP3    H272605   1.682   2.296   4.311 -0.2562 -0.0762  0.3353
17064TIP3   OH272606   4.208   3.826  12.607 -0.4412  0.8959 -0.1814
17064TIP3    H172607   4.289   3.877  12.607 -0.4248  0.8758 -0.5710
17064TIP3    H272608   4.155   3.865  12.676 -1.0112  2.3769 -1.4087
17065TIP3   OH272609   4.743   4.720   2.883  0.4443 -0.6642  0.0405
17065TIP3    H172610   4.809   4.676   2.829  0.2523 -0.7095 -0.1566
17065TIP3    H272611   4.784   4.803   2.907 -0.2450  0.2863 -1.8935
17066TIP3   OH272612   5.276   5.217  12.582 -0.3919 -0.6888 -0.0668
17066TIP3    H172613   5.216   5.169  12.640  0.3861 -0.3110  1.0915
17066TIP3    H272614   5.295   5.298  12.629  2.2753 -1.4951  0.3875
17067TIP3   OH272615   5.898   6.018  16.407 -0.1164 -0.9451  0.4517
17067TIP3    H172616   5.901   5.944  16.347  0.9978 -0.3593 -0.2391
17067TIP3    H272617   5.822   6.069  16.379  0.5532 -0.5235 -0.6761
17068TIP3   OH272618   1.249   1.492  11.173  0.3435 -0.0079  0.0459
17068TIP3    H172619   1.331   1.458  11.210 -0.9643 -1.7074  1.5901
17068TIP3    H272620   1.230   1.434  11.099  1.7198  1.9190 -1.9471
17069TIP3   OH272621   4.759   0.663  13.879 -0.4301 -0.1877  0.4897
17069TIP3    H172622   4.825   0.731  13.896  2.3430 -2.2575 -1.2134
17069TIP3    H272623   4.762   0.607  13.956 -1.9120  0.8687  1.3871
17070TIP3   OH272624   1.324   5.840   1.104  0.6418  0.0811 -0.1815
17070TIP3    H172625   1.259   5.874   1.166  0.3347 -0.7125 -0.0692
17070TIP3    H272626   1.359   5.762   1.146  0.2163 -0.6410 -1.1378
17071TIP3   OH272627   2.698   2.433  16.380  0.3766 -0.4049 -0.0044
17071TIP3    H172628   2.674   2.367  16.445  1.7298 -1.1441 -0.2274
17071TIP3    H272629   2.639   2.506  16.398  0.7814 -0.5387  2.1426
17072TIP3   OH272630   5.711   2.418  11.743 -0.6794 -0.3065  0.3096
17072TIP3    H172631   5.779   2.442  11.805 -0.2652  0.3953 -0.4075
17072TIP3    H272632   5.657   2.496  11.734  0.1842  0.1430 -1.4003
17073TIP3   OH272633   1.463   3.740  12.124  0.0616 -0.2461  0.4124
17073TIP3    H172634   1.397   3.770  12.062 -0.1937  0.6988  1.1205
17073TIP3    H272635   1.464   3.645  12.114 -1.0517 -0.2312  0.0379
17074TIP3   OH272636   4.420   5.420   4.009  0.1763 -0.3210  0.5394
17074TIP3    H172637   4.477   5.497   4.015 -0.8580  0.8113 -2.2372
17074TIP3    H272638   4.473   5.348   4.044  1.9437  1.2865  1.3475
17075TIP3   OH272639   0.545   1.201  11.978  0.2758  0.1542  0.3535
17075TIP3    H172640   0.570   1.293  11.979  1.7477 -0.1002 -2.3619
17075TIP3    H272641   0.461   1.198  11.932 -0.3137  0.2131  1.4085
17076TIP3   OH272642   4.219   0.561   0.761 -0.0014 -0.5371 -0.2428
17076TIP3    H172643   4.275   0.552   0.684 -0.0512  0.5396 -0.4093
17076TIP3    H272644   4.135   0.523   0.734 -0.2181  0.4056 -0.9486
17077TIP3   OH272645   4.028   0.492  11.398 -0.9206 -0.5895 -0.1172
17077TIP3    H172646   3.970   0.441  11.341 -0.7320 -0.1206 -0.7423
17077TIP3    H272647   4.116   0.472  11.367 -0.7704 -0.8913  0.4869
17078TIP3   OH272648   1.586   1.523   1.406 -0.2649  0.0324 -0.1879
17078TIP3    H172649   1.587   1.580   1.329 -1.2361  2.4445  1.4618
17078TIP3    H272650   1.495   1.497   1.415 -0.2893  0.3661  0.5547
17079TIP3   OH272651   5.784   3.410  11.280 -0.2620  0.7876 -0.1467
17079TIP3    H172652   5.786   3.490  11.227  0.5316 -1.2754 -3.5140
17079TIP3    H272653   5.698   3.373  11.264 -0.3126  0.5173  0.7088
17080TIP3   OH272654   4.557   0.572  14.571 -0.7861 -0.2176  0.1471
17080TIP3    H172655   4.491   0.639  14.552 -0.4153  0.5899  1.6033
17080TIP3    H272656   4.572   0.578  14.665  1.7529 -0.0261 -0.1989
17081TIP3   OH272657   5.234   1.925  15.679 -0.3221  0.3784 -0.1437
17081TIP3    H172658   5.263   1.921  15.770 -2.1094  0.0155  0.4525
17081TIP3    H272659   5.189   2.009  15.672 -1.7263 -0.3314 -0.1497
17082TIP3   OH272660   3.567   0.266   2.615 -0.3479  0.1552  0.0142
17082TIP3    H172661   3.552   0.175   2.590  1.5867 -0.2893  0.2742
17082TIP3    H272662   3.656   0.266   2.651 -1.1094  1.7198  2.1229
17083TIP3   OH272663   3.867   1.957   3.545  0.9315  0.3298  0.2125
17083TIP3    H172664   3.772   1.959   3.559  0.7611 -0.7483 -0.6369
17083TIP3    H272665   3.887   2.044   3.510  0.5397  1.1358  1.8585
17084TIP3   OH272666   3.367   0.127   5.461 -0.1438  0.3433  0.0239
17084TIP3    H172667   3.338   0.207   5.417 -0.8952 -0.0661 -0.2396
17084TIP3    H272668   3.423   0.158   5.533  0.1544  1.0677 -0.5090
17085TIP3   OH272669   1.800   4.315  11.993 -0.5379  0.1281 -0.0226
17085TIP3    H172670   1.849   4.238  12.021  1.1815  1.2641  0.2033
17085TIP3    H272671   1.772   4.357  12.074 -1.2513 -0.0870 -0.1442
17086TIP3   OH272672   0.589   4.552   3.649 -0.1010  0.3033  1.3844
17086TIP3    H172673   0.529   4.483   3.621  2.8314 -1.5727 -0.9141
17086TIP3    H272674   0.588   4.615   3.577 -0.1885  0.8779  1.8805
17087TIP3   OH272675   5.041   6.138  11.811  0.0009  0.1497 -0.8589
17087TIP3    H172676   5.027   6.113  11.720 -1.6577  0.0621 -0.5957
17087TIP3    H272677   5.036   6.234  11.811 -0.6736  0.1143 -0.7528
17088TIP3   OH272678   2.721   6.541   0.883  0.1469 -0.3819 -0.1448
17088TIP3    H172679   2.728   6.480   0.956 -0.6723 -1.7585 -1.1669
17088TIP3    H272680   2.810   6.548   0.848  0.5470  0.3005  0.9486
17089TIP3   OH272681   4.051   0.554  12.969  0.0999  0.1122 -0.1429
17089TIP3    H172682   3.999   0.568  12.890  1.5022 -0.8145 -1.2755
17089TIP3    H272683   4.035   0.463  12.994  1.4489 -0.3116 -0.7437
17090TIP3   OH272684   6.470   6.733  11.712  0.7831 -0.0269 -0.0912
17090TIP3    H172685   6.495   6.687  11.632  0.1531  0.5609 -0.6333
17090TIP3    H272686   6.537   6.708  11.775  1.4646 -0.2599 -0.8837
17091TIP3   OH272687   3.365   6.613  11.881 -0.1404  0.3130  0.2342
17091TIP3    H172688   3.437   6.550  11.891 -0.2441  0.1736  0.1062
17091TIP3    H272689   3.330   6.595  11.794 -0.1052  0.6173  0.1573
17092TIP3   OH272690   1.345   1.295   0.337  0.1897  0.2931 -0.2579
17092TIP3    H172691   1.303   1.222   0.292  0.9700  1.1311 -2.5010
17092TIP3    H272692   1.422   1.256   0.379 -0.9516 -0.6408  1.0189
17093TIP3   OH272693   5.871   1.865  10.794  0.5699 -0.1333  0.1080
17093TIP3    H172694   5.939   1.822  10.742  1.2562  1.0066  0.0315
17093TIP3    H272695   5.791   1.852  10.744  0.4126 -2.7155  0.8751
17094TIP3   OH272696   0.501   4.199   0.858 -0.5507  0.0820  0.1514
17094TIP3    H172697   0.442   4.222   0.786  0.3106 -0.8469 -0.8913
17094TIP3    H272698   0.444   4.159   0.924 -1.2506  0.3177 -0.2999
17095TIP3   OH272699   4.987   6.372  14.224 -0.6266  0.1386  0.6311
17095TIP3    H172700   4.978   6.278  14.240 -2.0528  0.0879 -0.2793
17095TIP3    H272701   4.994   6.411  14.312  2.3017 -0.9580  0.9847
17096TIP3   OH272702   4.312   2.634   5.164  0.0667  0.0306  0.9599
17096TIP3    H172703   4.369   2.693   5.114  1.1722  0.4999  2.7166
17096TIP3    H272704   4.286   2.685   5.241 -0.3467 -1.1965  1.6526
17097TIP3   OH272705   0.482   2.306   0.151 -0.2287  0.6661  0.4089
17097TIP3    H172706   0.496   2.286   0.058 -0.2796  0.6282  0.4095
17097TIP3    H272707   0.538   2.244   0.197 -0.0226  0.8429  0.3963
17098TIP3   OH272708   6.236   1.827   5.512  0.1884 -0.3939  0.3203
17098TIP3    H172709   6.193   1.823   5.597 -0.5447  0.0132 -0.0190
17098TIP3    H272710   6.205   1.909   5.473  1.3469 -0.0382  0.0886
17099TIP3   OH272711   5.618   1.098  14.642  0.0998  0.3380 -0.0344
17099TIP3    H172712   5.601   1.034  14.710 -0.7270  0.0487 -0.4963
17099TIP3    H272713   5.547   1.085  14.579 -0.2086  1.8400 -0.0314
17100TIP3   OH272714   3.688   3.177   1.446  0.5941 -0.1162  0.1421
17100TIP3    H172715   3.600   3.151   1.473 -0.2496  1.5009 -0.9411
17100TIP3    H272716   3.703   3.129   1.365  0.0909  0.7195 -0.4606
17101TIP3   OH272717   0.149   6.377   6.235  0.3814 -0.4399 -0.4092
17101TIP3    H172718   0.068   6.380   6.184  0.4761  2.3076 -0.5345
17101TIP3    H272719   0.204   6.445   6.196  2.2845 -1.3935  0.4805
17102TIP3   OH272720   1.649   4.877  14.370 -0.1408 -0.1129  0.1526
17102TIP3    H172721   1.658   4.940  14.441  1.7408  0.1014 -0.2247
17102TIP3    H272722   1.647   4.791  14.413 -1.6154  0.1254  0.5955
17103TIP3   OH272723   0.841   1.116   5.485 -0.1650 -0.3782 -0.0721
17103TIP3    H172724   0.756   1.122   5.441  0.4889 -0.5091 -1.3813
17103TIP3    H272725   0.847   1.025   5.513 -0.7190 -0.2201  0.6121
17104TIP3   OH272726   4.286   5.299  15.179 -0.0458 -0.1227 -0.2337
17104TIP3    H172727   4.191   5.297  15.166 -0.1235  1.0685  0.0809
17104TIP3    H272728   4.301   5.241  15.254 -0.4911 -0.5388 -0.4631
17105TIP3   OH272729   5.256   1.477   4.586 -0.6389 -0.6714  0.3068
17105TIP3    H172730   5.190   1.414   4.558  1.3281 -1.8599 -2.0424
17105TIP3    H272731   5.340   1.434   4.568  0.7881  1.5309  1.2740
17106TIP3   OH272732   1.064   2.440  11.634  0.1461  0.4373  0.1962
17106TIP3    H172733   1.063   2.345  11.634 -0.4079  0.4403 -0.4644
17106TIP3    H272734   1.154   2.463  11.611 -0.0208  0.0659 -0.8991
17107TIP3   OH272735   3.427   5.197  12.879 -0.1262 -0.0672 -0.3266
17107TIP3    H172736   3.406   5.284  12.914 -2.8510 -1.5519  2.2511
17107TIP3    H272737   3.521   5.186  12.896  0.1241  2.0722 -0.0571
17108TIP3   OH272738   2.126   4.607   4.756  0.4079 -0.7472  0.4054
17108TIP3    H172739   2.043   4.635   4.794  0.0531 -2.2314  0.7924
17108TIP3    H272740   2.104   4.530   4.703  1.3516 -0.4296 -0.4852
17109TIP3   OH272741   1.579   4.120   5.874  0.3772 -0.2626 -0.0996
17109TIP3    H172742   1.572   4.028   5.851 -0.4202 -0.0136 -0.8944
17109TIP3    H272743   1.491   4.145   5.902  1.1813 -0.4296  2.9300
17110TIP3   OH272744   5.003   5.572  12.040  0.1692  0.2306 -0.2746
17110TIP3    H172745   5.017   5.487  12.082  0.1878  0.7647  0.8306
17110TIP3    H272746   5.040   5.635  12.101 -1.1021  1.1477 -0.4183
17111TIP3   OH272747   2.900   2.432   2.750  0.0126  0.4956  0.2554
17111TIP3    H172748   2.884   2.404   2.840  1.3492  1.0985  0.7153
17111TIP3    H272749   2.955   2.363   2.712  0.2282  0.6881  0.2101
17112TIP3   OH272750   3.740   0.749   2.309  0.4306 -0.0733  0.3016
17112TIP3    H172751   3.764   0.840   2.294 -0.8428  0.2898  0.3237
17112TIP3    H272752   3.667   0.734   2.249  0.8764 -1.2026  0.0208
17113TIP3   OH272753   1.121   3.634   3.183  0.5951 -0.5099  0.4198
17113TIP3    H172754   1.042   3.650   3.132  0.2333 -0.3579  1.0127
17113TIP3    H272755   1.163   3.720   3.190  0.9256 -0.6332 -0.0846
17114TIP3   OH272756   1.898   6.704  14.909 -0.5454 -0.1589 -0.4315
17114TIP3    H172757   1.916   6.776  14.970  1.1438 -0.4479 -0.5643
17114TIP3    H272758   1.983   6.683  14.870 -1.3122 -1.0871 -1.6727
17115TIP3   OH272759   5.441   1.187  12.533 -0.7033 -0.1568 -0.0613
17115TIP3    H172760   5.497   1.166  12.458  0.6100 -0.8426  1.0659
17115TIP3    H272761   5.363   1.227  12.494  0.2500  0.1807 -1.7446
17116TIP3   OH272762   4.323   5.997  12.139 -0.4934 -0.6118  0.0152
17116TIP3    H172763   4.354   5.966  12.054 -1.6792 -2.1582  0.1097
17116TIP3    H272764   4.269   5.926  12.172  0.7191 -0.4537  2.5122
17117TIP3   OH272765   3.487   4.760  14.962 -0.3151 -0.1504  0.4505
17117TIP3    H172766   3.395   4.765  14.940  0.2523  0.0355 -2.1290
17117TIP3    H272767   3.508   4.846  14.998 -0.9590  0.0841  0.2772
17118TIP3   OH272768   0.488   2.155  13.909 -0.4341  0.0254 -0.3008
17118TIP3    H172769   0.444   2.074  13.885  0.3438 -1.0305  1.6314
17118TIP3    H272770   0.422   2.223  13.897 -1.4624 -1.0339 -0.8404
17119TIP3   OH272771   0.030   3.706   2.228  0.3515  0.3572 -0.3986
17119TIP3    H172772   0.116   3.747   2.230  0.7246 -0.4402  0.0738
17119TIP3    H272773  -0.031   3.780   2.235  0.8678  1.2580 -3.8021
17120TIP3   OH272774   4.305   2.902  16.122 -0.3232 -0.4290 -0.2625
17120TIP3    H172775   4.223   2.852  16.122  0.3322 -1.5965 -2.0580
17120TIP3    H272776   4.309   2.940  16.034  0.0538  1.3919  0.5017
17121TIP3   OH272777   5.292   3.421   0.303  0.3701 -0.0626 -0.2489
17121TIP3    H172778   5.228   3.439   0.372  0.3200  0.4629 -0.4308
17121TIP3    H272779   5.342   3.502   0.295 -1.1872  0.7491 -2.4937
17122TIP3   OH272780   2.846   0.770  11.865  0.1203 -0.2559  0.4232
17122TIP3    H172781   2.860   0.770  11.771  1.5933  1.6597  0.5795
17122TIP3    H272782   2.814   0.858  11.885 -0.5211 -0.7463  1.6705
17123TIP3   OH272783   0.159   6.547  11.375  0.0134  0.5997  0.0900
17123TIP3    H172784   0.085   6.556  11.435 -1.0319 -0.6353 -0.9379
17123TIP3    H272785   0.119   6.518  11.293  1.5583  0.7947 -0.7638
17124TIP3   OH272786   2.199   0.920   2.121  0.4630 -0.0676  0.5718
17124TIP3    H172787   2.122   0.977   2.114 -1.0909 -2.1319 -0.2721
17124TIP3    H272788   2.200   0.872   2.038  2.5691 -0.2469  0.6659
17125TIP3   OH272789   3.169   6.514  14.428 -0.5160  0.3284 -0.1237
17125TIP3    H172790   3.104   6.537  14.495 -1.3353 -0.7578 -0.5162
17125TIP3    H272791   3.117   6.491  14.351  0.3749  0.3721 -0.7481
17126TIP3   OH272792   5.430   4.404   2.828 -0.8348 -0.2769 -0.5406
17126TIP3    H172793   5.436   4.315   2.862  1.6805 -0.1749 -0.4696
17126TIP3    H272794   5.386   4.453   2.897  0.2300 -0.9473  0.6798
17127TIP3   OH272795   1.292   4.101  11.870  0.4184 -0.6780  0.3815
17127TIP3    H172796   1.246   4.169  11.918 -0.1921 -0.6990 -0.1644
17127TIP3    H272797   1.345   4.056  11.936  1.0380  0.4889  0.6988
17128TIP3   OH272798   3.226   1.586   5.516  0.0588  0.4749 -0.4463
17128TIP3    H172799   3.141   1.565   5.556 -0.1759 -0.8283 -1.5356
17128TIP3    H272800   3.216   1.558   5.425  2.0621 -0.8526 -0.3093
17129TIP3   OH272801   2.729   2.712   6.030 -0.2506  0.1421 -0.5543
17129TIP3    H172802   2.801   2.670   6.076 -1.8554 -0.0236  2.0040
17129TIP3    H272803   2.749   2.806   6.034  1.3892 -0.0169 -2.8434
17130TIP3   OH272804   2.246   5.830  16.584 -0.5557  0.2652  0.3114
17130TIP3    H172805   2.298   5.847  16.505  0.2707  0.8496  0.9601
17130TIP3    H272806   2.199   5.749  16.565  0.2234 -0.0181 -0.4811
17131TIP3   OH272807   5.369   3.736  14.748 -0.1910  0.4771  0.0226
17131TIP3    H172808   5.432   3.795  14.789 -0.5233  0.5860  0.3857
17131TIP3    H272809   5.284   3.771  14.773 -0.4103 -1.0469  1.5952
17132TIP3   OH272810   6.472   2.898  15.770  0.3021 -0.2018 -0.6057
17132TIP3    H172811   6.472   2.811  15.729  1.5485 -0.8879  0.7832
17132TIP3    H272812   6.423   2.887  15.851 -0.1883  0.6044 -0.7746
17133TIP3   OH272813   2.971   3.079   0.102  0.2073  0.2319  0.1215
17133TIP3    H172814   3.014   3.012   0.048  0.4398  0.1864  0.3588
17133TIP3    H272815   2.878   3.064   0.089  0.2598  0.1307 -0.1577
17134TIP3   OH272816   1.670   1.450  16.575  0.6622  0.0712 -0.3697
17134TIP3    H172817   1.575   1.456  16.584  0.7623 -0.0929  1.0967
17134TIP3    H272818   1.693   1.517  16.510 -0.3995  0.4592 -0.3623
17135TIP3   OH272819   4.841   4.084  11.467 -0.3326  0.7420  0.0877
17135TIP3    H172820   4.879   4.161  11.510 -0.3026  1.6909 -1.5466
17135TIP3    H272821   4.867   4.093  11.375 -1.4308 -0.5427 -0.3791
17136TIP3   OH272822   1.039   6.195   5.583 -0.7657 -0.2336 -0.6156
17136TIP3    H172823   0.958   6.152   5.609  0.6240 -0.9251  3.1074
17136TIP3    H272824   1.055   6.260   5.651  2.7484 -1.5149 -0.0003
17137TIP3   OH272825   2.952   4.233   1.784  0.2225 -0.1090 -0.2639
17137TIP3    H172826   2.971   4.185   1.703 -1.8025 -1.0449 -0.2390
17137TIP3    H272827   2.956   4.325   1.758 -1.8369 -0.3937 -1.8558
17138TIP3   OH272828   5.241   0.616   4.028  0.1157 -0.5096 -0.4565
17138TIP3    H172829   5.208   0.706   4.018 -0.0315 -0.4136  0.7522
17138TIP3    H272830   5.221   0.593   4.119  0.4606 -1.6499 -0.6518
17139TIP3   OH272831   0.602   4.022  15.501  0.2018 -0.3521  0.0251
17139TIP3    H172832   0.520   3.994  15.459  0.0274 -1.7260  1.1909
17139TIP3    H272833   0.583   4.020  15.595  0.7035  2.2350  0.2628
17140TIP3   OH272834   2.508   6.003  13.154  0.1490 -0.7455 -0.4394
17140TIP3    H172835   2.424   5.982  13.114  1.2938 -1.9595 -2.3998
17140TIP3    H272836   2.503   6.097  13.174 -1.2832 -0.5688 -1.5113
17141TIP3   OH272837   0.058   0.165  14.923  0.2141 -0.0415 -0.3877
17141TIP3    H172838  -0.037   0.173  14.931  0.1005 -0.0984 -1.5481
17141TIP3    H272839   0.091   0.253  14.940 -0.0246 -0.0575  0.1882
17142TIP3   OH272840   2.588   2.301   2.085 -0.8151  0.3261  0.0574
17142TIP3    H172841   2.645   2.296   2.162 -1.8191  0.8264  0.8665
17142TIP3    H272842   2.512   2.249   2.109 -1.0821  0.3881 -0.6479
17143TIP3   OH272843   5.516   6.064   1.486 -0.1615  0.0544 -0.0597
17143TIP3    H172844   5.590   6.034   1.538  1.0479  0.3317 -1.5534
17143TIP3    H272845   5.525   6.160   1.483 -0.2667  0.0503 -0.6931
17144TIP3   OH272846   2.180   2.834  17.017 -0.3266 -0.5322  0.4387
17144TIP3    H172847   2.189   2.927  17.001 -1.2704 -0.2742  1.2488
17144TIP3    H272848   2.259   2.809  17.064  0.2199 -0.2827 -0.3459
17145TIP3   OH272849   6.519   1.772   5.570  0.6955  0.3340 -0.2007
17145TIP3    H172850   6.430   1.784   5.535 -0.6785 -1.8205  2.1744
17145TIP3    H272851   6.556   1.701   5.517  0.5742  0.4798 -0.4815
17146TIP3   OH272852   1.607   0.395   3.702 -0.5423 -0.6307  0.3030
17146TIP3    H172853   1.622   0.305   3.672 -1.0371 -0.3927 -0.6884
17146TIP3    H272854   1.523   0.391   3.747  0.4693 -1.1118  2.2713
17147TIP3   OH272855   3.733   4.193   0.647 -0.2891 -0.3832  0.2082
17147TIP3    H172856   3.707   4.252   0.718 -2.3982  0.2599 -0.9977
17147TIP3    H272857   3.752   4.251   0.573 -1.9752 -1.1272 -0.8697
17148TIP3   OH272858   2.871   6.329  12.019  0.3769  0.2596 -0.0106
17148TIP3    H172859   2.833   6.379  11.946  1.3237  1.1011  0.0377
17148TIP3    H272860   2.953   6.376  12.039  0.1517  0.0244  1.5695
17149TIP3   OH272861   0.001   0.032   5.158  0.4454  0.1301  0.4748
17149TIP3    H172862   0.076   0.089   5.175 -0.6310  1.1852  1.9543
17149TIP3    H272863  -0.002  -0.027   5.233 -0.6709  0.6595  0.8744
17150TIP3   OH272864   5.894   0.492   1.171 -0.0544  0.5608  0.0744
17150TIP3    H172865   5.938   0.562   1.218 -1.1809  2.5286 -1.6385
17150TIP3    H272866   5.812   0.531   1.141 -0.8605 -1.5936 -0.7000
17151TIP3   OH272867   4.624   3.582   1.649 -0.3639 -0.1295  0.7646
17151TIP3    H172868   4.667   3.565   1.566  0.2287  3.6632  0.1326
17151TIP3    H272869   4.531   3.593   1.627  0.0483  2.8512  0.1111
17152TIP3   OH272870   6.561   6.648   0.741  0.4020  0.7184  0.5662
17152TIP3    H172871   6.617   6.571   0.726 -0.0856  0.3828  0.4628
17152TIP3    H272872   6.494   6.618   0.802  0.0296  0.9805  0.2870
17153TIP3   OH272873   1.225   5.860   2.931 -0.2276 -0.7509 -0.3270
17153TIP3    H172874   1.185   5.891   3.012  0.0721 -1.2420  0.0155
17153TIP3    H272875   1.175   5.781   2.909 -0.2262 -0.6894 -0.5465
17154TIP3   OH272876   2.574   2.148  11.145 -0.3266  0.1718 -0.6453
17154TIP3    H172877   2.594   2.176  11.056  1.2912 -0.2044 -0.4306
17154TIP3    H272878   2.659   2.143  11.189 -1.0290 -0.2508  0.7468
17155TIP3   OH272879   4.872   4.091  15.398 -0.4955  0.2251 -0.7979
17155TIP3    H172880   4.905   4.153  15.333 -0.1391  0.8846 -0.0038
17155TIP3    H272881   4.948   4.037  15.420 -0.6029  0.0378 -0.8867
17156TIP3   OH272882   5.855   1.982  16.268 -0.4192 -0.2635  0.2608
17156TIP3    H172883   5.898   1.896  16.274 -1.2670 -0.6317  1.2473
17156TIP3    H272884   5.847   1.998  16.174 -0.0326 -1.1572  0.0683
17157TIP3   OH272885   6.128   4.434   4.700 -0.3648 -0.8633  0.0530
17157TIP3    H172886   6.054   4.454   4.757  0.2538 -1.8240  1.2504
17157TIP3    H272887   6.091   4.381   4.630 -1.2123  0.6874 -0.7342
17158TIP3   OH272888   3.899   5.354  13.662 -0.2530  0.1608 -0.2496
17158TIP3    H172889   3.836   5.359  13.735 -0.2872  2.2663 -0.3541
17158TIP3    H272890   3.856   5.402  13.591  1.4588  1.7732 -0.2832
17159TIP3   OH272891   0.296   1.418  15.998  0.1405 -0.1114  0.3651
17159TIP3    H172892   0.383   1.456  16.009 -0.7671  2.4873 -0.7337
17159TIP3    H272893   0.255   1.424  16.084  1.0771 -1.6372  0.9686
17160TIP3   OH272894   4.199   3.501  13.358  0.0942  0.0404 -0.3019
17160TIP3    H172895   4.197   3.448  13.437 -0.5046  1.9248  1.0097
17160TIP3    H272896   4.178   3.439  13.287 -1.0707 -1.3585  1.1895
17161TIP3   OH272897   2.348   1.677   3.291  0.0030 -0.0439 -0.5079
17161TIP3    H172898   2.346   1.742   3.220  2.2062 -0.7745 -1.3142
17161TIP3    H272899   2.374   1.727   3.368  3.0603 -0.0544 -1.3920
17162TIP3   OH272900   6.115   1.918  16.523  0.1205  0.4411  0.1651
17162TIP3    H172901   6.065   1.839  16.543  1.0220  0.3944  2.5819
17162TIP3    H272902   6.055   1.990  16.540 -0.2145  0.3168 -0.4751
17163TIP3   OH272903   1.398   4.661  13.525  0.1913  0.0767  0.9313
17163TIP3    H172904   1.411   4.756  13.536 -2.1149  0.5986 -0.2818
17163TIP3    H272905   1.457   4.638  13.453 -1.3151  1.2573 -0.7845
17164TIP3   OH272906   3.823   4.075   3.868  0.6715  0.5405  0.2135
17164TIP3    H172907   3.884   4.007   3.838 -1.2432 -1.3176  0.3237
17164TIP3    H272908   3.802   4.125   3.789  1.0593  0.1499 -0.1388
17165TIP3   OH272909   3.309   2.432  12.605 -0.1313 -0.0904 -0.2596
17165TIP3    H172910   3.396   2.467  12.583  0.2788 -0.8755  0.0533
17165TIP3    H272911   3.328   2.363  12.670 -1.1623  1.3207  1.6532
17166TIP3   OH272912   5.689   1.552  13.887  0.1007  0.3508 -0.2539
17166TIP3    H172913   5.607   1.576  13.844  0.1360 -1.0658 -1.1902
17166TIP3    H272914   5.687   1.456  13.890 -0.1224  0.3039  3.3934
17167TIP3   OH272915   4.224   3.023  16.594  0.4785  0.1184 -0.1969
17167TIP3    H172916   4.260   3.063  16.673  0.8460 -1.4214  0.4336
17167TIP3    H272917   4.267   3.069  16.522  1.1844  0.5848  0.5133
17168TIP3   OH272918   2.974   4.322   4.682  0.3161  0.0072  0.7753
17168TIP3    H172919   2.901   4.381   4.703 -0.6463 -0.9656  0.2794
17168TIP3    H272920   3.013   4.360   4.603 -0.9357 -0.5249 -0.1431
17169TIP3   OH272921   2.193   3.524   5.560 -0.0492 -0.0434  0.0449
17169TIP3    H172922   2.178   3.431   5.575 -2.9404 -0.2450 -2.8302
17169TIP3    H272923   2.280   3.529   5.520 -0.0912 -1.5944 -0.2729
17170TIP3   OH272924   1.859   5.481   4.639  0.4881  0.3682 -0.1066
17170TIP3    H172925   1.846   5.441   4.725 -3.6210  1.1005 -0.1801
17170TIP3    H272926   1.882   5.572   4.658 -1.3169  0.7720  0.3256
17171TIP3   OH272927   3.395   3.644  14.451 -0.3883 -0.9358 -0.1580
17171TIP3    H172928   3.323   3.687  14.403 -0.7370  0.7812  1.7710
17171TIP3    H272929   3.437   3.716  14.498  0.4712 -2.4352  1.4245
17172TIP3   OH272930   2.920   4.463  13.651 -0.5057  0.0893 -0.2435
17172TIP3    H172931   2.929   4.525  13.722  0.6898 -0.5097  0.1540
17172TIP3    H272932   2.898   4.380  13.694  0.7041 -0.3880 -0.5032
17173TIP3   OH272933   3.697   5.829   5.271  0.5143 -0.4569 -0.0090
17173TIP3    H172934   3.775   5.834   5.326 -0.1723 -2.0349  1.1709
17173TIP3    H272935   3.630   5.876   5.320  0.5303  0.3449 -0.7242
17174TIP3   OH272936   4.209   6.208  13.121 -0.1673 -0.5054  0.4850
17174TIP3    H172937   4.149   6.154  13.172 -1.0636  1.4134  1.5831
17174TIP3    H272938   4.296   6.183  13.152 -0.5602 -1.1707  1.0884
17175TIP3   OH272939   1.392   6.484  17.041  0.2829 -0.1270  0.0890
17175TIP3    H172940   1.471   6.514  17.086  0.2947 -0.9314  0.6150
17175TIP3    H272941   1.357   6.563  16.999  0.4256  0.5877  1.2699
17176TIP3   OH272942   5.603   3.464  11.958 -0.2401  0.7288  0.4853
17176TIP3    H172943   5.672   3.527  11.976 -0.0244  0.6116  0.0726
17176TIP3    H272944   5.542   3.473  12.032  1.8278 -1.4276  2.6132
17177TIP3   OH272945   0.785   0.312   0.941  0.8357 -0.2768 -0.0814
17177TIP3    H172946   0.705   0.349   0.978  1.2637  1.1267 -0.5280
17177TIP3    H272947   0.755   0.236   0.891 -0.2665  0.4158 -0.5062
17178TIP3   OH272948   4.416   6.405   2.257 -0.0209 -0.2400  0.2075
17178TIP3    H172949   4.342   6.353   2.287  0.0899 -0.2167  0.5295
17178TIP3    H272950   4.483   6.393   2.325  0.8811 -1.5665 -0.8757
17179TIP3   OH272951   1.611   3.709  14.918  0.2019 -0.2140 -0.5470
17179TIP3    H172952   1.661   3.782  14.953 -0.4698 -0.2703  0.5658
17179TIP3    H272953   1.668   3.670  14.852  1.8248 -0.5736  0.9944
17180TIP3   OH272954   4.630   0.363  12.640  0.1938 -0.0087  0.2772
17180TIP3    H172955   4.558   0.315  12.601  0.8116 -0.7692  0.0435
17180TIP3    H272956   4.704   0.349  12.580  0.6256  0.4742  0.6811
17181TIP3   OH272957   4.313   0.737   2.993  0.7742  0.3998  0.0201
17181TIP3    H172958   4.394   0.771   3.033  0.2368  2.2744 -0.3631
17181TIP3    H272959   4.291   0.802   2.926 -0.5706 -0.5600 -0.5092
17182TIP3   OH272960   5.753   0.265  14.289 -0.0714  0.3253  0.3040
17182TIP3    H172961   5.810   0.205  14.241 -1.2351 -0.6231  0.0223
17182TIP3    H272962   5.748   0.227  14.377  1.2832  1.5178  0.9258
17183TIP3   OH272963   5.800   1.232   4.888  0.4485 -0.8984  0.2510
17183TIP3    H172964   5.863   1.268   4.825  0.1126 -0.7177  0.0156
17183TIP3    H272965   5.781   1.144   4.854 -0.0067 -0.6674 -0.1054
17184TIP3   OH272966   2.417   2.718   4.870  0.4147 -0.4428 -0.1505
17184TIP3    H172967   2.352   2.775   4.829 -1.1049 -1.7800  0.2803
17184TIP3    H272968   2.477   2.696   4.799  0.3969  0.7972 -0.5784
17185TIP3   OH272969   3.603   2.737   0.486 -0.3436 -0.3736 -0.3771
17185TIP3    H172970   3.597   2.790   0.566  0.4978  0.1721 -0.6571
17185TIP3    H272971   3.609   2.801   0.415  0.2884 -0.8355 -0.7570
17186TIP3   OH272972   3.446   0.398   4.065  0.2294  0.4107  0.2865
17186TIP3    H172973   3.507   0.458   4.107  2.3556 -1.3238 -0.1486
17186TIP3    H272974   3.450   0.318   4.118 -0.3023 -0.3488 -0.7750
17187TIP3   OH272975   5.137   3.562   3.256 -0.1947  0.0440  0.3350
17187TIP3    H172976   5.056   3.566   3.307 -1.2739  1.7555 -1.4042
17187TIP3    H272977   5.199   3.616   3.306 -0.9323  0.8827  0.3784
17188TIP3   OH272978   3.389   0.789   0.836  0.0953  0.1154 -0.1535
17188TIP3    H172979   3.439   0.847   0.777 -0.3097 -0.7618 -1.4060
17188TIP3    H272980   3.322   0.750   0.779 -0.7647 -0.2265  1.0694
17189TIP3   OH272981   5.371   6.436   3.139 -0.0518 -0.0538 -0.5211
17189TIP3    H172982   5.359   6.528   3.161  0.6627 -0.2323  0.7103
17189TIP3    H272983   5.466   6.423   3.141 -0.1400 -0.7959 -0.7804
17190TIP3   OH272984   4.139   4.107  11.089  0.2311  0.0711  0.1248
17190TIP3    H172985   4.117   4.031  11.035 -0.0541 -0.7803  1.4155
17190TIP3    H272986   4.058   4.128  11.136  0.4296  0.9071  0.1155
17191TIP3   OH272987   3.748   5.072  15.012 -0.2253 -0.2459 -0.0167
17191TIP3    H172988   3.814   5.094  15.078  0.0013 -1.9332  0.3656
17191TIP3    H272989   3.776   4.987  14.977 -0.5780  0.4073 -1.9999
17192TIP3   OH272990   4.134   4.340   2.703  0.0005  0.6723 -0.2004
17192TIP3    H172991   4.179   4.301   2.628 -1.0375 -0.6500 -0.1653
17192TIP3    H272992   4.202   4.350   2.769  0.7285  0.9753 -0.9644
17193TIP3   OH272993   6.732   1.652  16.213 -0.4170 -0.0462 -0.1070
17193TIP3    H172994   6.814   1.613  16.245 -1.2401 -2.2435 -0.5562
17193TIP3    H272995   6.696   1.696  16.290  0.1486 -0.8722  0.6623
17194TIP3   OH272996   2.953   4.998   5.970  0.4206  0.1060  0.0150
17194TIP3    H172997   3.029   5.015   6.027  1.9566 -0.4397 -1.7652
17194TIP3    H272998   2.992   4.977   5.885 -1.7439 -0.6436 -0.8446
17195TIP3   OH272999   0.815   2.569  16.256  0.3094  0.0105 -0.1037
17195TIP3    H173000   0.855   2.537  16.337  0.6994 -0.2243 -0.3923
17195TIP3    H273001   0.852   2.515  16.187  0.2190  0.4234 -0.4790
17196TIP3   OH273002   4.204   4.939  14.487 -0.3908  0.2384 -0.3011
17196TIP3    H173003   4.123   4.973  14.451 -0.1543 -0.7250 -1.8244
17196TIP3    H273004   4.263   5.015  14.489 -0.1801  0.2239 -2.7173
17197TIP3   OH273005   0.264   3.875  14.804  0.3906  0.2969 -0.0667
17197TIP3    H173006   0.254   3.811  14.875 -0.7434  0.6156  0.0761
17197TIP3    H273007   0.358   3.896  14.804  0.3662  0.5648  1.5804
17198TIP3   OH273008   5.378   1.002   2.668  0.4938 -0.1461 -0.6828
17198TIP3    H173009   5.375   1.041   2.755 -1.3366 -3.5650  1.0063
17198TIP3    H273010   5.367   1.075   2.607 -0.7081  2.0940  2.0447
17199TIP3   OH273011   6.752   3.096  13.544 -0.2658 -0.4440 -0.4760
17199TIP3    H173012   6.809   3.040  13.492 -1.4807 -2.3514  0.1380
17199TIP3    H273013   6.811   3.148  13.598  0.9232 -2.6022  0.3912
17200TIP3   OH273014   3.001   5.487   1.585 -0.4175  0.2683 -0.4816
17200TIP3    H173015   3.027   5.471   1.676 -0.6590 -0.3108 -0.5142
17200TIP3    H273016   3.004   5.582   1.576  0.4318  0.2906 -0.1087
17201TIP3   OH273017   6.503   1.390   4.272 -0.3851 -0.0915 -0.9585
17201TIP3    H173018   6.525   1.367   4.182 -0.7958 -0.7533 -0.9013
17201TIP3    H273019   6.407   1.397   4.273 -0.3105  1.1681 -0.8519
17202TIP3   OH273020   6.759   2.831  11.574  0.0633 -0.5058 -0.4484
17202TIP3    H173021   6.814   2.767  11.529  0.7229  0.2572 -0.7585
17202TIP3    H273022   6.803   2.915  11.559 -0.3395 -0.0799  0.6399
17203TIP3   OH273023   5.156   6.201  12.494  0.2795  0.4395 -0.3658
17203TIP3    H173024   5.134   6.218  12.586  0.5251 -1.2623  0.0256
17203TIP3    H273025   5.072   6.208  12.448  0.2636  2.0349 -0.1696
17204TIP3   OH273026   3.427   0.925   4.682  0.8951  0.0075 -0.1686
17204TIP3    H173027   3.362   0.938   4.751  0.7268 -1.3548 -0.0455
17204TIP3    H273028   3.500   0.982   4.707  0.8379 -0.4557  1.1425
17205TIP3   OH273029   3.646   0.327  16.285  0.5092  0.0410  0.5121
17205TIP3    H173030   3.616   0.391  16.350  0.7871  0.8458 -0.1330
17205TIP3    H273031   3.724   0.288  16.325  1.7943  1.8812 -0.0789
17206TIP3   OH273032   4.761   0.001   2.387 -0.5865  0.2123 -0.0632
17206TIP3    H173033   4.767  -0.081   2.435 -1.2154  0.6451  0.7798
17206TIP3    H273034   4.724   0.063   2.450 -0.5937  1.0133 -0.8395
17207TIP3   OH273035   5.965   4.905  11.655 -0.9529 -0.7140 -0.1600
17207TIP3    H173036   6.057   4.916  11.676 -0.8345  0.2955 -1.0759
17207TIP3    H273037   5.959   4.819  11.614 -0.2856 -0.4902 -0.7399
17208TIP3   OH273038   6.326   6.118   3.959 -0.0644  0.1783 -0.0067
17208TIP3    H173039   6.283   6.059   4.020  0.3092 -1.2985 -1.1145
17208TIP3    H273040   6.419   6.102   3.972  0.0183 -0.3233 -1.0793
17209TIP3   OH273041   2.598   6.672   5.494  0.4822  0.0361 -0.1212
17209TIP3    H173042   2.581   6.580   5.472  1.8159 -0.0707 -0.7591
17209TIP3    H273043   2.692   6.682   5.484  0.3061  1.5696 -0.4043
17210TIP3   OH273044   3.099   0.832  11.397 -0.7699 -0.9011 -0.3058
17210TIP3    H173045   3.136   0.890  11.464  1.0857  0.7893 -2.6455
17210TIP3    H273046   3.031   0.884  11.356 -1.3445 -1.6330 -0.2999
17211TIP3   OH273047   5.744   4.907  12.198  0.0329  0.3616 -0.5777
17211TIP3    H173048   5.659   4.938  12.169 -0.6751  0.7871  1.7443
17211TIP3    H273049   5.737   4.811  12.197 -1.1317  0.3867  1.2346
17212TIP3   OH273050   3.260   6.017   2.347  0.6050  0.9282  0.8624
17212TIP3    H173051   3.175   6.046   2.313 -0.1719 -0.8362  1.1892
17212TIP3    H273052   3.304   5.977   2.272 -0.5132 -1.6546  1.4660
17213TIP3   OH273053   5.811   5.824  11.260 -0.5709  0.0462 -0.5929
17213TIP3    H173054   5.826   5.843  11.353 -1.6455  0.9121 -0.5720
17213TIP3    H273055   5.724   5.786  11.257 -1.0282  1.0890 -1.3507
17214TIP3   OH273056   4.024   6.746   5.256  0.0384  0.4077  0.0554
17214TIP3    H173057   4.010   6.665   5.206  2.0698  0.0657 -0.0454
17214TIP3    H273058   3.959   6.807   5.222  0.4304 -0.2555 -2.0375
17215TIP3   OH273059   5.628   1.227  11.547  0.0147 -0.5878 -0.1412
17215TIP3    H173060   5.624   1.233  11.451  1.4494 -0.1645 -0.2007
17215TIP3    H273061   5.550   1.179  11.571 -0.2419 -0.9285 -1.5552
17216TIP3   OH273062   1.570   2.954  12.776  0.3056  0.3881  0.5048
17216TIP3    H173063   1.665   2.945  12.774  0.4241  1.4178 -1.8040
17216TIP3    H273064   1.538   2.864  12.771  1.0479 -0.1593  3.6220
17217TIP3   OH273065   5.931   5.250  11.342  0.0576 -0.1277  0.4261
17217TIP3    H173066   5.944   5.231  11.434  1.3532  1.5742  0.6528
17217TIP3    H273067   5.856   5.310  11.340  1.0286  1.1216  0.5689
17218TIP3   OH273068   4.633   6.403  14.480  0.2495 -0.5126 -0.0378
17218TIP3    H173069   4.573   6.433  14.548 -0.1243  1.3486 -1.1010
17218TIP3    H273070   4.683   6.481  14.456  0.7347 -1.2333 -1.5177
17219TIP3   OH273071   0.930   1.170  10.853  0.0043  0.7138  0.1366
17219TIP3    H173072   0.905   1.189  10.763  1.1559  0.3372 -0.2804
17219TIP3    H273073   0.854   1.126  10.891 -0.3260  0.4846 -0.7848
17220TIP3   OH273074   4.720   6.380   3.524  0.3660  0.1746  0.6682
17220TIP3    H173075   4.763   6.413   3.445 -0.4674  0.0334  0.1457
17220TIP3    H273076   4.652   6.444   3.543 -0.1716 -0.3774  0.6180
17221TIP3   OH273077   5.585   1.981   5.825  0.0540  0.3507  0.2907
17221TIP3    H173078   5.609   1.900   5.781 -0.6278  0.2612  0.0736
17221TIP3    H273079   5.647   1.988   5.898  1.5491  0.7776 -0.9724
17222TIP3   OH273080   5.981   1.742   2.877  0.1940  0.4144  0.4462
17222TIP3    H173081   6.052   1.778   2.929  1.2550  1.0006 -1.3114
17222TIP3    H273082   5.909   1.805   2.887  0.3782  0.5138  1.1689
17223TIP3   OH273083   4.978   4.825  16.356 -0.3439  0.4960 -0.2350
17223TIP3    H173084   5.006   4.910  16.389  0.0770 -0.4449  2.0314
17223TIP3    H273085   5.042   4.764  16.390  0.0742 -0.6558 -2.8349
17224TIP3   OH273086   0.581   0.597   4.559  0.1561  0.5936  0.1557
17224TIP3    H173087   0.556   0.571   4.648  0.5914  0.1474  0.1471
17224TIP3    H273088   0.665   0.555   4.544 -1.2526 -1.8380 -1.5764
17225TIP3   OH273089   1.848   0.142   2.570 -0.0775 -0.6880  0.3130
17225TIP3    H173090   1.838   0.047   2.566 -1.4935 -0.6623  2.1739
17225TIP3    H273091   1.759   0.176   2.582  0.1259  1.0647 -2.3964
17226TIP3   OH273092   0.314   6.268   2.817 -0.2573 -0.3845  0.0074
17226TIP3    H173093   0.313   6.172   2.823  0.2817 -0.3429  1.0571
17226TIP3    H273094   0.311   6.286   2.723 -0.4056 -1.4304 -0.2054
17227TIP3   OH273095   0.337   1.051   5.405 -0.0607  0.1380 -0.6764
17227TIP3    H173096   0.254   1.089   5.435  0.1547 -1.3128  2.0794
17227TIP3    H273097   0.322   1.031   5.313 -2.4643  0.6955 -0.4839
17228TIP3   OH273098   4.231   2.944   2.143  0.2276 -0.1040  0.0093
17228TIP3    H173099   4.233   2.849   2.155  0.8961 -0.1393 -0.3006
17228TIP3    H273100   4.211   2.979   2.229  2.6278 -0.4329  0.7843
17229TIP3   OH273101   2.806   1.071  15.521  0.0755 -0.2639 -0.2239
17229TIP3    H173102   2.853   0.995  15.554  0.3645 -0.0570 -0.1488
17229TIP3    H273103   2.757   1.039  15.445  1.9004 -0.0871 -1.5513
17230TIP3   OH273104   2.228   6.029  16.201  0.1724 -0.0931 -0.2725
17230TIP3    H173105   2.294   6.061  16.263  0.1493 -0.4175 -0.0762
17230TIP3    H273106   2.277   5.972  16.142  0.1666  0.0986 -0.4620
17231TIP3   OH273107   6.185   5.320  15.390  0.3899 -0.6464 -0.0394
17231TIP3    H173108   6.247   5.380  15.431  2.6587 -1.6473 -1.8159
17231TIP3    H273109   6.140   5.279  15.463  0.5161  1.3827  1.2720
17232TIP3   OH273110   3.550   0.842  12.243  0.3419 -0.3447  0.5036
17232TIP3    H173111   3.559   0.789  12.164  0.5407 -0.6995  0.7604
17232TIP3    H273112   3.461   0.824  12.273  0.1154  0.1284  0.1214
17233TIP3   OH273113   4.461   4.272   1.951 -0.1736  0.4015 -0.0458
17233TIP3    H173114   4.395   4.262   1.883  0.8258  1.6692 -1.2772
17233TIP3    H273115   4.442   4.358   1.989 -0.7666 -0.3249  1.3725
17234TIP3   OH273116   5.709   6.299  11.039 -0.2095  0.0713  0.1641
17234TIP3    H173117   5.715   6.361  10.967 -0.8654 -1.2230 -1.0659
17234TIP3    H273118   5.794   6.255  11.040 -0.2608 -0.0297  0.0701
17235TIP3   OH273119   0.436   0.760  11.925 -0.2250  0.1611 -0.2323
17235TIP3    H173120   0.443   0.797  11.837  1.3228 -0.4343 -0.4025
17235TIP3    H273121   0.441   0.836  11.984  2.2267  0.3720 -0.5933
17236TIP3   OH273122   1.590   2.200  12.625 -0.2858 -0.3567  0.2525
17236TIP3    H173123   1.650   2.193  12.551 -0.2955 -0.6931  0.2770
17236TIP3    H273124   1.520   2.139  12.605 -0.9436  0.4943 -0.0789
17237TIP3   OH273125   6.647   5.280   4.789 -0.0705  0.0224 -0.1729
17237TIP3    H173126   6.618   5.267   4.880 -0.2278  1.7934  0.0646
17237TIP3    H273127   6.718   5.344   4.796 -0.4249  0.5615 -1.3564
17238TIP3   OH273128   3.145   0.495  15.627 -0.1535  0.2946 -0.1079
17238TIP3    H173129   3.190   0.573  15.659 -0.3295  0.0149  0.8286
17238TIP3    H273130   3.055   0.505  15.657  0.1013 -0.8581  1.1258
17239TIP3   OH273131   6.344   2.501   4.818  0.1515  0.1235 -0.1353
17239TIP3    H173132   6.284   2.545   4.878 -1.0760 -0.3326 -0.9884
17239TIP3    H273133   6.381   2.572   4.765  0.3682  0.4070  0.3922
17240TIP3   OH273134   5.061   4.002   1.351  0.0622  0.0327 -0.0943
17240TIP3    H173135   5.129   3.982   1.288  0.2847  1.1063 -0.2183
17240TIP3    H273136   5.001   4.060   1.304 -0.2906  0.0669  0.3832
17241TIP3   OH273137   2.604   6.103   0.417  0.0408 -0.2475  0.8473
17241TIP3    H173138   2.611   6.008   0.422  0.4065 -0.4927 -2.1461
17241TIP3    H273139   2.627   6.123   0.326 -0.9038  2.6353  1.1565
17242TIP3   OH273140   3.776   1.532  13.557 -0.2223  0.2809 -0.3203
17242TIP3    H173141   3.870   1.534  13.573 -0.2567  0.5155 -0.1353
17242TIP3    H273142   3.740   1.593  13.621 -0.8292 -2.1231  1.8241
17243TIP3   OH273143   5.918   2.505  11.909  0.1135  0.2222 -0.1089
17243TIP3    H173144   5.965   2.572  11.859  1.2407 -0.0214  0.5861
17243TIP3    H273145   5.929   2.531  12.000 -1.1334  0.1530  0.0786
17244TIP3   OH273146   3.435   0.130  15.932  0.1485 -0.3689  0.5809
17244TIP3    H173147   3.418   0.191  16.004 -0.9157 -1.0190  0.9120
17244TIP3    H273148   3.421   0.182  15.852  0.1937  0.0615  0.8528
17245TIP3   OH273149   3.553   0.293   1.906 -0.1212 -0.3332  0.5325
17245TIP3    H173150   3.641   0.326   1.890 -0.7512  1.3386  0.3984
17245TIP3    H273151   3.560   0.247   1.990  0.7343  0.3213  0.8296
17246TIP3   OH273152   6.727   6.763  12.698  0.3163  0.1059 -0.1153
17246TIP3    H173153   6.705   6.759  12.791  0.0944 -0.0238 -0.1736
17246TIP3    H273154   6.794   6.831  12.693 -0.4068  0.8411  0.0002
17247TIP3   OH273155   3.797   0.070  13.916  0.0681 -0.5987 -0.3332
17247TIP3    H173156   3.806   0.009  13.989  0.1255 -1.5945 -1.1526
17247TIP3    H273157   3.710   0.109  13.927 -0.2511 -1.3411 -0.1809
17248TIP3   OH273158   3.395   6.356   4.024  0.2921 -0.2011  0.3191
17248TIP3    H173159   3.366   6.310   4.103  1.0023  1.6640  1.7544
17248TIP3    H273160   3.364   6.446   4.037  1.1527  0.3314 -1.1413
17249TIP3   OH273161   3.971   5.203   0.395 -0.3850 -0.5784  0.3261
17249TIP3    H173162   3.999   5.126   0.345  0.4191 -0.3481  0.3959
17249TIP3    H273163   4.006   5.277   0.345 -0.6676 -0.2882  0.5588
17250TIP3   OH273164   4.914   5.654   1.211  0.6364 -0.7024 -0.3841
17250TIP3    H173165   4.883   5.622   1.126  0.1787  0.1607 -0.5494
17250TIP3    H273166   4.869   5.598   1.275  1.2244 -1.5637 -0.7009
17251TIP3   OH273167   6.418   4.427  13.587 -0.3734  0.0833  0.1191
17251TIP3    H173168   6.370   4.414  13.505 -2.1053 -0.7760  1.1914
17251TIP3    H273169   6.453   4.341  13.608 -2.6057 -0.5194  1.7815
17252TIP3   OH273170   4.911   1.318   3.072 -0.2582 -0.0797 -0.0779
17252TIP3    H173171   4.964   1.243   3.044 -0.0227  0.2390 -0.5120
17252TIP3    H273172   4.821   1.286   3.071 -0.5063  0.3613 -3.0191
17253TIP3   OH273173   3.506   0.601   1.832  0.1811  0.2299  0.0599
17253TIP3    H173174   3.468   0.560   1.754  0.8560  0.1201 -0.2212
17253TIP3    H273175   3.594   0.564   1.838  0.1269  0.2114  0.8981
17254TIP3   OH273176   5.972   1.668  13.881  0.0138  0.3319 -0.0886
17254TIP3    H173177   5.880   1.644  13.888 -0.4851  1.2426 -2.5384
17254TIP3    H273178   5.974   1.740  13.819  2.1810  1.9423  1.6636
17255TIP3   OH273179   2.956   2.453  15.972  0.4949  0.1666 -0.2550
17255TIP3    H173180   2.893   2.425  15.906  0.4296  0.7898 -0.4683
17255TIP3    H273181   3.013   2.515  15.926  0.5657  0.4664  0.2255
17256TIP3   OH273182   1.188   2.310   5.803  0.0170 -0.5294 -0.5025
17256TIP3    H173183   1.201   2.284   5.895  0.1232  0.6430 -0.1680
17256TIP3    H273184   1.271   2.289   5.761 -0.1440 -1.3892 -0.4231
17257TIP3   OH273185   3.650   2.326  12.122 -0.3732  0.2170 -0.1221
17257TIP3    H173186   3.669   2.246  12.072  0.2204 -0.0945  0.5890
17257TIP3    H273187   3.582   2.301  12.184  0.1070  0.1510  0.3812
17258TIP3   OH273188   0.490   4.172  16.837  0.1818 -0.0110 -0.2585
17258TIP3    H173189   0.420   4.161  16.773  0.2122  2.4323 -0.8116
17258TIP3    H273190   0.453   4.230  16.903  0.8134 -0.9234  0.9389
17259TIP3   OH273191   1.577   5.955   4.842 -0.3103  0.2684  0.3197
17259TIP3    H173192   1.576   5.895   4.767  0.3356 -0.8050  1.1440
17259TIP3    H273193   1.497   5.935   4.890 -0.4557  0.5831  0.2129
17260TIP3   OH273194   6.535   0.462   0.208  0.0351 -0.0599  0.5095
17260TIP3    H173195   6.506   0.478   0.118  0.8064  2.5698  0.6382
17260TIP3    H273196   6.476   0.514   0.262  0.0481 -1.0281  1.4932
17261TIP3   OH273197   6.505   3.744   5.368 -0.1586 -0.0619  0.0764
17261TIP3    H173198   6.420   3.783   5.385 -1.4633 -2.2229 -1.0270
17261TIP3    H273199   6.521   3.687   5.443  1.0747  1.4166  1.0013
17262TIP3   OH273200   5.462   1.828  13.214 -0.3893 -0.9582 -0.3427
17262TIP3    H173201   5.489   1.741  13.185  0.9504 -0.1944 -1.5516
17262TIP3    H273202   5.431   1.872  13.135 -0.6654 -0.1982  0.1722
17263TIP3   OH273203   0.588   4.479   2.418  0.1697 -0.2786  0.0338
17263TIP3    H173204   0.602   4.385   2.415  1.7759 -0.1136  1.1615
17263TIP3    H273205   0.655   4.515   2.360 -1.0732  0.1447 -1.1857
17264TIP3   OH273206   2.829   3.237  12.003 -0.3886  0.5061 -0.4232
17264TIP3    H173207   2.783   3.161  11.967 -1.2217  0.4586  0.7049
17264TIP3    H273208   2.910   3.200  12.038 -1.4196 -0.1387  1.3980
17265TIP3   OH273209   2.922   1.964  11.940  0.2073 -0.0166  0.0208
17265TIP3    H173210   3.004   1.934  11.902  0.2727  0.4565 -0.2191
17265TIP3    H273211   2.901   1.900  12.007 -0.3678 -1.3823 -1.3975
17266TIP3   OH273212   2.963   3.161  14.932  0.0470 -0.2241 -0.0058
17266TIP3    H173213   2.961   3.250  14.968  1.2270 -0.6074  1.1085
17266TIP3    H273214   3.032   3.163  14.866  1.4381 -0.7267  1.3567
17267TIP3   OH273215   4.724   4.782  11.162  0.3324  0.5498  0.1254
17267TIP3    H173216   4.660   4.808  11.228  1.1357  2.3887  0.2451
17267TIP3    H273217   4.685   4.809  11.079  0.6890  1.2147  0.1582
17268TIP3   OH273218   1.947   3.641   5.592  0.0331 -0.2292 -0.5340
17268TIP3    H173219   2.030   3.598   5.573 -0.7965 -1.8758 -0.6173
17268TIP3    H273220   1.893   3.573   5.633 -0.8051  1.1806  0.8357
17269TIP3   OH273221   0.127   0.640  10.714 -0.0872  0.0684  0.3445
17269TIP3    H173222   0.146   0.686  10.632 -0.4842 -0.9224 -0.3361
17269TIP3    H273223   0.120   0.548  10.688 -0.1687 -0.2723  1.5107
17270TIP3   OH273224   4.575   5.236  11.217 -0.1771  0.0069 -0.7418
17270TIP3    H173225   4.528   5.156  11.195  0.6698 -0.4209 -1.0505
17270TIP3    H273226   4.547   5.257  11.306  0.5201 -1.3490 -0.1709
17271TIP3   OH273227   0.075   1.316  12.730  0.0199 -0.1513 -0.4760
17271TIP3    H173228   0.036   1.403  12.740 -0.5915 -0.3914 -0.7461
17271TIP3    H273229   0.002   1.255  12.738  0.3667 -0.6159 -0.7901
17272TIP3   OH273230   4.486   1.256  11.342  0.0003  0.0681  0.0185
17272TIP3    H173231   4.557   1.254  11.407 -0.6406 -0.9000  0.7142
17272TIP3    H273232   4.431   1.330  11.368  1.3354  1.5735 -1.2087
17273TIP3   OH273233   3.226   1.310  14.317  0.2170  0.3594  0.5131
17273TIP3    H173234   3.139   1.344  14.337 -0.3325  2.1456 -3.8317
17273TIP3    H273235   3.284   1.353  14.379 -1.5552  2.4400  0.8226
17274TIP3   OH273236   0.188   1.220   2.747  0.0285 -0.2761  0.4394
17274TIP3    H173237   0.277   1.218   2.712 -0.1952 -2.5954 -0.1935
17274TIP3    H273238   0.196   1.182   2.834 -0.3934 -0.9258  0.2028
17275TIP3   OH273239   4.608   0.258   3.706  0.5629  0.0835  0.3560
17275TIP3    H173240   4.533   0.267   3.764  1.4607 -1.9266  1.9428
17275TIP3    H273241   4.645   0.347   3.700 -2.2728  1.2923 -1.0818
17276TIP3   OH273242   0.754   3.350  11.107 -0.5686  0.3126 -0.0021
17276TIP3    H173243   0.671   3.372  11.150 -0.8759  1.4593 -1.1183
17276TIP3    H273244   0.787   3.434  11.077  0.0950 -0.3607 -1.1799
17277TIP3   OH273245   6.685   1.607   0.263 -0.2668  0.0782 -0.0446
17277TIP3    H173246   6.778   1.625   0.280  0.4463 -0.3531 -3.0175
17277TIP3    H273247   6.639   1.666   0.323  1.9223  1.7148  0.1975
17278TIP3   OH273248   3.446   2.931  13.243  0.1497 -0.4885  0.3770
17278TIP3    H173249   3.503   2.930  13.167  1.3232  0.2734  1.2246
17278TIP3    H273250   3.366   2.888  13.213  0.0299  1.0335 -1.6986
17279TIP3   OH273251   2.026   3.273  16.209 -0.3407  0.4124 -0.0342
17279TIP3    H173252   1.981   3.299  16.290 -1.2554 -2.2151  0.4021
17279TIP3    H273253   2.119   3.277  16.231 -0.5630  0.1413  1.0039
17280TIP3   OH273254   1.565   2.682   4.001 -0.0362 -0.3892 -0.6496
17280TIP3    H173255   1.626   2.755   3.993  1.3635 -1.3348  0.7883
17280TIP3    H273256   1.610   2.608   3.960 -0.2319 -1.0643  0.3130
17281TIP3   OH273257   1.641   3.923  11.863 -0.2822 -0.0226  0.0646
17281TIP3    H173258   1.727   3.949  11.831 -0.6509  0.0814 -0.8974
17281TIP3    H273259   1.583   3.938  11.788 -0.9655 -1.0547  0.3676
17282TIP3   OH273260   4.754   3.989  11.700 -0.7073  0.4197 -0.8104
17282TIP3    H173261   4.771   4.029  11.615 -1.0698 -0.3596 -1.2626
17282TIP3    H273262   4.733   3.898  11.679 -3.2744  0.7731 -0.1282
17283TIP3   OH273263   0.085   2.878  13.799 -0.2588 -0.1776 -0.2147
17283TIP3    H173264  -0.006   2.857  13.819 -0.8922 -0.7475 -3.1496
17283TIP3    H273265   0.106   2.821  13.725  2.3201  0.3702  0.0055
17284TIP3   OH273266   3.409   5.743   4.971 -0.0607  0.4663  0.4768
17284TIP3    H173267   3.417   5.670   4.910 -0.5452  1.7937 -1.2422
17284TIP3    H273268   3.499   5.771   4.986  0.0176  0.6513 -0.3010
17285TIP3   OH273269   1.413   6.039   4.150 -0.6118 -0.0987  0.6582
17285TIP3    H173270   1.435   6.117   4.100 -0.6646 -0.1347  0.5780
17285TIP3    H273271   1.428   6.063   4.241 -0.1737 -0.1452  0.6010
17286TIP3   OH273272   1.201   0.019  17.156 -0.0095 -0.4867 -0.2125
17286TIP3    H173273   1.205   0.115  17.156  1.1688 -0.5275 -0.0845
17286TIP3    H273274   1.279  -0.008  17.204 -0.2830 -1.5210 -0.3357
17287TIP3   OH273275   5.372   5.007  14.868 -0.2138 -0.1419 -0.0599
17287TIP3    H173276   5.466   5.015  14.886 -0.1398 -1.2058  0.0624
17287TIP3    H273277   5.362   4.919  14.832 -1.2572 -0.2683  0.5171
17288TIP3   OH273278   6.095   5.367  11.641  0.0432  0.1206 -0.1659
17288TIP3    H173279   6.174   5.342  11.594  0.4050  1.5439 -0.3751
17288TIP3    H273280   6.041   5.288  11.643  1.6797 -1.0182  0.4402
17289TIP3   OH273281   5.316   4.521   0.063 -0.6078 -0.3360 -0.4356
17289TIP3    H173282   5.392   4.530   0.121 -0.2664 -0.0882 -0.9168
17289TIP3    H273283   5.278   4.609   0.060  1.2310  0.5016 -3.0892
17290TIP3   OH273284   3.093   6.782  11.657 -0.0834 -0.5449  0.4459
17290TIP3    H173285   3.174   6.759  11.610  1.2661 -1.6819  3.1357
17290TIP3    H273286   3.114   6.863  11.704  0.5116 -2.1896  3.2239
17291TIP3   OH273287   0.669   1.244   3.282  0.0017 -0.0156 -0.1043
17291TIP3    H173288   0.733   1.250   3.353 -1.1329  0.7818  0.8998
17291TIP3    H273289   0.613   1.171   3.307 -0.4391  0.3088 -0.1214
17292TIP3   OH273290   2.610   1.401   5.976 -0.2870  0.0033  0.1444
17292TIP3    H173291   2.581   1.432   5.891 -0.3757  0.8388  0.4686
17292TIP3    H273292   2.572   1.313   5.984 -1.3595  0.4214 -0.1349
17293TIP3   OH273293   0.896   2.031  13.573 -0.2313 -0.2510  0.0610
17293TIP3    H173294   0.847   1.972  13.631  0.2927 -0.9374 -0.1813
17293TIP3    H273295   0.855   2.117  13.586 -1.7354 -0.8643 -0.3959
17294TIP3   OH273296   1.933   6.553  12.543 -0.0313  0.2085 -0.0229
17294TIP3    H173297   1.902   6.628  12.594 -1.1405 -0.5767  0.4885
17294TIP3    H273298   1.966   6.492  12.609 -0.6521 -0.4397 -0.3073
17295TIP3   OH273299   4.503   4.172   0.064 -0.0790 -0.2003  0.5657
17295TIP3    H173300   4.539   4.204   0.147  1.0042 -1.0965  0.4642
17295TIP3    H273301   4.456   4.091   0.088 -1.0582  0.3316  0.5133
17296TIP3   OH273302   3.635   3.721  15.013  0.3247 -0.1397 -0.1091
17296TIP3    H173303   3.725   3.741  15.041 -0.4960  0.7607  2.1010
17296TIP3    H273304   3.606   3.654  15.074 -0.3581 -0.7788 -1.1238
17297TIP3   OH273305   5.931   0.237   0.153  0.2805 -0.7127 -0.7615
17297TIP3    H173306   6.003   0.291   0.185 -0.7491 -1.1360  2.6642
17297TIP3    H273307   5.936   0.157   0.206 -3.0231 -0.4771  0.0757
17298TIP3   OH273308   1.540   0.563   4.815 -0.5426 -0.1061  0.3645
17298TIP3    H173309   1.505   0.603   4.895 -0.4380  0.3955  0.1653
17298TIP3    H273310   1.537   0.469   4.832  1.3637  0.0347  1.7771
17299TIP3   OH273311   3.080   3.537   6.158 -0.1822 -0.5044 -0.3574
17299TIP3    H173312   3.168   3.537   6.195 -0.7218  1.2960  1.0607
17299TIP3    H273313   3.047   3.449   6.175  0.6743 -0.6273  0.7809
17300TIP3   OH273314   0.125   0.532  10.440 -0.1984  0.4462  0.6664
17300TIP3    H173315   0.053   0.559  10.383  0.5534  2.9808  0.8102
17300TIP3    H273316   0.153   0.447  10.405 -1.5973  0.6074 -0.9531
17301TIP3   OH273317   5.542   3.276  15.308 -0.1066  0.1491 -0.1035
17301TIP3    H173318   5.632   3.309  15.318 -0.0065  0.3088 -1.3556
17301TIP3    H273319   5.552   3.187  15.274 -0.3781 -1.3959  3.4661
17302TIP3   OH273320   3.624   1.842  17.009  0.2753  0.4815  0.0863
17302TIP3    H173321   3.550   1.866  16.953 -0.4917  0.1583  0.9206
17302TIP3    H273322   3.624   1.909  17.078  1.4823  1.1316 -0.5254
17303TIP3   OH273323   0.356   5.525   2.944  0.0379  0.1988  0.0114
17303TIP3    H173324   0.301   5.583   2.892 -0.8390  0.1757  0.9012
17303TIP3    H273325   0.389   5.461   2.880 -0.9105  0.2480 -0.5447
17304TIP3   OH273326   1.367   6.243   1.607  0.2173 -0.3241 -0.5891
17304TIP3    H173327   1.438   6.180   1.600  1.8135  1.0124  2.1676
17304TIP3    H273328   1.360   6.281   1.519  2.6332 -0.7799 -1.0407
17305TIP3   OH273329   4.280   0.519  14.878  0.1887  0.3622  0.1938
17305TIP3    H173330   4.232   0.573  14.941  1.8169  1.2293  0.7348
17305TIP3    H273331   4.307   0.580  14.809  0.7615 -0.0477  0.0463
17306TIP3   OH273332   5.453   2.502  13.655 -0.7430 -0.1609  0.0986
17306TIP3    H173333   5.448   2.457  13.570  0.7253  0.0672 -0.1505
17306TIP3    H273334   5.498   2.440  13.712  0.5722  0.6282 -0.0272
17307TIP3   OH273335   0.211   3.498   5.977  0.3325  0.2465  0.2571
17307TIP3    H173336   0.127   3.525   6.014  0.1681 -0.9157  0.7703
17307TIP3    H273337   0.232   3.566   5.913 -0.5496  1.0277  0.7754
17308TIP3   OH273338   5.603   1.767   3.854  0.3248 -0.3636 -0.6104
17308TIP3    H173339   5.546   1.838   3.825 -1.5189 -0.2233  2.8887
17308TIP3    H273340   5.543   1.697   3.880  1.9559 -1.8282 -0.5517
17309TIP3   OH273341   2.053   5.717  15.980  0.0840  1.0201  0.0657
17309TIP3    H173342   1.975   5.734  15.928  0.5076  1.4066 -0.4572
17309TIP3    H273343   2.126   5.739  15.922  0.5800  0.7720  0.5822
17310TIP3   OH273344   0.852   6.080  11.482  0.1408  0.4225 -0.6921
17310TIP3    H173345   0.887   5.994  11.460 -1.6527 -0.2631 -1.0025
17310TIP3    H273346   0.795   6.065  11.557 -0.0274  1.3729 -0.6139
17311TIP3   OH273347   3.963   2.167  13.439  0.4256 -0.2855 -0.0772
17311TIP3    H173348   4.013   2.091  13.467  0.2051 -0.2356  0.4566
17311TIP3    H273349   3.888   2.170  13.498 -0.5986 -0.7765 -1.3147
17312TIP3   OH273350   2.560   4.189   3.353 -0.2218  0.7317 -0.2918
17312TIP3    H173351   2.467   4.172   3.343 -1.0276  1.0369  4.5803
17312TIP3    H273352   2.584   4.237   3.274 -4.0191  0.3170 -1.9238
17313TIP3   OH273353   4.726   0.722   2.680 -0.1951 -0.2684 -0.5691
17313TIP3    H173354   4.716   0.795   2.742  0.1486 -0.7418  0.0535
17313TIP3    H273355   4.773   0.760   2.606  3.5815 -0.6889  1.3788
17314TIP3   OH273356   1.324   3.251   2.076  1.0150 -0.0566 -0.2344
17314TIP3    H173357   1.293   3.298   2.153  0.9351  0.3070 -0.4847
17314TIP3    H273358   1.384   3.185   2.110  0.5534 -0.2655  0.1875
17315TIP3   OH273359   3.678   0.234   1.570  0.2361  0.1447  0.2963
17315TIP3    H173360   3.606   0.174   1.591 -0.2860  0.8229  0.4566
17315TIP3    H273361   3.710   0.204   1.485  0.5824 -0.9245  0.7718
17316TIP3   OH273362   0.420   2.057  11.690  0.3721  0.2074  0.5279
17316TIP3    H173363   0.354   1.992  11.717 -0.1972  1.1048  1.3783
17316TIP3    H273364   0.397   2.078  11.600  1.3929 -1.7445 -0.2624
17317TIP3   OH273365   5.528   0.998  11.253  0.3677 -0.3396 -0.2146
17317TIP3    H173366   5.622   0.988  11.264  0.1276 -0.8234  1.7635
17317TIP3    H273367   5.490   0.964  11.334 -1.4934  0.3532 -0.7309
17318TIP3   OH273368   1.283   3.507   0.537 -0.1886 -0.3817 -0.4938
17318TIP3    H173369   1.322   3.466   0.459  0.4020  0.3115 -0.5698
17318TIP3    H273370   1.212   3.562   0.503 -0.5382 -0.7974 -0.4508
17319TIP3   OH273371   1.713   2.946   5.333 -0.5296  0.1523 -0.8328
17319TIP3    H173372   1.687   2.893   5.258  0.3032 -1.8036  0.1940
17319TIP3    H273373   1.770   3.013   5.296  1.7084 -2.1153 -1.7630
17320TIP3   OH273374   3.905   5.188  15.942 -0.3819 -0.2619  0.4837
17320TIP3    H173375   3.930   5.162  15.853 -0.0234 -0.9656  0.7870
17320TIP3    H273376   3.851   5.266  15.929 -1.4035 -1.0775 -0.4443
17321TIP3   OH273377   1.097   0.767  15.640  0.1168 -0.2358 -0.0432
17321TIP3    H173378   1.140   0.685  15.617 -1.4896 -1.1901  0.1552
17321TIP3    H273379   1.110   0.775  15.735  0.6279 -0.0381 -0.1282
17322TIP3   OH273380   5.196   4.216   5.478  0.1035 -0.2804 -0.0479
17322TIP3    H173381   5.179   4.142   5.536  2.2270 -1.0173 -0.2607
17322TIP3    H273382   5.126   4.213   5.412  0.4960 -2.5350 -0.4385
17323TIP3   OH273383   1.621   0.065   4.400  0.5839 -0.2808  0.0024
17323TIP3    H173384   1.603  -0.028   4.413  0.4124 -0.2619 -0.1019
17323TIP3    H273385   1.707   0.078   4.439 -0.6612  0.1819  2.7869
17324TIP3   OH273386   0.949   4.142  15.764  0.4220 -0.2144 -0.1078
17324TIP3    H173387   0.905   4.227  15.761 -0.6297 -0.7573 -0.5837
17324TIP3    H273388   0.921   4.098  15.684  0.6363 -1.1706  0.3300
17325TIP3   OH273389   0.315   5.706  17.242  0.6144  0.0426 -0.6321
17325TIP3    H173390   0.333   5.632  17.300  1.1984  0.3232 -0.4454
17325TIP3    H273391   0.324   5.670  17.154 -2.3896 -0.9341 -0.6655
17326TIP3   OH273392   0.883   0.255   2.705 -0.0802 -0.4009 -0.1544
17326TIP3    H173393   0.969   0.264   2.665  0.7780  1.7497  1.9742
17326TIP3    H273394   0.867   0.161   2.707  1.8744 -0.8055 -1.2548
17327TIP3   OH273395   0.718   0.773  13.289 -0.0210  0.7294  0.3149
17327TIP3    H173396   0.707   0.856  13.242 -1.1364  1.7115  2.2024
17327TIP3    H273397   0.808   0.747  13.270  0.0982  1.9582 -0.9614
17328TIP3   OH273398   3.507   3.193  13.960  0.3392 -0.4763  0.0761
17328TIP3    H173399   3.546   3.272  13.923  1.2548 -1.8881 -2.0959
17328TIP3    H273400   3.415   3.217  13.973  0.5700  0.8981 -0.6187
17329TIP3   OH273401   5.086   2.184  16.752 -0.7010  0.1728 -0.1518
17329TIP3    H173402   5.056   2.107  16.800 -0.9837 -0.3451 -1.1368
17329TIP3    H273403   5.009   2.215  16.706 -0.0440 -0.4820 -1.7841
17330TIP3   OH273404   5.605   5.379  17.021 -0.1404  0.2539  0.2500
17330TIP3    H173405   5.533   5.316  17.019 -0.4794  0.5629  1.6397
17330TIP3    H273406   5.587   5.438  16.947 -0.4628 -0.5601 -0.3427
17331TIP3   OH273407   5.292   4.560   2.962 -0.0818  1.3102  0.4773
17331TIP3    H173408   5.254   4.526   3.043  1.3730  1.2746  1.1779
17331TIP3    H273409   5.315   4.651   2.983 -1.8137  2.0597 -0.6556
17332TIP3   OH273410   3.104   2.847   1.513  0.3575  0.4074  0.1196
17332TIP3    H173411   3.019   2.833   1.472  0.0408 -0.5365  1.0445
17332TIP3    H273412   3.094   2.930   1.561 -0.2651 -0.0090  0.7352
17333TIP3   OH273413   0.913   3.004  12.847  0.3920 -0.1243 -0.2430
17333TIP3    H173414   0.959   2.976  12.926 -0.5747  0.0856  0.4222
17333TIP3    H273415   0.838   3.054  12.880 -0.5938 -0.8837 -1.2570
17334TIP3   OH273416   3.388   0.593  16.186  0.4492 -0.5134  0.1967
17334TIP3    H173417   3.305   0.572  16.229 -1.9665  2.1823 -2.6602
17334TIP3    H273418   3.451   0.601  16.258 -2.1493 -0.9637  2.6916
17335TIP3   OH273419   5.144   0.885  11.731  0.2940  0.2864  0.1996
17335TIP3    H173420   5.174   0.797  11.755 -2.6526 -0.6688  0.7908
17335TIP3    H273421   5.146   0.934  11.813  0.9933  0.5021  0.0633
17336TIP3   OH273422   4.497   0.724  12.097 -0.0570 -0.3319  0.0732
17336TIP3    H173423   4.537   0.694  12.179 -0.5789  0.0247  0.4688
17336TIP3    H273424   4.546   0.804  12.075 -0.6625  0.2121  0.6610
17337TIP3   OH273425   0.761   3.816   1.238  0.0526  0.1581  0.1133
17337TIP3    H173426   0.803   3.804   1.323 -0.8019  0.3371  0.5642
17337TIP3    H273427   0.832   3.844   1.180  0.4944  0.7720  0.9413
17338TIP3   OH273428   5.021   6.432  11.161 -0.3565  0.1074  0.5470
17338TIP3    H173429   4.986   6.384  11.237 -1.5227 -2.0624 -1.2519
17338TIP3    H273430   4.987   6.385  11.085  2.7422  0.6721 -1.3844
17339TIP3   OH273431   3.880   2.704  16.921  0.3224 -0.3417  0.2157
17339TIP3    H173432   3.822   2.719  16.847  0.3907 -0.6188  0.1071
17339TIP3    H273433   3.967   2.725  16.888  0.3061 -0.0838  0.3326
17340TIP3   OH273434   2.632   4.077  16.948  0.0178  1.0726 -0.7709
17340TIP3    H173435   2.557   4.123  16.910 -1.3213 -1.4512 -1.4801
17340TIP3    H273436   2.598   4.041  17.030  0.2848 -0.4103 -1.2787
17341TIP3   OH273437   1.003   2.583   5.732 -0.0809 -0.0093  0.1609
17341TIP3    H173438   1.006   2.529   5.653 -0.6723  0.9320 -0.5256
17341TIP3    H273439   0.914   2.572   5.765 -0.1415  0.3932  0.1277
17342TIP3   OH273440   1.194   5.956  13.429 -0.1544 -0.6063 -0.5239
17342TIP3    H173441   1.285   5.934  13.446 -0.6872 -1.1805  1.9713
17342TIP3    H273442   1.163   5.995  13.511 -2.0954 -0.2078 -1.3918
17343TIP3   OH273443   1.782   4.538   5.834 -0.2613 -0.3393 -0.8190
17343TIP3    H173444   1.759   4.446   5.819 -1.2302 -0.2655  0.1284
17343TIP3    H273445   1.740   4.561   5.917  0.2026  0.8835 -0.8951
17344TIP3   OH273446   4.307   0.873   1.190  0.0917  0.4222  0.3312
17344TIP3    H173447   4.281   0.796   1.140 -1.3303  2.6109 -2.5947
17344TIP3    H273448   4.238   0.882   1.257  0.9375 -1.4171  1.5313
17345TIP3   OH273449   3.927   1.921  12.627  0.7180  0.5265  0.0482
17345TIP3    H173450   3.976   1.990  12.672  1.3195 -0.7542  1.4431
17345TIP3    H273451   3.966   1.918  12.540  1.8254  0.8285  0.5146
17346TIP3   OH273452   3.658   5.018  13.131 -0.3225  0.4776 -0.0672
17346TIP3    H173453   3.715   4.944  13.150  1.2759  1.2590 -1.6035
17346TIP3    H273454   3.586   4.980  13.081  0.3537 -0.0784 -0.6265
17347TIP3   OH273455   5.602   3.862   5.185 -0.0979 -0.3651 -0.0418
17347TIP3    H173456   5.601   3.897   5.274 -0.5206  2.5620 -1.0924
17347TIP3    H273457   5.515   3.824   5.174  0.2771 -1.6070  1.0571
17348TIP3   OH273458   2.085   2.483   5.621  0.0979 -0.4605  0.0733
17348TIP3    H173459   2.068   2.540   5.545  2.4699  1.1275  0.6214
17348TIP3    H273460   2.063   2.537   5.697 -1.4172 -1.7310  0.5814
17349TIP3   OH273461   0.691   3.946   5.432  0.1011 -0.7116 -0.2528
17349TIP3    H173462   0.629   3.880   5.402  1.6936 -2.1679 -0.4764
17349TIP3    H273463   0.652   4.029   5.405 -1.8508 -1.5462 -0.1383
17350TIP3   OH273464   4.381   4.006   4.531 -0.0780 -0.0149 -0.0434
17350TIP3    H173465   4.433   3.964   4.599 -0.7594 -2.7768 -1.0600
17350TIP3    H273466   4.421   3.977   4.449 -0.9125  0.9459 -0.8143
17351TIP3   OH273467   0.801   3.012  11.740  0.2860  0.5803 -0.5218
17351TIP3    H173468   0.894   3.029  11.751  0.0621  1.5032  0.0207
17351TIP3    H273469   0.773   3.075  11.674 -0.0380  0.5665 -0.3985
17352TIP3   OH273470   5.775   0.567   3.935  0.3708  0.3562  0.0914
17352TIP3    H173471   5.735   0.528   3.857  0.8868  1.2588 -0.6513
17352TIP3    H273472   5.703   0.575   3.998 -0.5274  1.4446 -1.0188
17353TIP3   OH273473   1.956   2.674   5.430  0.9514 -0.5960  0.2694
17353TIP3    H173474   2.023   2.741   5.439 -1.8021  2.5204 -0.4473
17353TIP3    H273475   1.931   2.678   5.337 -0.9021 -0.9254  0.7199
17354TIP3   OH273476   1.763   3.798  15.371  0.0504  0.4942  0.8326
17354TIP3    H173477   1.774   3.749  15.453  1.1851  0.6736  0.8016
17354TIP3    H273478   1.772   3.733  15.302  2.4861  0.8138  0.7545
17355TIP3   OH273479   2.987   2.727   5.694  0.3086 -0.3916 -0.0664
17355TIP3    H173480   2.966   2.818   5.715 -1.2431 -0.6160 -0.5607
17355TIP3    H273481   3.038   2.696   5.769  2.2473  1.3228 -0.5863
17356TIP3   OH273482   2.037   5.087   6.055 -0.1165  0.4695  0.0579
17356TIP3    H173483   2.009   5.152   5.991  1.1652  0.2239 -0.8026
17356TIP3    H273484   1.988   5.008   6.031  0.7175  0.2419 -0.9609
17357TIP3   OH273485   0.156   0.466  14.295 -0.0539 -0.2686 -0.2098
17357TIP3    H173486   0.074   0.511  14.273 -0.8370 -1.6226 -0.2254
17357TIP3    H273487   0.127   0.384  14.336  1.3292 -0.0533  1.2797
17358TIP3   OH273488   6.473   1.325   5.334 -0.5095  0.6521  0.7477
17358TIP3    H173489   6.442   1.413   5.315 -2.8104  0.1868  1.8842
17358TIP3    H273490   6.394   1.270   5.327  1.1162 -1.6308 -1.5274
17359TIP3   OH273491   0.181   5.158  11.013 -0.2137  0.2896  0.2965
17359TIP3    H173492   0.088   5.156  10.989 -1.5859  0.9815  4.6022
17359TIP3    H273493   0.206   5.250  11.002 -0.7961  0.5828  1.2468
17360TIP3   OH273494   0.679   4.262   5.036  0.4517 -0.0527  0.2436
17360TIP3    H173495   0.676   4.340   4.981  1.9833  0.1648  0.4217
17360TIP3    H273496   0.738   4.284   5.107  1.3012 -1.5228  0.0441
17361TIP3   OH273497   5.135   3.738  16.212 -0.0791  0.0482 -0.0422
17361TIP3    H173498   5.085   3.684  16.273 -0.9080  0.3794 -0.4109
17361TIP3    H273499   5.101   3.826  16.225 -1.0135 -0.0388 -1.7149
17362TIP3   OH273500   6.196   1.965   3.035 -0.8269  0.1868  0.4351
17362TIP3    H173501   6.175   1.998   2.948  0.1383  0.0858  0.1527
17362TIP3    H273502   6.277   2.011   3.060 -0.7816 -0.1987  1.0329
17363TIP3   OH273503   5.019   2.655  12.632 -0.4270 -0.2657  0.1819
17363TIP3    H173504   5.090   2.681  12.692 -0.4436 -0.5488  0.3221
17363TIP3    H273505   4.951   2.722  12.646  0.9072  1.6904 -1.9725
17364TIP3   OH273506   1.836   0.967  14.707 -0.1514 -0.1780  0.1573
17364TIP3    H173507   1.896   0.912  14.758  0.6527  0.9916  0.5123
17364TIP3    H273508   1.822   1.045  14.761  0.2103  0.7963 -1.1038
17365TIP3   OH273509   1.085   4.891  14.136  0.0813 -0.0796 -0.0569
17365TIP3    H173510   1.170   4.919  14.170 -0.5969  0.8828  0.8983
17365TIP3    H273511   1.057   4.822  14.196  0.1937 -0.4224 -0.3940
17366TIP3   OH273512   1.568   4.978   3.578  0.0972  0.2565 -0.2343
17366TIP3    H173513   1.549   5.003   3.487 -0.5357  0.0015 -0.1773
17366TIP3    H273514   1.663   4.971   3.581  0.2851  2.0729 -0.4177
17367TIP3   OH273515   2.471   1.975  13.598 -0.3227 -0.2173 -0.1102
17367TIP3    H173516   2.453   1.883  13.580 -0.2279  0.1290 -2.2072
17367TIP3    H273517   2.491   1.978  13.691  0.1234 -2.3889 -0.0992
17368TIP3   OH273518   5.024   0.045   6.073  0.1336  0.1029  0.1791
17368TIP3    H173519   5.017   0.064   5.979  2.0960  1.2626  0.2136
17368TIP3    H273520   4.948   0.088   6.112  0.2199  1.1028 -0.7048
17369TIP3   OH273521   3.191   1.056   5.185 -0.1921  0.4355 -0.3603
17369TIP3    H173522   3.157   1.071   5.097 -0.9896 -1.0600 -0.3290
17369TIP3    H273523   3.273   1.009   5.172  0.0665  0.8684 -0.3174
17370TIP3   OH273524   3.780   6.623   5.358  0.1226 -0.2269 -0.1900
17370TIP3    H173525   3.725   6.586   5.427 -1.5924  0.4915 -1.0889
17370TIP3    H273526   3.798   6.550   5.299  0.8805 -0.6537  0.5550
17371TIP3   OH273527   0.768   2.383  15.692 -0.1038 -0.7656 -0.3002
17371TIP3    H173528   0.854   2.425  15.681 -1.3279  1.6888 -1.3602
17371TIP3    H273529   0.774   2.338  15.776  2.0218 -0.1318 -0.0382
17372TIP3   OH273530   6.251   6.701   4.418  0.1377 -0.2191 -0.0084
17372TIP3    H173531   6.332   6.672   4.377  0.9359 -0.3617  1.6033
17372TIP3    H273532   6.211   6.621   4.452 -0.4498 -0.0849 -0.3544
17373TIP3   OH273533   2.465   3.748   0.100  0.0062  0.6154  0.3749
17373TIP3    H173534   2.529   3.775   0.035  0.2153  2.3066  1.2502
17373TIP3    H273535   2.510   3.680   0.151  0.0286 -0.3283 -0.8664
17374TIP3   OH273536   5.113   3.904   1.840 -0.4940  0.1008 -0.7078
17374TIP3    H173537   5.020   3.883   1.844 -1.1350  2.4492 -1.4078
17374TIP3    H273538   5.130   3.953   1.920 -0.3477  1.2578 -1.4168
17375TIP3   OH273539   2.157   2.712   2.014  0.1143 -0.3245  0.2654
17375TIP3    H173540   2.195   2.715   2.102  0.2176 -0.0786  0.2125
17375TIP3    H273541   2.233   2.707   1.956  0.0338 -1.1564  0.2147
17376TIP3   OH273542   5.718   0.323  12.697  0.2790 -0.3760  0.1141
17376TIP3    H173543   5.645   0.262  12.706 -0.6814  0.8388  0.8469
17376TIP3    H273544   5.749   0.310  12.607 -2.1286  0.4537 -0.9057
17377TIP3   OH273545   3.822   1.819   1.610  0.3192 -0.2474  0.2336
17377TIP3    H173546   3.904   1.867   1.619  0.3149 -0.3664  1.0252
17377TIP3    H273547   3.771   1.870   1.547  0.4638  0.5939  0.7747
17378TIP3   OH273548   5.881   5.305  15.364  0.2073 -1.1407 -0.6142
17378TIP3    H173549   5.892   5.247  15.288 -0.5158 -1.7446 -0.2699
17378TIP3    H273550   5.859   5.247  15.436 -0.8095 -0.4324 -0.3137
17379TIP3   OH273551   4.018   4.824   1.700  0.1826 -0.0602 -0.3061
17379TIP3    H173552   4.110   4.804   1.684  0.0350 -0.4610 -0.6672
17379TIP3    H273553   4.001   4.900   1.643  0.4607  0.4443  0.2679
17380TIP3   OH273554   6.672   3.629   3.081  0.0105  0.1869  0.2471
17380TIP3    H173555   6.700   3.675   3.160  1.8586 -1.3004  0.5215
17380TIP3    H273556   6.613   3.560   3.112 -1.1021  1.0191  0.0495
17381TIP3   OH273557   2.865   3.808  16.605 -0.4464 -0.1513 -0.0767
17381TIP3    H173558   2.943   3.861  16.620 -0.8708 -0.0196  1.8913
17381TIP3    H273559   2.793   3.871  16.611 -0.7922 -0.5001 -0.4940
17382TIP3   OH273560   3.361   0.487  13.613 -0.5489  0.2636 -0.2677
17382TIP3    H173561   3.373   0.560  13.552  0.5707  0.8432  0.5995
17382TIP3    H273562   3.266   0.481  13.625 -0.7161  0.8437 -1.2166
17383TIP3   OH273563   0.028   2.128  12.757 -0.0809  0.5454 -0.2057
17383TIP3    H173564   0.095   2.061  12.768 -1.0715 -0.3473  0.7241
17383TIP3    H273565  -0.049   2.080  12.726 -0.1676  1.6259 -1.7594
17384TIP3   OH273566   1.238   3.841  16.843  0.6056  0.1494 -0.0901
17384TIP3    H173567   1.171   3.844  16.774  0.0476  0.4309  0.4539
17384TIP3    H273568   1.190   3.814  16.921  1.1057  0.4903  0.3397
17385TIP3   OH273569   4.568   0.231  16.852 -0.3151 -0.6147  0.0758
17385TIP3    H173570   4.517   0.242  16.932  0.9814 -1.2797  1.0331
17385TIP3    H273571   4.585   0.137  16.847  0.4310 -0.4626 -0.4477
17386TIP3   OH273572   0.447   0.142  16.478 -0.1550  0.0446  0.1896
17386TIP3    H173573   0.375   0.118  16.419  0.3153  1.7391 -1.1525
17386TIP3    H273574   0.520   0.087  16.451 -1.1519 -2.5966  2.3650
17387TIP3   OH273575   5.532   5.129   0.039  0.0061  0.2080  0.4559
17387TIP3    H173576   5.577   5.101  -0.040  0.8205 -0.3898  1.1165
17387TIP3    H273577   5.445   5.091   0.032  0.0629  0.1876 -0.1587
17388TIP3   OH273578   0.461   2.169   0.560  0.0548  0.8399  0.2212
17388TIP3    H173579   0.483   2.242   0.617 -0.3008  0.8538  0.3453
17388TIP3    H273580   0.541   2.117   0.556  0.5545  1.6384 -0.4936
17389TIP3   OH273581   2.570   4.603   6.609 -0.3008 -0.0161 -0.5546
17389TIP3    H173582   2.644   4.620   6.551  0.0176  0.3714 -0.0355
17389TIP3    H273583   2.512   4.547   6.557 -0.2564  0.7248 -1.4306
17390TIP3   OH273584   3.200   5.894   4.924  0.4481 -0.4308 -0.5138
17390TIP3    H173585   3.269   5.830   4.940 -0.8126 -1.8032 -0.2609
17390TIP3    H273586   3.119   5.843   4.928 -0.5873  1.1057 -0.8263
17391TIP3   OH273587   4.111   1.132  16.966 -0.4321  0.4911  0.0721
17391TIP3    H173588   4.076   1.221  16.956 -2.1650  0.1555  2.2651
17391TIP3    H273589   4.056   1.078  16.909  1.3637  0.8886 -2.1718
17392TIP3   OH273590   3.974   0.581   2.209 -0.6017 -0.3716 -0.0393
17392TIP3    H173591   3.992   0.590   2.115 -0.2303 -1.6226 -0.1052
17392TIP3    H273592   3.992   0.668   2.245  1.7582 -0.4899 -0.7351
17393TIP3   OH273593   1.609   2.454  17.085 -0.0792 -0.0653 -0.1452
17393TIP3    H173594   1.558   2.450  17.166 -0.9042  0.3192 -0.6287
17393TIP3    H273595   1.687   2.503  17.108 -0.6024  0.5886  0.2688
17394TIP3   OH273596   3.703   5.728   5.588  0.3147  0.1595  0.2058
17394TIP3    H173597   3.798   5.721   5.598  0.4488 -2.2887 -1.7485
17394TIP3    H273598   3.670   5.640   5.603 -1.2187  0.1931 -2.2652
17395TIP3   OH273599   2.889   3.871   2.137 -0.6113  0.8134  0.0078
17395TIP3    H173600   2.806   3.901   2.100  0.6682  2.0435 -2.0606
17395TIP3    H273601   2.956   3.926   2.095  1.2803 -0.2340  1.4673
17396TIP3   OH273602   4.177   6.157   1.575  0.2313 -0.3319 -0.0917
17396TIP3    H173603   4.099   6.200   1.539  0.0209 -1.3388 -0.8849
17396TIP3    H273604   4.250   6.210   1.543 -0.0183 -0.5988 -1.1438
17397TIP3   OH273605   3.596   1.090   1.062 -0.1791  0.0180 -0.4291
17397TIP3    H173606   3.546   1.008   1.061 -2.3771  1.2433  0.9948
17397TIP3    H273607   3.531   1.158   1.078  1.6742  2.0040 -0.8110
17398TIP3   OH273608   1.503   3.550  13.415 -0.1356  0.3888  0.6432
17398TIP3    H173609   1.581   3.586  13.374 -1.6360  1.3701 -1.5304
17398TIP3    H273610   1.517   3.562  13.509  2.3770  0.3060  0.3450
17399TIP3   OH273611   1.286   5.181  17.228 -0.0117  0.2478  0.3111
17399TIP3    H173612   1.379   5.182  17.248  0.8125 -1.3276 -2.7889
17399TIP3    H273613   1.275   5.250  17.162 -1.1874  0.7599  0.9974
17400TIP3   OH273614   1.003   0.349  13.030  0.5215 -0.2127  0.5051
17400TIP3    H173615   1.053   0.404  12.970  0.4552 -1.8694 -1.1683
17400TIP3    H273616   0.917   0.391  13.035  0.9619  0.6965  0.5616
17401TIP3   OH273617   4.710   2.587  12.130  0.0766 -0.0907  0.2558
17401TIP3    H173618   4.616   2.589  12.111 -0.1083  1.1312  1.1438
17401TIP3    H273619   4.746   2.662  12.083  0.4657 -0.0661  0.5878
17402TIP3   OH273620   6.518   0.562   4.211 -0.5645  0.5388 -0.1593
17402TIP3    H173621   6.578   0.493   4.240 -0.3168  0.5936 -0.5351
17402TIP3    H273622   6.493   0.607   4.292  0.3519  0.8858 -0.0528
17403TIP3   OH273623   1.731   1.214  16.707 -0.1011 -0.8201 -0.4201
17403TIP3    H173624   1.730   1.292  16.651 -0.9573 -0.7000 -0.2526
17403TIP3    H273625   1.798   1.157  16.668  0.2255 -0.1917 -0.7973
17404TIP3   OH273626   2.386   2.698  15.097 -0.1813 -0.6791  0.1163
17404TIP3    H173627   2.390   2.758  15.171  2.2934 -0.3307 -0.2061
17404TIP3    H273628   2.405   2.612  15.134 -2.3602 -1.0968  0.3636
17405TIP3   OH273629   3.396   0.257  12.122 -0.1750  0.4413 -0.5404
17405TIP3    H173630   3.411   0.165  12.100 -0.9772 -0.4716  2.2432
17405TIP3    H273631   3.319   0.282  12.071 -0.9096 -0.9613 -0.1671
17406TIP3   OH273632   3.721   2.264  13.866 -0.6702 -0.3808 -0.0814
17406TIP3    H173633   3.754   2.189  13.915 -0.3570 -0.0408  0.2398
17406TIP3    H273634   3.671   2.314  13.931  0.7271  0.6953  0.2269
17407TIP3   OH273635   5.224   2.990  12.442  0.4764  0.3475 -0.0595
17407TIP3    H173636   5.218   3.041  12.523  2.6379 -1.9530  1.7160
17407TIP3    H273637   5.301   3.026  12.398 -1.1571  2.1309 -1.6029
17408TIP3   OH273638   2.913   6.777  11.348  0.0739 -0.1548  0.1155
17408TIP3    H173639   3.004   6.780  11.318  0.1342  0.0078  0.3090
17408TIP3    H273640   2.881   6.866  11.336 -0.3382 -0.4111 -0.7845
17409TIP3   OH273641   0.551   2.859  15.035 -0.7651  0.1262 -0.5809
17409TIP3    H173642   0.637   2.817  15.044  0.1311  2.2914  3.6095
17409TIP3    H273643   0.571   2.948  15.006 -1.5184  0.7138  0.6336
17410TIP3   OH273644   4.624   1.765  16.852  0.0933  0.5868 -0.6232
17410TIP3    H173645   4.549   1.810  16.812 -1.1394 -0.4191  0.4376
17410TIP3    H273646   4.700   1.816  16.826 -0.9285  1.4848 -2.0000
17411TIP3   OH273647   3.001   5.266  15.323 -0.3626 -0.2240 -0.6979
17411TIP3    H173648   2.955   5.283  15.241 -1.1773  1.0595 -0.0035
17411TIP3    H273649   3.024   5.353  15.356 -1.6552 -0.5931  1.3331
17412TIP3   OH273650   6.357   2.918   5.188  0.4407 -0.0894  0.3913
17412TIP3    H173651   6.263   2.930   5.180  0.5391  1.0763  0.7509
17412TIP3    H273652   6.371   2.824   5.177 -0.4590  0.0199 -2.6623
17413TIP3   OH273653   3.202   0.720   2.101  0.3053 -0.0009  0.1313
17413TIP3    H173654   3.182   0.627   2.104  0.3604 -0.0912 -1.4989
17413TIP3    H273655   3.287   0.728   2.144  1.1723 -0.9881 -1.3319
17414TIP3   OH273656   0.819   4.964   3.799  0.2014  0.6600  0.2569
17414TIP3    H173657   0.911   4.973   3.823  0.5687 -0.0379 -0.8154
17414TIP3    H273658   0.777   5.042   3.836  1.4232  1.5941 -0.2367
17415TIP3   OH273659   3.873   0.316  12.208  0.0351 -0.2854 -0.6163
17415TIP3    H173660   3.929   0.330  12.131 -0.8789  3.3182 -0.7719
17415TIP3    H273661   3.784   0.318  12.173 -0.3681  0.6472  0.4157
17416TIP3   OH273662   2.407   0.846   0.545  0.0637 -0.3568 -0.0354
17416TIP3    H173663   2.418   0.824   0.638 -0.9703 -0.2552  0.1246
17416TIP3    H273664   2.405   0.942   0.543  0.5438 -0.3482 -0.2263
17417TIP3   OH273665   3.795   4.947  15.647 -0.8330  0.2342 -0.6823
17417TIP3    H173666   3.846   4.866  15.657 -0.2902  0.5444 -0.8779
17417TIP3    H273667   3.852   5.004  15.596 -1.0745  0.8565 -0.2643
17418TIP3   OH273668   5.684   3.787   1.238  0.2836 -0.3378 -0.5619
17418TIP3    H173669   5.657   3.842   1.312 -0.8804  0.3992 -1.5056
17418TIP3    H273670   5.732   3.715   1.279  2.5578  1.7236  0.6865
17419TIP3   OH273671   4.015   0.643  14.705 -0.2633  0.4730 -0.6470
17419TIP3    H173672   3.955   0.712  14.731 -1.3644  0.2264 -2.3678
17419TIP3    H273673   3.985   0.565  14.752  0.8509  1.0692  1.1307
17420TIP3   OH273674   0.020   2.617   2.287  0.1759 -0.3950 -0.3001
17420TIP3    H173675   0.066   2.664   2.217  0.7140  0.2183  0.4427
17420TIP3    H273676   0.034   2.525   2.267  0.7046 -0.2192 -0.7610
17421TIP3   OH273677   2.278   2.191  13.614 -0.0387  0.0405  0.3509
17421TIP3    H173678   2.342   2.124  13.589 -1.9601 -1.7431 -0.0742
17421TIP3    H273679   2.212   2.142  13.664 -2.3198  1.2819 -1.2808
17422TIP3   OH273680   0.166   4.782  11.196  0.5598  0.0749  0.2677
17422TIP3    H173681   0.102   4.731  11.146  1.0490  0.3003 -0.6246
17422TIP3    H273682   0.223   4.821  11.129  0.0282  2.0300  0.8754
17423TIP3   OH273683   6.478   2.756   2.822  0.3061 -0.3567  0.4592
17423TIP3    H173684   6.471   2.692   2.752  1.7744  1.2607 -1.2890
17423TIP3    H273685   6.557   2.731   2.870  1.0157  0.2094 -0.3705
17424TIP3   OH273686   0.033   4.850  17.198 -0.2565  0.1467 -0.2679
17424TIP3    H173687   0.022   4.758  17.225 -0.3618  0.5717  1.2561
17424TIP3    H273688   0.112   4.850  17.145 -0.7775 -0.9717 -1.0868
17425TIP3   OH273689   1.548   2.093  11.191 -0.0079 -0.0979 -0.6530
17425TIP3    H173690   1.529   2.052  11.106  0.1193  1.2381 -1.3597
17425TIP3    H273691   1.637   2.127  11.180  1.1213 -2.2780  0.9982
17426TIP3   OH273692   0.226   0.172   1.577 -0.0047  0.0861 -0.5440
17426TIP3    H173693   0.263   0.091   1.541 -0.3632 -0.4692  0.3101
17426TIP3    H273694   0.132   0.157   1.576 -0.0252 -0.0115  0.7370
17427TIP3   OH273695   5.723   0.474   5.435 -0.4745 -0.4659 -0.3934
17427TIP3    H173696   5.746   0.510   5.350  1.0508 -0.4738 -0.0131
17427TIP3    H273697   5.711   0.381   5.420  5.3322 -1.7007  0.1711
17428TIP3   OH273698   5.882   4.630  16.447  0.0754 -0.1247  0.0678
17428TIP3    H173699   5.911   4.685  16.374  0.6778  0.9494  1.0884
17428TIP3    H273700   5.963   4.597  16.487 -0.1807  0.6114  1.2288
17429TIP3   OH273701   3.542   0.696  11.339  0.8053  0.2548 -0.0996
17429TIP3    H173702   3.618   0.638  11.335 -1.4375 -2.9185 -1.3371
17429TIP3    H273703   3.523   0.716  11.247 -1.2013 -1.0859 -0.0384
17430TIP3   OH273704   0.292   1.896  12.433 -0.1430  0.1944  0.2183
17430TIP3    H173705   0.300   1.805  12.403  0.2465 -0.1280  1.2484
17430TIP3    H273706   0.354   1.944  12.378 -0.5749 -0.1091 -0.5402
17431TIP3   OH273707   0.143   3.140   5.569  0.0205 -0.3428 -0.6812
17431TIP3    H173708   0.226   3.093   5.570  0.9495  1.1233  2.2828
17431TIP3    H273709   0.084   3.087   5.622 -0.6270 -0.8285 -1.8613
17432TIP3   OH273710   1.264   6.594   2.782 -0.4779 -0.0661  0.0752
17432TIP3    H173711   1.260   6.578   2.877  0.8603 -2.2103 -0.1519
17432TIP3    H273712   1.173   6.593   2.754 -0.8352 -0.7669  1.1785
17433TIP3   OH273713   1.270   6.192  11.955  0.3416  0.3367  0.3000
17433TIP3    H173714   1.279   6.286  11.968  1.1912  0.5932 -1.7675
17433TIP3    H273715   1.319   6.174  11.875  1.5895 -2.1257  1.4775
17434TIP3   OH273716   6.020   2.566  11.046  0.2377 -0.3604  0.4679
17434TIP3    H173717   6.017   2.498  11.114 -0.1083 -0.4105  0.4007
17434TIP3    H273718   6.114   2.577  11.029  0.3397 -0.2257  1.0773
17435TIP3   OH273719   2.141   2.169  15.092 -0.7768 -0.7976 -0.3928
17435TIP3    H173720   2.230   2.137  15.079 -0.7336 -0.9715  0.2613
17435TIP3    H273721   2.104   2.177  15.004  0.1515  0.0571 -0.7274
17436TIP3   OH273722   2.980   4.681   4.049 -0.1807  0.3250 -0.0096
17436TIP3    H173723   2.967   4.739   3.974  1.3166  1.9683  0.9308
17436TIP3    H273724   3.073   4.659   4.046 -0.7561 -2.4844 -0.5847
17437TIP3   OH273725   4.370   6.258   5.571  0.0505 -0.2342  0.3266
17437TIP3    H173726   4.331   6.345   5.581 -2.0746 -1.2697  2.0519
17437TIP3    H273727   4.412   6.260   5.485 -0.7518  2.1593 -0.0972
17438TIP3   OH273728   5.950   0.510  16.325 -0.4037 -0.2431 -0.2263
17438TIP3    H173729   5.999   0.523  16.244  0.9313  1.1139  0.7383
17438TIP3    H273730   5.894   0.588  16.332  0.4618  0.3102  0.7904
17439TIP3   OH273731   5.018   5.103  16.321  0.3934 -0.3506 -0.2357
17439TIP3    H173732   5.003   5.180  16.266  0.8492 -1.2344 -1.6573
17439TIP3    H273733   5.109   5.080  16.306  0.1336 -1.4488 -0.2359
17440TIP3   OH273734   5.895   1.854  15.738 -0.2432 -0.5292 -0.0100
17440TIP3    H173735   5.920   1.762  15.742 -0.5810 -0.6592 -0.7499
17440TIP3    H273736   5.954   1.898  15.799 -1.4226 -1.5156  1.9526
17441TIP3   OH273737   4.826   0.863   3.149  0.8108  0.3330 -0.3749
17441TIP3    H173738   4.918   0.861   3.173  0.4934  1.1462  1.0329
17441TIP3    H273739   4.823   0.911   3.066  1.6224  0.5675 -0.2716
17442TIP3   OH273740   1.064   5.638   1.417  0.0915  0.6668 -0.1397
17442TIP3    H173741   1.010   5.636   1.338  0.1409  0.4248 -0.1691
17442TIP3    H273742   1.011   5.593   1.483  0.1623  0.6316 -0.1070
17443TIP3   OH273743   5.868   3.863  11.779  0.9066  0.2061 -0.4150
17443TIP3    H173744   5.918   3.890  11.856 -1.4884  0.6216  1.0982
17443TIP3    H273745   5.842   3.945  11.737  0.6497  0.0245 -0.6170
17444TIP3   OH273746   2.403   6.444   3.454  0.2098 -0.0540 -0.2214
17444TIP3    H173747   2.388   6.381   3.525  0.2745 -1.0919 -1.1081
17444TIP3    H273748   2.485   6.488   3.477  1.2189 -1.6758 -0.5456
17445TIP3   OH273749   1.889   1.960   0.413 -0.5692  0.8592  0.0045
17445TIP3    H173750   1.918   2.029   0.354  0.8420  1.3372  1.1880
17445TIP3    H273751   1.862   2.006   0.492 -1.7303  0.1849  0.0220
17446TIP3   OH273752   6.067   3.330  15.803 -0.2477  0.4152  0.2037
17446TIP3    H173753   6.139   3.390  15.821 -0.2422  0.7861 -0.9877
17446TIP3    H273754   6.052   3.338  15.709  0.8489 -2.6828 -0.3460
17447TIP3   OH273755   6.661   1.743  15.279  0.2267  0.6652 -1.2152
17447TIP3    H173756   6.735   1.684  15.294  0.6695  1.4809  0.0067
17447TIP3    H273757   6.609   1.737  15.359  0.5314  2.2452 -0.8560
17448TIP3   OH273758   0.846   5.236  15.566 -0.2813  0.1470  0.1626
17448TIP3    H173759   0.871   5.241  15.474  0.8992 -1.5266  0.3449
17448TIP3    H273760   0.750   5.235  15.565 -0.3453  2.5131 -0.8473
17449TIP3   OH273761   2.651   2.394  12.928  0.3125 -0.1072 -0.0912
17449TIP3    H173762   2.715   2.347  12.980 -0.3856 -1.0182 -0.0343
17449TIP3    H273763   2.700   2.467  12.890  0.8540  0.5908  1.8181
17450TIP3   OH273764   4.985   2.736  13.987  0.1188 -0.4922 -0.4497
17450TIP3    H173765   4.926   2.789  13.932 -2.5814 -1.2436  1.5158
17450TIP3    H273766   4.992   2.786  14.068  0.7862 -1.2686 -0.0276
17451TIP3   OH273767   5.219   0.177  14.540  0.4680  0.1958 -0.5883
17451TIP3    H173768   5.167   0.139  14.470 -0.0652 -2.4905  1.1020
17451TIP3    H273769   5.307   0.141  14.527  0.2132 -0.8566  0.4211
17452TIP3   OH273770   2.600   3.874  14.429 -0.4622 -0.1650 -0.6170
17452TIP3    H173771   2.656   3.887  14.505 -2.6563 -0.7448  1.2494
17452TIP3    H273772   2.559   3.959  14.413  0.6233  0.1678 -1.7335
17453TIP3   OH273773   5.805   5.795  13.344 -0.0775 -0.1317 -0.3688
17453TIP3    H173774   5.715   5.830  13.349 -0.0902 -0.2875  1.2603
17453TIP3    H273775   5.800   5.725  13.280 -1.0019  0.2328 -0.7191
17454TIP3   OH273776   1.063   5.538  11.471 -0.0227  0.0613  0.4408
17454TIP3    H173777   1.002   5.509  11.402  0.3646 -1.1130  0.5706
17454TIP3    H273778   1.012   5.529  11.552 -0.0033  0.0442  0.4509
17455TIP3   OH273779   3.303   4.228   4.012  0.3106  0.1552 -0.4644
17455TIP3    H173780   3.230   4.281   4.044 -0.3143 -1.7365  1.4999
17455TIP3    H273781   3.380   4.280   4.031 -0.2025  0.0513  2.3645
17456TIP3   OH273782   1.073   2.087  15.095 -0.7098  0.2834 -0.8195
17456TIP3    H173783   1.044   2.094  15.004 -1.8264 -2.1801 -0.7314
17456TIP3    H273784   1.164   2.117  15.094  0.2258 -2.1679 -3.3492
17457TIP3   OH273785   0.246   3.384   6.603 -0.4742  0.1900  0.0288
17457TIP3    H173786   0.217   3.474   6.590  0.5186  1.0219  2.8264
17457TIP3    H273787   0.341   3.388   6.589 -0.6734 -0.9586 -2.0020
17458TIP3   OH273788   3.959   6.416   4.645 -0.3824 -0.2039  0.7655
17458TIP3    H173789   3.954   6.499   4.693  0.3441 -0.3228  1.0586
17458TIP3    H273790   3.925   6.351   4.707 -1.4813 -0.0548  0.3355
17459TIP3   OH273791   4.100   4.499  14.265  0.3368 -0.1746  0.1662
17459TIP3    H173792   4.180   4.446  14.256  0.8669 -0.1241  3.3910
17459TIP3    H273793   4.131   4.589  14.270  0.0029 -0.0917  0.7588
17460TIP3   OH273794   4.078   4.804   4.550  0.1459  0.0163  0.5536
17460TIP3    H173795   3.989   4.810   4.585  0.4019 -1.8809  1.6613
17460TIP3    H273796   4.094   4.890   4.511 -2.3062  0.2669 -0.0498
17461TIP3   OH273797   2.307   1.120  13.652 -0.0005 -0.2867  0.6602
17461TIP3    H173798   2.306   1.113  13.557  1.1632 -0.3652  0.6488
17461TIP3    H273799   2.233   1.178  13.672  1.1913  1.7537 -0.4722
17462TIP3   OH273800   4.333   2.663  13.613  0.0604  0.1490  0.3388
17462TIP3    H173801   4.301   2.745  13.649  0.9401  0.2915  0.8271
17462TIP3    H273802   4.293   2.595  13.669 -1.5435  0.1594 -0.7375
17463TIP3   OH273803   2.931   1.643  11.677  0.1268  0.0228  0.0246
17463TIP3    H173804   3.000   1.709  11.672  0.2973 -0.0356  1.2742
17463TIP3    H273805   2.956   1.588  11.751  0.4388 -1.9671 -1.4731
17464TIP3   OH273806   5.612   2.076   2.771  0.2047  0.4271  0.1854
17464TIP3    H173807   5.636   2.141   2.837 -0.0029 -0.1886  0.8801
17464TIP3    H273808   5.592   2.127   2.693  0.5332  1.1628  0.5741
17465TIP3   OH273809   3.173   4.575   4.334 -0.7744  0.1084 -0.4965
17465TIP3    H173810   3.232   4.638   4.293 -1.3160  1.8572  1.2935
17465TIP3    H273811   3.102   4.628   4.371 -1.9265 -1.6722 -0.0111
17466TIP3   OH273812   0.612   4.432   1.070 -0.3825 -0.1671 -0.1679
17466TIP3    H173813   0.529   4.459   1.031 -1.3988 -3.3712 -0.4552
17466TIP3    H273814   0.667   4.408   0.995 -0.1608 -0.5809  0.1224
17467TIP3   OH273815   1.029   2.517  15.744 -0.2333  0.0034  0.0426
17467TIP3    H173816   1.094   2.523  15.673  0.7575  0.8043  0.9680
17467TIP3    H273817   1.064   2.451  15.803 -0.4519  0.1640  0.3546
17468TIP3   OH273818   5.356   3.410  15.955 -0.2746 -0.0063  0.4275
17468TIP3    H173819   5.427   3.460  15.996 -0.0005  0.3331 -0.4201
17468TIP3    H273820   5.374   3.418  15.861  0.0667 -2.1220  0.2753
17469TIP3   OH273821   4.753   1.361   0.719  0.5460  0.3194 -0.1566
17469TIP3    H173822   4.684   1.296   0.732 -0.1180  0.5956 -2.0199
17469TIP3    H273823   4.804   1.358   0.800 -0.9609 -0.7068  0.8146
17470TIP3   OH273824   5.249   2.912  15.658  0.1947 -0.5335  0.1849
17470TIP3    H173825   5.178   2.848  15.651 -1.5190  1.3759 -1.0992
17470TIP3    H273826   5.226   2.965  15.734 -1.3424  1.7732 -1.7549
17471TIP3   OH273827   1.157   0.452   6.099  0.0119 -0.4355 -0.0191
17471TIP3    H173828   1.251   0.442   6.117  0.3349  1.7687 -0.2266
17471TIP3    H273829   1.133   0.534   6.143 -1.8087 -0.9080 -0.0700
17472TIP3   OH273830   1.135   1.060   4.070 -0.0255  0.3736 -0.0790
17472TIP3    H173831   1.172   0.988   4.121 -1.5477  0.3334  1.0790
17472TIP3    H273832   1.179   1.057   3.986 -0.4629 -2.3140 -0.2785
17473TIP3   OH273833   6.494   2.598   2.588  0.6600 -0.6405  0.0568
17473TIP3    H173834   6.541   2.640   2.516  0.7801 -1.8953 -0.6350
17473TIP3    H273835   6.414   2.565   2.547  0.5676 -1.0640  0.5732
17474TIP3   OH273836   1.564   3.184  15.937  0.0277  0.0943 -0.1587
17474TIP3    H173837   1.518   3.198  16.020 -0.9113 -0.9790 -0.4634
17474TIP3    H273838   1.653   3.215  15.954 -0.4216  0.8925  0.9057
17475TIP3   OH273839   4.384   5.229  11.444  0.3302 -0.1604 -0.4006
17475TIP3    H173840   4.356   5.305  11.495 -0.1573 -0.3611 -0.3596
17475TIP3    H273841   4.320   5.223  11.372  1.5965  0.7320 -1.6525
17476TIP3   OH273842   2.901   0.187   4.648  0.1294  0.4084  0.1009
17476TIP3    H173843   2.994   0.186   4.624  0.5395 -1.9334  1.4607
17476TIP3    H273844   2.861   0.122   4.590 -0.6919  1.4405 -0.5071
17477TIP3   OH273845   1.542   5.069   4.169 -0.4696  0.1737 -0.1893
17477TIP3    H173846   1.544   5.165   4.167 -0.0397  0.1815 -2.6897
17477TIP3    H273847   1.449   5.048   4.181 -0.3027  0.8148  2.8854
17478TIP3   OH273848   1.769   4.237   4.230 -0.6830 -0.4602 -0.6638
17478TIP3    H173849   1.759   4.168   4.165 -1.1827 -0.9062 -0.1292
17478TIP3    H273850   1.711   4.307   4.200  1.7826  0.9229 -2.6754
17479TIP3   OH273851   1.895   5.898  13.822 -0.0954 -0.5053 -1.0858
17479TIP3    H173852   1.959   5.880  13.891 -0.6357 -1.5927 -0.8414
17479TIP3    H273853   1.932   5.971  13.774  0.2764  0.3066  0.3713
17480TIP3   OH273854   5.820   1.940  14.362 -0.0868 -0.3711  0.0311
17480TIP3    H173855   5.748   1.958  14.300 -0.1641 -1.9735 -0.3860
17480TIP3    H273856   5.884   2.009  14.344  0.3115 -1.3015 -2.5287
17481TIP3   OH273857   1.017   4.094   6.106  0.6380 -0.4259  0.5101
17481TIP3    H173858   1.037   4.052   6.023  2.6858  0.6793  0.3840
17481TIP3    H273859   1.095   4.078   6.160  2.6347  4.8090 -0.2669
17482TIP3   OH273860   5.213   5.240   6.089 -0.3485 -0.0959 -0.1751
17482TIP3    H173861   5.298   5.230   6.132  0.7814 -0.8049 -2.4415
17482TIP3    H273862   5.181   5.151   6.079 -0.0743 -0.0440 -1.7101
17483TIP3   OH273863   4.301   0.248  12.848 -0.0833  0.3967  0.7161
17483TIP3    H173864   4.216   0.274  12.813  0.0143 -1.8162 -1.5526
17483TIP3    H273865   4.362   0.265  12.776  0.8281 -0.8982  1.1475
17484TIP3   OH273866   2.259   5.834  15.149  0.0017  0.5987  0.4871
17484TIP3    H173867   2.223   5.765  15.205  3.0063  0.1722  2.1288
17484TIP3    H273868   2.244   5.804  15.060 -2.8126  0.1102  1.0485
17485TIP3   OH273869   4.905   6.318   2.857  0.2026  0.6252  0.4200
17485TIP3    H173870   4.908   6.314   2.761 -0.4780 -1.0874  0.4402
17485TIP3    H273871   4.899   6.411   2.877  2.1680  1.1500 -1.1283
17486TIP3   OH273872   1.972   1.476  11.614 -0.4723  0.2009 -0.4145
17486TIP3    H173873   1.971   1.457  11.521  2.2895 -1.7988 -0.1368
17486TIP3    H273874   1.913   1.411  11.652  1.4093 -1.6066 -0.4509
17487TIP3   OH273875   1.708   5.710  15.517 -0.0223 -0.2632  0.1599
17487TIP3    H173876   1.755   5.627  15.511  1.7988  0.7309 -0.2666
17487TIP3    H273877   1.616   5.687  15.502  0.5710 -2.0493 -1.1198
17488TIP3   OH273878   3.146   0.333   4.497 -0.0001  0.4934  0.1420
17488TIP3    H173879   3.127   0.250   4.454 -1.9223  0.5618  0.7583
17488TIP3    H273880   3.154   0.396   4.425 -0.6083  0.1481 -0.2360
17489TIP3   OH273881   0.755   3.545  13.105 -0.0177 -0.5361  0.1494
17489TIP3    H173882   0.664   3.573  13.121 -0.1312 -1.3721  1.0457
17489TIP3    H273883   0.788   3.520  13.191  0.9862 -0.4998 -0.2109
17490TIP3   OH273884   3.310   4.576   1.308  0.4847  0.0455  0.5773
17490TIP3    H173885   3.335   4.644   1.371 -1.6952  1.7408 -0.2478
17490TIP3    H273886   3.318   4.618   1.222  0.9681 -1.4041 -0.1191
17491TIP3   OH273887   5.905   2.191   4.286 -0.7360  0.7398 -0.4946
17491TIP3    H173888   5.943   2.246   4.355 -1.8846 -1.0520  1.7296
17491TIP3    H273889   5.815   2.221   4.278 -1.0854 -0.1378  0.0271
17492TIP3   OH273890   5.945   2.131  16.553 -0.4457  0.0132  0.0743
17492TIP3    H173891   5.965   2.189  16.479 -1.2408 -2.0661 -1.8665
17492TIP3    H273892   5.870   2.079  16.523 -0.7703 -0.9356  2.3645
17493TIP3   OH273893   4.496   6.691   2.244 -0.2653 -0.0518 -0.7190
17493TIP3    H173894   4.585   6.699   2.208 -0.6497  2.1638 -1.3157
17493TIP3    H273895   4.481   6.597   2.249  2.3922 -0.5110  0.1339
17494TIP3   OH273896   5.385   5.134  11.443 -0.0192 -0.1605  0.2107
17494TIP3    H173897   5.478   5.120  11.423 -0.0261 -0.7678  0.5709
17494TIP3    H273898   5.354   5.191  11.373  0.7628  0.5360  0.4150
17495TIP3   OH273899   2.054   3.712   2.640  0.5619 -0.2461 -0.4495
17495TIP3    H173900   2.108   3.768   2.583 -0.1622 -0.2627 -1.1728
17495TIP3    H273901   1.969   3.707   2.595 -1.0165  2.0516  1.9767
17496TIP3   OH273902   3.015   0.359   3.329  0.3026 -0.1259  0.5850
17496TIP3    H173903   3.023   0.431   3.266  1.6270  0.7217  1.6922
17496TIP3    H273904   2.932   0.317   3.305  0.3430  0.6866 -1.1793
17497TIP3   OH273905   4.363   4.112   5.451  0.8669 -0.1315  0.1718
17497TIP3    H173906   4.358   4.157   5.367 -3.4852 -1.0319 -0.2554
17497TIP3    H273907   4.371   4.019   5.429 -1.2930 -0.4671  0.6383
17498TIP3   OH273908   3.416   2.673  10.497  0.2545 -0.6019 -0.0468
17498TIP3    H173909   3.501   2.712  10.477 -0.8943  1.2420 -1.8930
17498TIP3    H273910   3.436   2.591  10.542  2.9103  1.3392  2.6786
17499TIP3   OH273911   3.645   6.043   1.141 -0.3562  0.0767  0.0683
17499TIP3    H173912   3.712   5.975   1.135  0.7716  1.1560  0.0355
17499TIP3    H273913   3.617   6.041   1.232 -1.6092 -1.5801 -0.3062
17500TIP3   OH273914   5.202   3.037   3.879  0.4832  0.2981 -0.0310
17500TIP3    H173915   5.162   2.951   3.888  0.8050  0.1701  0.1928
17500TIP3    H273916   5.184   3.063   3.789 -0.9571  0.6681  0.3342
17501TIP3   OH273917   6.485   1.090   5.070 -0.4659 -0.8503 -0.3943
17501TIP3    H173918   6.414   1.050   5.120 -1.0782  0.5106 -0.1305
17501TIP3    H273919   6.446   1.168   5.030  0.3353 -1.2229 -1.9977
17502TIP3   OH273920   0.283   6.164   5.129 -0.3260  0.2079  0.1651
17502TIP3    H173921   0.312   6.235   5.186 -2.8071  1.0517  0.4801
17502TIP3    H273922   0.364   6.120   5.102  1.0785  1.3911  2.2241
17503TIP3   OH273923   1.788   6.344   0.679 -0.5727  0.2991 -0.1707
17503TIP3    H173924   1.764   6.374   0.766 -0.2267 -1.1260  0.4549
17503TIP3    H273925   1.741   6.261   0.667  0.1897 -0.0606 -0.8933
17504TIP3   OH273926   1.089   6.053  13.179  0.8186 -0.0080  0.4967
17504TIP3    H173927   1.124   6.020  13.261  1.9909 -0.0756 -0.0064
17504TIP3    H273928   1.145   6.128  13.158 -0.2378  0.7560  0.3718
17505TIP3   OH273929   4.170   6.196   1.027 -0.2858  0.5528 -0.2227
17505TIP3    H173930   4.217   6.172   0.947  1.1994  0.4381  0.6590
17505TIP3    H273931   4.232   6.249   1.077 -1.3609  1.0234  0.6567
17506TIP3   OH273932   0.646   4.356  15.896  0.1472 -0.1503 -0.4441
17506TIP3    H173933   0.607   4.396  15.973  2.3998  0.0139  0.6930
17506TIP3    H273934   0.690   4.429  15.851 -0.9239 -0.2891 -1.7654
17507TIP3   OH273935   1.937   4.992  12.647 -0.0278  0.3039  0.2333
17507TIP3    H173936   1.880   5.019  12.575 -1.6666  0.5282  1.5458
17507TIP3    H273937   2.018   4.964  12.605 -1.3631 -0.7591 -1.7947
17508TIP3   OH273938   3.179   2.173  15.924  0.5692 -0.0973  0.4695
17508TIP3    H173939   3.132   2.105  15.972  0.1777  0.2406  0.5704
17508TIP3    H273940   3.117   2.203  15.858  1.1185 -0.5886 -0.2914
17509TIP3   OH273941   3.970   0.916   5.122  0.1036  0.4519  0.0889
17509TIP3    H173942   3.908   0.932   5.193 -0.1924 -0.4103  0.0392
17509TIP3    H273943   4.038   0.862   5.161  0.0661  0.1797 -0.2139
17510TIP3   OH273944   5.721   3.591  14.291  0.4816 -0.6475 -0.2296
17510TIP3    H173945   5.634   3.588  14.330 -0.0157  0.0011 -1.2335
17510TIP3    H273946   5.775   3.636  14.356 -0.4299  0.8376 -0.4553
17511TIP3   OH273947   0.671   1.464  11.941  0.1441  0.4296  0.7651
17511TIP3    H173948   0.735   1.481  11.871  0.9475  1.5286  1.7186
17511TIP3    H273949   0.604   1.532  11.929  1.2025  1.7792  2.0778
17512TIP3   OH273950   5.781   0.324   1.573  0.1447  0.3021 -0.6019
17512TIP3    H173951   5.868   0.283   1.576  0.4746  1.0057  0.4324
17512TIP3    H273952   5.733   0.275   1.507  1.3493 -0.0783 -1.2274
17513TIP3   OH273953   5.436   6.588   5.160  0.0823 -0.4971  0.3262
17513TIP3    H173954   5.356   6.555   5.199  0.3569 -0.4962  0.9048
17513TIP3    H273955   5.483   6.510   5.130  0.3588 -0.5809  0.9640
17514TIP3   OH273956   6.670   0.973  11.907  0.0388 -0.8491  0.9210
17514TIP3    H173957   6.575   0.968  11.896  0.1921 -0.0149 -1.2978
17514TIP3    H273958   6.701   0.886  11.883 -0.0252 -0.4462 -0.7288
17515TIP3   OH273959   4.472   4.382   3.862 -0.2177  0.0734 -0.1714
17515TIP3    H173960   4.536   4.367   3.931 -0.6983 -0.4646  0.1562
17515TIP3    H273961   4.428   4.298   3.849  1.0857 -0.3435 -2.3915
17516TIP3   OH273962   0.177   6.298  15.198  0.0013  0.4465  0.1748
17516TIP3    H173963   0.178   6.226  15.260  1.3350  1.7013  1.6792
17516TIP3    H273964   0.088   6.297  15.162 -0.5111 -0.8934  1.3812
17517TIP3   OH273965   4.523   3.895  13.016  0.2781 -0.4688  0.2133
17517TIP3    H173966   4.527   3.833  12.943 -0.4234  0.3174 -0.5159
17517TIP3    H273967   4.434   3.885  13.051  0.3096 -0.2027  0.3757
17518TIP3   OH273968   4.129   6.201  15.370  0.0578  0.6837 -0.4667
17518TIP3    H173969   4.127   6.297  15.369 -2.4451  0.6908 -0.4590
17518TIP3    H273970   4.222   6.179  15.367  0.8054  3.1143  1.6405
17519TIP3   OH273971   2.047   6.445  14.310 -0.2601 -0.1634  0.2766
17519TIP3    H173972   2.127   6.391  14.307 -1.4475 -1.9736 -0.4663
17519TIP3    H273973   2.037   6.478  14.220 -0.2663  0.2212  0.4150
17520TIP3   OH273974   5.381   1.984   5.209  0.0809 -0.3831  0.2061
17520TIP3    H173975   5.295   2.007   5.172  0.4315  0.7256  0.0492
17520TIP3    H273976   5.360   1.940   5.292 -0.6280  0.8903  0.7320
17521TIP3   OH273977   2.305   2.147  16.664 -0.4174 -0.0844  0.1570
17521TIP3    H173978   2.210   2.136  16.658 -0.2898 -0.4718 -1.8284
17521TIP3    H273979   2.334   2.163  16.574  1.5340 -1.2453  0.5004
17522TIP3   OH273980   4.552   0.993   1.248  0.0373  0.5540 -0.9192
17522TIP3    H173981   4.628   0.964   1.198 -0.5108 -2.3391 -0.2725
17522TIP3    H273982   4.477   0.959   1.200 -0.8607  2.4420 -0.9722
17523TIP3   OH273983   1.362   4.843   3.078 -0.3440 -0.2967 -0.2020
17523TIP3    H173984   1.403   4.792   3.008 -1.6553  1.2015 -2.1686
17523TIP3    H273985   1.396   4.931   3.068  0.1230 -0.2159  1.6788
17524TIP3   OH273986   4.425   0.369   5.901  0.1284 -1.2708 -0.2734
17524TIP3    H173987   4.419   0.314   5.979  0.5969  1.0735  1.5040
17524TIP3    H273988   4.336   0.368   5.865 -0.2892 -1.7211  0.7398
17525TIP3   OH273989   6.191   3.222  13.658 -0.0825 -0.3865  0.3112
17525TIP3    H173990   6.262   3.159  13.668 -0.8923 -1.2523  0.9418
17525TIP3    H273991   6.140   3.213  13.739 -1.2763 -0.2809 -0.3937
17526TIP3   OH273992   2.921   0.217   0.750 -0.3418  0.0377 -0.2068
17526TIP3    H173993   3.002   0.199   0.701 -0.5449 -1.0501 -0.1878
17526TIP3    H273994   2.951   0.238   0.839  0.1238  3.5024 -1.0495
17527TIP3   OH273995   2.356   2.521   4.454  0.3133  0.3145  0.0583
17527TIP3    H173996   2.296   2.454   4.421  0.0271 -0.0108  1.1871
17527TIP3    H273997   2.299   2.592   4.483  0.4116 -0.1934  1.5747
17528TIP3   OH273998   3.168   5.473  15.439  0.5030  0.0343  1.0405
17528TIP3    H173999   3.202   5.486  15.350 -1.0279  1.2428  0.5826
17528TIP3    H274000   3.156   5.561  15.473  1.6809 -0.4060  2.7492
17529TIP3   OH274001   1.307   2.001  11.386  0.5086 -0.0356  0.8418
17529TIP3    H174002   1.355   2.075  11.348 -1.7652  1.9748  1.5903
17529TIP3    H274003   1.255   1.967  11.314  3.4844 -2.8190 -0.2144
17530TIP3   OH274004   4.208   5.162  15.572  0.6084  0.2187 -0.1213
17530TIP3    H174005   4.232   5.090  15.630  0.8430  1.0269  0.8028
17530TIP3    H274006   4.290   5.187  15.530  0.0759 -1.9771 -2.7651
17531TIP3   OH274007   1.752   3.944  14.699  0.3393 -0.3584 -0.5152
17531TIP3    H174008   1.733   3.869  14.643  2.2601  0.3627 -2.2390
17531TIP3    H274009   1.838   3.925  14.736  0.4219  0.5697 -0.2073
17532TIP3   OH274010   4.828   6.439  16.845 -0.1699 -0.6151  0.2818
17532TIP3    H174011   4.791   6.388  16.917  1.0954 -0.8395  0.8037
17532TIP3    H274012   4.875   6.511  16.888 -0.1875 -0.2183 -0.3553
17533TIP3   OH274013   3.996   3.358  14.160  0.5512  0.0307 -0.2354
17533TIP3    H174014   3.924   3.296  14.147  0.6588 -0.4440  1.2631
17533TIP3    H274015   4.017   3.388  14.072 -0.9974 -0.3625 -0.7851
17534TIP3   OH274016   4.477   5.819   4.636  0.1436 -0.5697 -0.5084
17534TIP3    H174017   4.525   5.886   4.587  0.5562 -0.5977 -0.1527
17534TIP3    H274018   4.449   5.756   4.570  2.2610 -1.5695 -0.5170
17535TIP3   OH274019   4.161   5.310  16.012 -0.0030  0.6726  0.0494
17535TIP3    H174020   4.188   5.396  15.980  2.1053 -0.1105 -0.3952
17535TIP3    H274021   4.097   5.280  15.947 -0.3000  1.6230 -0.1158
17536TIP3   OH274022   4.050   0.600   1.907  0.0950 -0.2260  0.4210
17536TIP3    H174023   4.117   0.663   1.879 -1.3666  0.8169 -0.9219
17536TIP3    H274024   4.063   0.524   1.852  0.2254 -0.0470  0.2017
17537TIP3   OH274025   2.231   2.564   1.360  0.3810 -0.0494  0.1652
17537TIP3    H174026   2.237   2.534   1.451  1.3268  0.1361  0.1671
17537TIP3    H274027   2.307   2.620   1.348  1.3164 -1.5268 -1.2849
17538TIP3   OH274028   2.415   2.849   6.159  0.4418 -0.1744  0.0171
17538TIP3    H174029   2.430   2.941   6.140  0.6645 -0.4736 -1.3303
17538TIP3    H274030   2.386   2.848   6.250  1.4808  1.1165  0.3878
17539TIP3   OH274031   4.878   1.780   6.164  0.3832  0.2543  0.4425
17539TIP3    H174032   4.893   1.696   6.207 -0.4574  0.1883  0.6237
17539TIP3    H274033   4.876   1.760   6.071  1.3840  0.2705  0.4006
17540TIP3   OH274034   5.449   4.975  10.597 -0.0934  0.2834 -0.3610
17540TIP3    H174035   5.452   4.949  10.689 -1.1582  0.5575 -0.2309
17540TIP3    H274036   5.532   5.020  10.581  0.0076  0.4240  0.5178
17541TIP3   OH274037   2.655   5.352  16.927  0.1253 -0.5758 -0.2783
17541TIP3    H174038   2.693   5.390  16.848 -2.4476  2.2087 -0.3672
17541TIP3    H274039   2.730   5.335  16.984  1.7382  1.0908 -1.7692
17542TIP3   OH274040   3.339   3.785  10.680 -0.4709 -0.5202  0.3519
17542TIP3    H174041   3.315   3.792  10.772 -2.0371 -0.6092 -0.0225
17542TIP3    H274042   3.294   3.706  10.650 -2.2827  0.9783 -1.1398
17543TIP3   OH274043   5.525   0.180  12.456  0.4214  0.2484 -0.0427
17543TIP3    H174044   5.592   0.157  12.390  0.6099 -1.8294  0.8077
17543TIP3    H274045   5.512   0.274  12.444  0.7503  0.0325 -2.7639
17544TIP3   OH274046   5.889   0.182  11.437 -0.2156 -0.1942  0.3693
17544TIP3    H174047   5.881   0.129  11.516 -0.1492 -1.2512 -0.3057
17544TIP3    H274048   5.974   0.159  11.401 -0.1199  0.4925  0.1321
17545TIP3   OH274049   1.512   1.792  15.587  0.3428  0.1438  0.2391
17545TIP3    H174050   1.457   1.788  15.509 -0.8092  0.3090  1.0034
17545TIP3    H274051   1.601   1.799  15.554 -0.0926 -0.1636 -1.0508
17546TIP3   OH274052   0.090   4.063   5.025 -0.4505  0.0685 -0.0177
17546TIP3    H174053   0.121   4.013   4.949  2.6054  1.4366  0.1927
17546TIP3    H274054   0.040   4.135   4.988 -1.0015 -0.5845 -0.5708
17547TIP3   OH274055   4.338   2.973  15.323 -0.2777 -0.0085 -0.2779
17547TIP3    H174056   4.418   3.021  15.302  0.3748 -0.7375  0.4821
17547TIP3    H274057   4.296   3.026  15.392  0.8696 -0.9089  1.1762
17548TIP3   OH274058   0.828   3.803   1.513 -0.1123 -0.4355  0.4382
17548TIP3    H174059   0.750   3.779   1.562  0.6852 -0.7228  1.6145
17548TIP3    H274060   0.893   3.737   1.537  0.3007 -0.6209 -1.0711
17549TIP3   OH274061   6.006   2.695   2.939 -0.0909  0.3898 -0.4198
17549TIP3    H174062   5.943   2.686   3.011  0.2050 -1.4340 -0.3553
17549TIP3    H274063   6.075   2.751   2.975  0.2629 -0.8316  0.8817
17550TIP3   OH274064   5.176   6.581  12.328 -0.0774 -0.1131  0.1366
17550TIP3    H174065   5.253   6.639  12.332 -1.7754  2.4116 -0.8309
17550TIP3    H274066   5.101   6.641  12.335 -1.9916 -2.4372  0.7839
17551TIP3   OH274067   1.951   2.174  15.886  0.2190  0.0671 -0.6163
17551TIP3    H174068   1.947   2.265  15.856 -0.9939  0.1903 -0.1113
17551TIP3    H274069   2.044   2.158  15.903  0.3797  1.3744 -0.2173
17552TIP3   OH274070   3.345   1.363  14.648 -0.1595  0.1215 -0.1836
17552TIP3    H174071   3.381   1.397  14.566 -0.6598 -0.3906 -0.6230
17552TIP3    H274072   3.421   1.327  14.695  0.1399  0.4921 -0.3775
17553TIP3   OH274073   4.652   6.008   4.256  0.6171  0.3437 -0.3980
17553TIP3    H174074   4.574   6.022   4.202  0.6554 -0.1040 -0.5803
17553TIP3    H274075   4.724   6.039   4.202  0.6495 -0.0501 -0.5888
17554TIP3   OH274076   1.733   1.394   2.414 -0.1114 -0.2616  0.4927
17554TIP3    H174077   1.752   1.349   2.496 -0.8586  0.0655  0.8547
17554TIP3    H274078   1.642   1.373   2.394  0.2166 -0.7923 -0.5596
17555TIP3   OH274079   0.564   6.480  10.452  0.6449  0.0495  0.1169
17555TIP3    H174080   0.477   6.454  10.483  0.5792 -0.6065 -0.5824
17555TIP3    H274081   0.581   6.563  10.495 -0.5180  0.3954 -0.0537
17556TIP3   OH274082   0.965   1.379   0.287  0.0284 -0.8793  1.0543
17556TIP3    H174083   0.965   1.375   0.383 -1.3112  0.7826  1.1729
17556TIP3    H274084   1.049   1.418   0.265  1.2460 -3.1135  1.3646
17557TIP3   OH274085   1.216   1.315   4.611  0.0676 -0.6816  0.6309
17557TIP3    H174086   1.185   1.242   4.558 -2.0557  0.7857 -0.2742
17557TIP3    H274087   1.193   1.292   4.701 -2.8775 -0.1462  0.1049
17558TIP3   OH274088   5.432   0.898  11.903 -0.5115  0.1497  0.1628
17558TIP3    H174089   5.389   0.815  11.883 -3.0891  1.0159  1.5102
17558TIP3    H274090   5.392   0.925  11.986 -0.6215  3.2313 -0.7807
17559TIP3   OH274091   1.051   2.942  16.349 -0.2105  0.4819 -0.6629
17559TIP3    H174092   0.986   2.916  16.414  0.1628  0.2112 -0.3895
17559TIP3    H274093   1.035   2.885  16.274 -1.9053  2.0810 -1.6027
17560TIP3   OH274094   3.893   2.166   2.497 -0.5560  0.1574 -0.2453
17560TIP3    H174095   3.852   2.216   2.567 -0.0834  0.3602 -0.1102
17560TIP3    H274096   3.987   2.186   2.504 -0.4006 -0.4713 -0.4068
17561TIP3   OH274097   6.153   5.466  15.969 -0.0447 -0.0100  0.0314
17561TIP3    H174098   6.234   5.439  15.927 -0.1013 -1.1568  0.6457
17561TIP3    H274099   6.084   5.435  15.910 -0.0672  2.1656 -1.2146
17562TIP3   OH274100   2.885   6.137   0.892 -0.5935  0.0680 -0.2763
17562TIP3    H174101   2.895   6.056   0.944 -0.8512  1.0214  1.3433
17562TIP3    H274102   2.808   6.179   0.930 -0.3786  1.1403 -1.0122
17563TIP3   OH274103   5.711   0.604  12.147 -0.3065 -0.5439 -0.5324
17563TIP3    H174104   5.779   0.545  12.178 -0.3766 -0.4894 -0.2714
17563TIP3    H274105   5.757   0.684  12.122  0.2622 -1.7314 -3.9321
17564TIP3   OH274106   2.108   6.150  11.766  0.4239  0.0141  0.0413
17564TIP3    H174107   2.021   6.189  11.774  0.1491 -0.1516 -1.6999
17564TIP3    H274108   2.167   6.213  11.807 -0.2706  1.1782 -0.7058
17565TIP3   OH274109   1.258   6.260  17.102  0.2804  0.3007  0.2223
17565TIP3    H174110   1.167   6.273  17.075  0.0810 -1.1934  0.1105
17565TIP3    H274111   1.302   6.342  17.079 -0.4746  0.1255 -2.1054
17566TIP3   OH274112   6.567   3.165   5.404  0.1455  0.3646 -0.4558
17566TIP3    H174113   6.480   3.165   5.364  0.2079  0.9276 -0.5918
17566TIP3    H274114   6.590   3.072   5.410 -0.2815  0.2315 -0.8160
17567TIP3   OH274115   3.590   1.864  15.838  0.1998 -0.1477 -0.0869
17567TIP3    H174116   3.496   1.876  15.856 -0.1525 -1.8241 -0.5644
17567TIP3    H274117   3.634   1.901  15.914 -0.7891  1.5497 -0.2899
17568TIP3   OH274118   6.372   5.589  17.257  0.3333 -0.5485  0.0442
17568TIP3    H174119   6.442   5.553  17.313  0.7295 -0.1377 -0.1817
17568TIP3    H274120   6.371   5.682  17.278  0.7680 -0.3137 -0.9362
17569TIP3   OH274121   4.499   2.263  12.207  0.5912  0.1500  0.0592
17569TIP3    H174122   4.542   2.228  12.129  0.1244  0.0573 -0.1623
17569TIP3    H274123   4.468   2.350  12.179  0.2944  0.0563  0.0947
17570TIP3   OH274124   5.880   3.394  11.782 -0.1271  0.4086 -0.5141
17570TIP3    H174125   5.808   3.435  11.735  0.5888  0.9003 -1.1937
17570TIP3    H274126   5.953   3.392  11.720  0.1483 -1.0452 -0.1959
17571TIP3   OH274127   2.161   0.617  15.096  0.1117  0.4552 -0.2180
17571TIP3    H174128   2.211   0.655  15.024  1.7625 -1.4693 -0.1734
17571TIP3    H274129   2.220   0.620  15.171  0.0110 -1.3805 -0.0185
17572TIP3   OH274130   4.137   4.250  14.421 -0.6589  0.3636  0.1244
17572TIP3    H174131   4.164   4.230  14.331 -0.5271  1.6645 -0.1345
17572TIP3    H274132   4.203   4.208  14.476  0.0444  0.7485 -0.4197
17573TIP3   OH274133   0.247   4.871  12.490 -0.3080 -0.3596 -0.6260
17573TIP3    H174134   0.167   4.907  12.529 -0.3834 -0.2882 -0.8408
17573TIP3    H274135   0.259   4.786  12.532 -0.5753 -0.4306 -0.6943
17574TIP3   OH274136   1.829   3.381   4.146  0.3134 -0.1726 -0.4285
17574TIP3    H174137   1.769   3.446   4.181  0.6899 -0.1682  0.2158
17574TIP3    H274138   1.792   3.358   4.060 -0.5498 -0.1043 -0.0793
17575TIP3   OH274139   1.164   3.011   2.507 -0.4812 -0.4533 -0.0790
17575TIP3    H174140   1.101   2.975   2.569 -0.4806 -0.6091 -0.1676
17575TIP3    H274141   1.249   2.995   2.548 -0.4382 -1.1721 -0.4261
17576TIP3   OH274142   3.341   2.016   4.907  0.4665 -0.3472  0.1271
17576TIP3    H174143   3.387   2.090   4.946 -0.0033 -0.2051  0.4174
17576TIP3    H274144   3.404   1.979   4.845  0.6458  0.3868 -0.1394
17577TIP3   OH274145   5.951   0.566  13.248  0.2699  0.7078  0.4765
17577TIP3    H174146   6.041   0.584  13.221  0.4784  0.3053  0.9055
17577TIP3    H274147   5.940   0.472  13.234 -0.6500  1.0234 -1.2548
17578TIP3   OH274148   1.599   3.249   5.325 -0.6441 -0.1645 -0.5012
17578TIP3    H174149   1.580   3.180   5.388 -0.6609  1.3417  1.2593
17578TIP3    H274150   1.688   3.231   5.295 -0.2836 -0.4521  0.6685
17579TIP3   OH274151   2.588   3.644  12.399  0.2750 -0.1869  0.4634
17579TIP3    H174152   2.521   3.584  12.431  0.4350 -0.7350 -0.1889
17579TIP3    H274153   2.658   3.586  12.366 -0.2005  0.2963 -1.5729
17580TIP3   OH274154   5.162   5.878  10.751 -0.0610 -0.2816  0.3096
17580TIP3    H174155   5.074   5.851  10.777 -0.7800 -0.7242 -2.2629
17580TIP3    H274156   5.151   5.966  10.714  0.2154 -0.9501 -1.4817
17581TIP3   OH274157   2.880   6.233  14.714 -0.1017 -0.1460 -0.5814
17581TIP3    H174158   2.864   6.222  14.620  1.3590 -1.5577 -0.7096
17581TIP3    H274159   2.880   6.328  14.727 -0.5265  0.0712 -1.9627
17582TIP3   OH274160   6.697   2.582   5.826 -0.0474  0.1336  0.5411
17582TIP3    H174161   6.654   2.666   5.842 -0.1903 -0.2379  2.2569
17582TIP3    H274162   6.749   2.567   5.905  1.1831 -0.6788 -0.3915
17583TIP3   OH274163   3.274   1.041  16.875 -0.3192  0.1598 -0.2867
17583TIP3    H174164   3.285   0.965  16.818 -0.8732  0.8596 -1.3682
17583TIP3    H274165   3.260   1.005  16.962 -0.1644 -0.9566 -0.7168
17584TIP3   OH274166   3.996   6.018   4.014 -0.2016 -0.0964 -0.0348
17584TIP3    H174167   4.049   6.052   3.942  1.4146  0.1970  1.2452
17584TIP3    H274168   4.060   5.983   4.076 -1.4741  0.6535  1.7733
17585TIP3   OH274169   0.617   6.464   1.667 -0.2148  0.2322 -0.0437
17585TIP3    H174170   0.525   6.438   1.671 -0.2141 -0.3580 -2.4227
17585TIP3    H274171   0.665   6.382   1.652  0.5530  0.7179 -0.3097
17586TIP3   OH274172   4.860   6.066  11.176  1.1766  0.0737  0.1538
17586TIP3    H174173   4.860   6.100  11.086 -0.5534 -0.2648 -0.0018
17586TIP3    H274174   4.808   5.986  11.172 -0.4766  1.0007  1.7664
17587TIP3   OH274175   6.681   6.756  16.490  0.2477  0.5755 -0.2054
17587TIP3    H174176   6.713   6.695  16.423  0.8932 -0.7484  1.2639
17587TIP3    H274177   6.736   6.834  16.478  0.8028  0.1089 -0.7930
17588TIP3   OH274178   1.279   3.713  13.420 -0.6800  0.3915 -0.1718
17588TIP3    H174179   1.249   3.702  13.330  0.7787  1.8312 -0.8949
17588TIP3    H274180   1.373   3.696  13.416 -0.4531  1.2729  0.8882
17589TIP3   OH274181   5.514   5.691   2.971 -0.1320  0.4781 -0.2000
17589TIP3    H174182   5.456   5.695   3.047 -1.1674 -0.9604 -0.8627
17589TIP3    H274183   5.455   5.694   2.896  0.8905  2.1502 -0.9929
17590TIP3   OH274184   5.535   5.523  13.278 -0.1305 -0.4375 -0.4358
17590TIP3    H174185   5.530   5.525  13.374  0.3753  1.0924 -0.4067
17590TIP3    H274186   5.622   5.557  13.258 -0.6764  0.4388 -1.4474
17591TIP3   OH274187   2.597   5.479  15.501 -0.5201  0.3450  0.3649
17591TIP3    H174188   2.675   5.464  15.555  0.2985  0.2448 -0.7957
17591TIP3    H274189   2.576   5.571  15.515 -0.8970  0.0924  1.5674
17592TIP3   OH274190   5.054   0.583   1.840  0.6009 -0.0422 -0.4722
17592TIP3    H174191   5.037   0.498   1.799  2.4541 -0.5393 -0.2503
17592TIP3    H274192   5.078   0.563   1.930  1.3008  0.6947 -0.4843
17593TIP3   OH274193   0.045   4.487   1.385 -0.4169  0.4082  0.2853
17593TIP3    H174194   0.015   4.559   1.330 -1.3482  0.0362  0.2801
17593TIP3    H274195  -0.035   4.453   1.426 -0.1278 -1.1647 -0.3669
17594TIP3   OH274196   5.669   4.159  12.173  0.0213 -0.1785  0.1570
17594TIP3    H174197   5.654   4.225  12.241  0.2955 -0.3081  0.3450
17594TIP3    H274198   5.747   4.190  12.126 -1.7870  1.4775 -2.0089
17595TIP3   OH274199   1.131   2.233   0.297  0.0241 -0.8904  0.4323
17595TIP3    H174200   1.205   2.288   0.272 -1.2158 -0.0213 -1.6115
17595TIP3    H274201   1.098   2.273   0.378 -0.8144  1.4660 -0.9628
17596TIP3   OH274202   0.024   4.282  14.523  0.1393  0.3334  0.5172
17596TIP3    H174203   0.069   4.226  14.460 -0.6868  0.3487 -0.0978
17596TIP3    H274204  -0.044   4.326  14.472 -0.8072  0.0478  1.4949
17597TIP3   OH274205   1.065   2.131  12.814  0.8769  0.2243  0.1959
17597TIP3    H174206   1.054   2.040  12.842  0.8586  0.2595  0.3047
17597TIP3    H274207   1.144   2.160  12.859  2.2461 -0.4602 -1.6517
17598TIP3   OH274208   6.123   3.997  16.416  0.2473  0.4130 -0.4017
17598TIP3    H174209   6.078   3.915  16.437 -1.4690  1.3420 -0.2566
17598TIP3    H274210   6.184   4.009  16.489 -0.3906 -0.1035  0.2427
17599TIP3   OH274211   5.894   1.667   0.261  0.2314 -0.0606  0.2405
17599TIP3    H174212   5.927   1.752   0.232  1.3222 -0.3341  0.6360
17599TIP3    H274213   5.905   1.669   0.356  0.8769 -0.8974  0.1879
17600TIP3   OH274214   4.553   5.610   0.486  0.1302  0.1033  0.5426
17600TIP3    H174215   4.619   5.670   0.452  0.1212 -0.6941 -0.9958
17600TIP3    H274216   4.603   5.537   0.522  0.1009  0.0482  0.4704
17601TIP3   OH274217   5.183   4.292  13.297  0.0328  0.1010 -0.6776
17601TIP3    H174218   5.178   4.238  13.376 -0.0342  1.5326  0.3401
17601TIP3    H274219   5.260   4.260  13.250  0.4758 -0.3227  0.3148
17602TIP3   OH274220   1.058   0.950  12.079  0.1839  0.4659 -0.2777
17602TIP3    H174221   1.003   1.019  12.042 -1.2411 -0.3095  0.3225
17602TIP3    H274222   1.099   0.909  12.002 -2.3153 -0.7764 -1.0621
17603TIP3   OH274223   0.606   4.805  10.961 -0.1601  0.3288 -0.0283
17603TIP3    H174224   0.513   4.816  10.944 -0.5484 -0.0552  1.6597
17603TIP3    H274225   0.646   4.886  10.929 -1.2862  1.1871  0.6415
17604TIP3   OH274226   5.348   5.264   1.542  0.6418 -0.8239  0.7806
17604TIP3    H174227   5.271   5.263   1.599 -0.4365 -2.1525 -0.5877
17604TIP3    H274228   5.389   5.179   1.557 -0.2932 -1.6874 -1.1327
17605TIP3   OH274229   3.619   4.673  16.325 -0.0505  0.1075  0.6353
17605TIP3    H174230   3.543   4.650  16.378 -0.8496  0.6558 -0.2299
17605TIP3    H274231   3.583   4.729  16.256  1.3447  1.3807  0.9139
17606TIP3   OH274232   5.207   0.779  15.975  0.3334 -0.1358 -0.3726
17606TIP3    H174233   5.248   0.776  15.889  2.2197  0.7618  0.4480
17606TIP3    H274234   5.280   0.779  16.037 -0.9503  0.1068  1.2171
17607TIP3   OH274235   0.866   2.556  13.905 -0.5288  0.2353  0.5597
17607TIP3    H174236   0.927   2.580  13.836 -1.7836  1.8497 -0.0371
17607TIP3    H274237   0.832   2.470  13.878  1.0383 -0.4465  0.6427
17608TIP3   OH274238   2.791   1.616  13.801 -0.5470  0.0274  0.3969
17608TIP3    H174239   2.767   1.642  13.890 -0.8438  0.5452  0.1684
17608TIP3    H274240   2.869   1.562  13.813 -0.7871 -0.1975  0.9983
17609TIP3   OH274241   1.299   5.497  11.269 -0.4811  0.2210 -0.0009
17609TIP3    H174242   1.221   5.529  11.223 -0.3796  0.2446 -0.1585
17609TIP3    H274243   1.362   5.479  11.199 -0.8411 -1.1836  0.0150
17610TIP3   OH274244   2.025   0.484   3.249  0.0640  0.2630 -0.0284
17610TIP3    H174245   1.958   0.453   3.310  1.5847 -0.3935  1.3868
17610TIP3    H274246   2.108   0.455   3.287  1.1544  0.7336 -1.9046
17611TIP3   OH274247   2.849   2.330   2.988 -0.2883  0.0670  0.1391
17611TIP3    H174248   2.927   2.303   3.036 -0.7711 -0.2694  0.7553
17611TIP3    H274249   2.787   2.258   3.002 -1.0923  0.8299  0.5935
17612TIP3   OH274250   0.972   4.166   0.582 -0.1614 -0.1862 -0.6251
17612TIP3    H174251   0.988   4.080   0.544  0.4206 -0.2553 -0.2439
17612TIP3    H274252   0.881   4.163   0.611  0.6836 -1.8860  2.3161
17613TIP3   OH274253   5.833   5.410  16.014  0.2097  0.2340 -0.0705
17613TIP3    H174254   5.834   5.426  16.109  0.8975 -0.5401  0.0634
17613TIP3    H274255   5.820   5.316  16.006 -0.8476  0.4269 -0.7834
17614TIP3   OH274256   1.876   2.495  15.397 -0.2821  0.2566 -0.5581
17614TIP3    H174257   1.966   2.525  15.379 -0.4395  1.0833 -0.0227
17614TIP3    H274258   1.888   2.408  15.435  0.1480 -0.7388 -2.7904
17615TIP3   OH274259   5.404   1.350  16.788 -0.2358 -0.1734  0.4680
17615TIP3    H174260   5.436   1.269  16.829 -0.2706  0.8637  2.6989
17615TIP3    H274261   5.352   1.392  16.856 -1.3823  1.0804 -1.1116
17616TIP3   OH274262   6.574   3.939   4.539  0.1672  0.0827  0.8232
17616TIP3    H174263   6.585   3.915   4.631  0.1239 -1.5843  0.4077
17616TIP3    H274264   6.515   4.015   4.542  0.6364  0.4314  2.1883
17617TIP3   OH274265   1.996   0.553   2.683  0.4854  0.0448 -0.1355
17617TIP3    H174266   1.972   0.473   2.729  0.6597 -0.4886 -0.9583
17617TIP3    H274267   2.041   0.524   2.604  1.4651  0.9783  0.0506
17618TIP3   OH274268   2.538   2.406  15.358 -0.0431 -0.0202 -0.0755
17618TIP3    H174269   2.569   2.491  15.389  2.0056 -0.6269 -0.2704
17618TIP3    H274270   2.487   2.371  15.431 -1.5482  1.6569 -0.2728
17619TIP3   OH274271   1.900   2.381   3.667  0.6378  0.1815 -0.3112
17619TIP3    H174272   1.922   2.304   3.720  1.6877 -0.5742 -1.7645
17619TIP3    H274273   1.863   2.345   3.586 -0.1429  1.2712 -0.4584
17620TIP3   OH274274   5.912   1.339  11.433  0.4643  0.1126 -0.2023
17620TIP3    H174275   5.978   1.407  11.424 -0.0007  0.8496  1.4299
17620TIP3    H274276   5.839   1.383  11.477 -0.7879 -0.8844 -1.1894
17621TIP3   OH274277   1.708   4.842   5.474 -0.9823 -0.3882 -0.4149
17621TIP3    H174278   1.713   4.778   5.402  0.6363 -0.7353 -0.0514
17621TIP3    H274279   1.620   4.832   5.509 -1.7305 -0.3783 -2.1955
17622TIP3   OH274280   1.262   5.624   6.030 -0.2273 -0.5873 -0.1466
17622TIP3    H174281   1.301   5.553   6.081 -0.5163 -0.2693  0.5326
17622TIP3    H274282   1.168   5.602   6.027 -0.2786 -0.3683 -0.1460
17623TIP3   OH274283   4.847   2.378  12.328 -0.2684 -0.8082  0.9758
17623TIP3    H174284   4.814   2.452  12.276  0.6622 -1.3605 -0.4644
17623TIP3    H274285   4.921   2.415  12.377  0.6155 -0.9065 -0.2455
17624TIP3   OH274286   0.642   4.943  15.309  0.2194 -0.0509  0.7755
17624TIP3    H174287   0.568   4.916  15.363 -2.2060 -0.6659 -2.5212
17624TIP3    H274288   0.612   5.023  15.265  1.6374 -0.1413 -0.4339
17625TIP3   OH274289   3.100   3.623   0.001  0.1840  0.4600  0.1430
17625TIP3    H174290   3.048   3.612   0.081 -0.1207 -2.3785 -0.3585
17625TIP3    H274291   3.121   3.716  -0.001 -2.4019  1.1963  1.9160
17626TIP3   OH274292   0.063   3.821   0.259  0.1816  0.0515 -0.4246
17626TIP3    H174293   0.019   3.738   0.242 -0.4174  0.0630  0.9276
17626TIP3    H274294   0.011   3.886   0.212 -0.8299 -0.0365  0.5378
17627TIP3   OH274295   2.847   6.113  12.824 -0.0250  0.4280 -0.8908
17627TIP3    H174296   2.920   6.173  12.842  0.2554 -0.4452  1.1663
17627TIP3    H274297   2.882   6.051  12.760  1.1260 -0.0433  0.1537
17628TIP3   OH274298   2.195   2.219  12.891 -0.3098 -0.4077 -0.1797
17628TIP3    H174299   2.277   2.217  12.941  0.3696  4.0971 -0.7073
17628TIP3    H274300   2.128   2.233  12.957  0.1958  2.0444 -0.0732
17629TIP3   OH274301   1.466   0.729  16.773 -0.2834 -0.2784 -0.3607
17629TIP3    H174302   1.534   0.668  16.745 -0.1085  0.8142 -2.5367
17629TIP3    H274303   1.489   0.752  16.864  1.0608 -1.4912 -0.3741
17630TIP3   OH274304   1.407   2.798   0.689  0.3228  0.3024  0.4255
17630TIP3    H174305   1.422   2.766   0.600  0.0019  2.1745 -0.3334
17630TIP3    H274306   1.491   2.833   0.717  0.7569 -1.3854  1.3796
17631TIP3   OH274307   3.882   4.694  15.565 -0.6491 -0.3949  0.0415
17631TIP3    H174308   3.894   4.618  15.622 -1.8482 -0.9995 -0.4783
17631TIP3    H274309   3.819   4.665  15.499 -0.3056  0.7165 -0.8056
17632TIP3   OH274310   1.682   0.772  15.596  0.2874  0.0115  0.1238
17632TIP3    H174311   1.759   0.806  15.552 -0.5048 -1.0325 -2.2706
17632TIP3    H274312   1.635   0.724  15.528 -1.9501 -0.2651  1.7402
17633TIP3   OH274313   5.529   3.332   3.088 -0.2218  0.1813  0.2385
17633TIP3    H174314   5.527   3.283   3.006 -0.4957 -0.3104  0.5278
17633TIP3    H274315   5.600   3.395   3.077 -0.0638 -0.0762 -0.2659
17634TIP3   OH274316   4.392   1.461   5.149  0.1294  0.5180 -0.3693
17634TIP3    H174317   4.405   1.402   5.223 -0.3119  1.7098  0.6844
17634TIP3    H274318   4.444   1.538   5.170 -0.0961  0.9295 -1.2597
17635TIP3   OH274319   1.026   5.480   6.032  0.0110 -0.1631  0.5104
17635TIP3    H174320   1.043   5.445   6.119  1.7587 -0.8242 -0.0451
17635TIP3    H274321   0.940   5.521   6.039  0.5002  0.6456  2.7963
17636TIP3   OH274322   3.817   4.015   0.416 -0.4345  0.0668 -0.2281
17636TIP3    H174323   3.787   4.057   0.497 -0.6098 -0.8476  0.1902
17636TIP3    H274324   3.857   3.933   0.445 -3.9830 -2.2566 -1.3126
17637TIP3   OH274325   1.786   1.218   0.909 -0.0356  0.2666  0.2051
17637TIP3    H174326   1.729   1.265   0.970 -0.1114 -0.3549  0.6282
17637TIP3    H274327   1.799   1.279   0.836  0.1276  1.0558  0.8738
17638TIP3   OH274328   0.311   1.492  12.665  0.1199 -0.1478 -0.4849
17638TIP3    H174329   0.329   1.456  12.751  0.1993  0.6520 -0.1634
17638TIP3    H274330   0.363   1.439  12.605  1.0654  0.1138  0.0943
17639TIP3   OH274331   0.065   3.205   6.577  0.4073  0.4095  0.6591
17639TIP3    H174332   0.126   3.131   6.578  0.4450  0.4455  1.1939
17639TIP3    H274333   0.119   3.282   6.594  0.3061  0.5170  0.5050
17640TIP3   OH274334   5.338   4.450   2.436  0.2509 -0.3250 -0.4462
17640TIP3    H174335   5.427   4.414   2.438 -0.3147 -1.7744  0.9137
17640TIP3    H274336   5.329   4.499   2.517 -0.4659 -0.9500 -0.1314
17641TIP3   OH274337   0.339   1.934  13.832  0.1769  0.2490 -0.4233
17641TIP3    H174338   0.323   1.903  13.743  0.1267 -0.4399 -0.1736
17641TIP3    H274339   0.333   1.856  13.887  1.5760  0.4292  0.0290
17642TIP3   OH274340   1.324   0.812   5.413  0.3769  0.3548  0.0391
17642TIP3    H174341   1.274   0.865   5.351  0.7376  0.5437 -0.0968
17642TIP3    H274342   1.264   0.743   5.439  0.2496  0.2184 -0.5932
17643TIP3   OH274343   5.046   0.052   2.813  0.2667 -0.3196 -0.0387
17643TIP3    H174344   4.983   0.054   2.741 -1.5078 -1.2713  1.4060
17643TIP3    H274345   5.050  -0.040   2.839 -0.5464  0.2161  2.2035
17644TIP3   OH274346   4.884   0.682  16.720 -0.1802  0.9432  0.3551
17644TIP3    H174347   4.879   0.757  16.779 -1.3827  0.6126  0.6862
17644TIP3    H274348   4.829   0.615  16.760  0.3795  0.0889 -0.2544
17645TIP3   OH274349   6.780   0.578  12.745  0.0108 -0.0157 -0.2730
17645TIP3    H174350   6.780   0.576  12.841  0.7382 -2.6247 -0.2495
17645TIP3    H274351   6.767   0.670  12.723  0.9264  0.8309  2.3273
17646TIP3   OH274352   6.295   0.149   0.296 -0.5423 -0.0848  0.5086
17646TIP3    H174353   6.269   0.212   0.229 -0.3836  0.0497  0.5721
17646TIP3    H274354   6.369   0.102   0.256 -0.1703  0.2857  0.7499
17647TIP3   OH274355   0.272   4.653   0.571 -0.0832 -0.0374 -0.5458
17647TIP3    H174356   0.205   4.697   0.518 -0.4540  0.5151  0.3621
17647TIP3    H274357   0.354   4.676   0.528 -0.4521 -0.6320 -1.6114
17648TIP3   OH274358   4.397   5.492   5.550 -0.1454  0.0945  0.3884
17648TIP3    H174359   4.388   5.465   5.459 -0.8240  0.0986  0.4471
17648TIP3    H274360   4.476   5.449   5.581  0.1426  0.1791 -0.2359
17649TIP3   OH274361   3.452   1.159  16.114  0.2586  0.0511 -0.2298
17649TIP3    H174362   3.393   1.214  16.165 -0.1013  1.8738 -2.4113
17649TIP3    H274363   3.396   1.120  16.046  1.0237 -0.6981 -0.4459
17650TIP3   OH274364   4.246   1.977  11.984  0.6244  0.0218  0.1360
17650TIP3    H174365   4.305   1.922  12.035  0.2327  0.3682  0.9686
17650TIP3    H274366   4.231   2.054  12.038 -1.3633 -0.4817  0.3746
17651TIP3   OH274367   4.150   0.017   0.974 -0.5969 -0.4039 -0.1415
17651TIP3    H174368   4.055   0.004   0.982 -1.1072 -0.9506 -4.4352
17651TIP3    H274369   4.179  -0.056   0.918  1.3224  2.4101 -3.1729
17652TIP3   OH274370   6.769   0.784  11.392  0.4953 -0.4291 -0.5564
17652TIP3    H174371   6.857   0.809  11.366 -0.1273 -0.3219 -2.7761
17652TIP3    H274372   6.723   0.766  11.310 -1.5953 -0.3798  0.5065
17653TIP3   OH274373   2.435   2.690   1.195  0.1227  0.0203  0.1021
17653TIP3    H174374   2.453   2.778   1.161  1.2420 -0.1268  0.2811
17653TIP3    H274375   2.519   2.645   1.192 -0.5746 -1.2911 -0.6568
17654TIP3   OH274376   1.335   2.808   2.806 -0.2436  0.0873  0.0184
17654TIP3    H174377   1.324   2.718   2.837 -1.4820 -0.4052 -1.7093
17654TIP3    H274378   1.390   2.850   2.873 -2.0799 -1.1021  2.4339
17655TIP3   OH274379   1.752   3.484  14.059  0.0803 -0.4625 -0.7383
17655TIP3    H174380   1.660   3.458  14.053 -0.4153  1.2006 -1.0655
17655TIP3    H274381   1.771   3.523  13.973  0.5760  0.6921 -0.1216
17656TIP3   OH274382   6.065   3.434  11.992  0.5370 -0.0842  0.6034
17656TIP3    H174383   5.984   3.449  11.944 -0.4968  0.6268  2.4764
17656TIP3    H274384   6.061   3.342  12.018  1.3687 -0.6301 -1.0658
17657TIP3   OH274385   0.411   0.818  15.606  0.3436 -0.3739 -0.2259
17657TIP3    H174386   0.455   0.862  15.679 -1.1510  0.9815 -0.0858
17657TIP3    H274387   0.352   0.755  15.648 -0.2327  0.1317 -0.2692
17658TIP3   OH274388   6.343   2.292   2.692  0.3035  0.1084  0.5886
17658TIP3    H174389   6.412   2.243   2.649  1.6359  1.0478  1.5633
17658TIP3    H274390   6.318   2.359   2.629 -0.0549 -0.5136  0.0587
17659TIP3   OH274391   5.910   4.105  11.648  0.1467 -0.5806  0.7025
17659TIP3    H174392   5.955   4.055  11.579 -0.0920 -2.8351  2.0625
17659TIP3    H274393   5.980   4.131  11.707  0.3121  1.0828 -0.1706
17660TIP3   OH274394   0.206   2.859   2.225  0.6199  0.1560  0.7208
17660TIP3    H174395   0.140   2.846   2.157  0.4461 -2.5697  1.2983
17660TIP3    H274396   0.184   2.944   2.265 -0.9131  0.5221 -0.8088
17661TIP3   OH274397   0.541   2.335  15.992 -0.4410 -0.2139  0.1724
17661TIP3    H174398   0.581   2.347  16.078  0.3923  1.2994 -0.3863
17661TIP3    H274399   0.598   2.272  15.948  1.5081  1.9523 -0.6316
17662TIP3   OH274400   0.663   2.850   3.442 -0.0700 -0.0819 -0.0530
17662TIP3    H174401   0.574   2.879   3.463 -0.7888 -1.9685 -0.2399
17662TIP3    H274402   0.720   2.911   3.488 -1.4657  0.9613  0.3665
17663TIP3   OH274403   1.741   3.508   3.632  0.0521 -0.2908  0.6414
17663TIP3    H174404   1.762   3.462   3.713 -0.6218  0.2610  1.1329
17663TIP3    H274405   1.806   3.475   3.569 -0.3979 -1.9068  0.9728
17664TIP3   OH274406   6.312   6.520  11.986  0.7313  0.0499  0.0009
17664TIP3    H174407   6.291   6.609  12.013  2.2410  1.0395 -1.7785
17664TIP3    H274408   6.291   6.519  11.892  0.1083 -1.7043  0.1326
17665TIP3   OH274409   2.441   5.700  11.200  0.2746  0.5057  0.5271
17665TIP3    H174410   2.457   5.647  11.277 -1.7789 -0.4532  0.3751
17665TIP3    H274411   2.462   5.643  11.126  0.8667  0.9217  0.3728
17666TIP3   OH274412   0.402   3.856  12.597 -0.5623 -0.1039 -0.0462
17666TIP3    H174413   0.449   3.926  12.552  0.2474 -0.7913 -0.2915
17666TIP3    H274414   0.313   3.860  12.562 -0.2245  0.0764 -0.9073
17667TIP3   OH274415   2.883   5.406  17.101  0.0240  0.4060 -0.3221
17667TIP3    H174416   2.847   5.390  17.188  1.7362 -3.0005 -0.0612
17667TIP3    H274417   2.871   5.500  17.086 -1.8739  0.7919  2.8173
17668TIP3   OH274418   0.626   3.186  14.320  0.6987 -0.3425 -0.0415
17668TIP3    H174419   0.669   3.133  14.254  0.9409 -0.9942  0.6211
17668TIP3    H274420   0.648   3.143  14.403  0.8870  0.7740  0.5130
17669TIP3   OH274421   0.707   0.635   4.905  0.0546  0.2165  0.0046
17669TIP3    H174422   0.614   0.656   4.896  0.2577  0.5628 -1.5898
17669TIP3    H274423   0.717   0.551   4.860  0.6716  0.6432 -0.6690
17670TIP3   OH274424   2.032   2.943   1.718  0.0740  0.5513  0.3446
17670TIP3    H174425   2.006   2.854   1.695  2.8828  0.1888 -2.0523
17670TIP3    H274426   2.021   2.993   1.638  0.5125  1.8872  1.0774
17671TIP3   OH274427   5.261   2.345  16.172  0.4967  0.2525  0.0662
17671TIP3    H174428   5.247   2.291  16.250  1.3577  0.0650  0.1018
17671TIP3    H274429   5.266   2.282  16.100  1.1143  0.3008  0.0562
17672TIP3   OH274430   5.622   1.559  11.966  0.0046  0.0061  0.2362
17672TIP3    H174431   5.558   1.614  11.921 -0.8350 -0.9564  0.2075
17672TIP3    H274432   5.677   1.523  11.897  1.1890  1.5164  0.3231
17673TIP3   OH274433   3.405   2.863   2.971 -0.5926  0.1221 -0.4154
17673TIP3    H174434   3.337   2.893   3.031  0.4007  1.1336  0.2481
17673TIP3    H274435   3.420   2.938   2.913 -0.1658 -0.1519 -0.6625
17674TIP3   OH274436   3.495   1.507   3.418  0.2913  0.0148 -0.1834
17674TIP3    H174437   3.440   1.548   3.352 -0.2150 -1.1053 -0.4850
17674TIP3    H274438   3.531   1.429   3.375  0.1934 -0.5629  0.7507
17675TIP3   OH274439   4.980   5.463   3.473 -0.0821  0.5964 -0.4270
17675TIP3    H174440   4.972   5.386   3.529  0.4980  0.6550 -0.2517
17675TIP3    H274441   4.957   5.433   3.386 -1.3946  0.5942 -0.0985
17676TIP3   OH274442   5.206   3.749  13.360  0.2090  0.1579 -0.6531
17676TIP3    H174443   5.145   3.765  13.289 -1.3818  0.4663  0.7081
17676TIP3    H274444   5.165   3.681  13.413  0.9178  0.5273  0.4258
17677TIP3   OH274445   4.769   1.669   3.992 -0.2503 -0.6291  0.2874
17677TIP3    H174446   4.778   1.764   3.996 -1.5595 -0.4970  0.6353
17677TIP3    H274447   4.746   1.651   3.901 -0.1913 -0.5940  0.2654
17678TIP3   OH274448   1.672   1.968   5.084  0.5872 -0.2099 -0.3845
17678TIP3    H174449   1.653   1.940   4.995  0.1895  1.2690 -0.7954
17678TIP3    H274450   1.764   1.944   5.098  0.1719 -1.9996 -0.5495
17679TIP3   OH274451   4.325   4.955   1.552 -0.1316  0.5095 -0.3189
17679TIP3    H174452   4.340   5.033   1.499 -1.5222  0.6854 -0.4929
17679TIP3    H274453   4.251   4.912   1.510  0.2143 -0.5718  0.1545
17680TIP3   OH274454   5.949   5.135   5.522  0.3615  0.3917 -0.2332
17680TIP3    H174455   5.879   5.197   5.502  0.7350  1.0556  0.4856
17680TIP3    H274456   5.947   5.073   5.449 -0.8675  0.4904 -0.3071
17681TIP3   OH274457   0.969   0.557  14.651 -0.3372 -0.2801 -0.2082
17681TIP3    H174458   1.051   0.524  14.613  0.3134 -1.7283  2.2159
17681TIP3    H274459   0.907   0.557  14.578  1.1135 -1.7646 -1.5402
17682TIP3   OH274460   3.374   2.192   1.376  0.2748 -0.3291 -0.1441
17682TIP3    H174461   3.281   2.212   1.388  0.6284  0.0925  2.7621
17682TIP3    H274462   3.417   2.277   1.382  0.8312 -0.3365 -2.9051
17683TIP3   OH274463   0.773   2.800  11.109 -0.0485 -0.3154 -0.0340
17683TIP3    H174464   0.727   2.813  11.026  1.5665  2.1038 -0.6635
17683TIP3    H274465   0.859   2.840  11.096  0.2632  0.2002  2.8330
17684TIP3   OH274466   1.522   1.089  15.994 -0.3736  0.1269 -0.4792
17684TIP3    H174467   1.607   1.130  16.012 -0.2808  0.7909 -2.2594
17684TIP3    H274468   1.460   1.162  15.989 -0.7103 -0.1860 -1.0270
17685TIP3   OH274469   1.574   0.167   1.802  0.0431 -0.4314 -0.3398
17685TIP3    H174470   1.614   0.233   1.860 -0.2829 -1.3854  1.0250
17685TIP3    H274471   1.601   0.193   1.714  2.7819 -0.3988  0.4095
17686TIP3   OH274472   5.753   2.991  12.333 -0.6042 -0.1885 -0.2745
17686TIP3    H174473   5.834   3.039  12.351 -0.3723 -0.8893  0.5673
17686TIP3    H274474   5.779   2.924  12.270 -0.2527 -1.1942  0.9141
17687TIP3   OH274475   2.854   1.290   2.428 -0.4665 -0.4702  0.3597
17687TIP3    H174476   2.782   1.353   2.423  2.9825  3.9041 -0.2914
17687TIP3    H274477   2.867   1.262   2.337 -0.4083 -0.0820  0.2464
17688TIP3   OH274478   4.887   0.768   5.910 -0.2179 -0.0866  0.5978
17688TIP3    H174479   4.935   0.789   5.830 -1.8089  0.4201 -0.2577
17688TIP3    H274480   4.795   0.765   5.884 -0.7170 -0.6981  2.2502
17689TIP3   OH274481   4.378   4.388  14.896 -0.5486  0.0743 -0.4627
17689TIP3    H174482   4.387   4.481  14.916 -2.9268  0.2842 -0.0483
17689TIP3    H274483   4.411   4.343  14.973 -1.5386  0.6728  0.3342
17690TIP3   OH274484   6.578   1.097  13.729  0.7621 -0.2771  0.1590
17690TIP3    H174485   6.661   1.087  13.681 -1.5661 -0.1513 -4.4181
17690TIP3    H274486   6.557   1.190  13.722 -0.1934 -0.4584  0.4706
17691TIP3   OH274487   6.220   2.257  15.666  0.1651  0.1645 -0.0421
17691TIP3    H174488   6.184   2.178  15.627 -1.6601  1.1250 -0.4156
17691TIP3    H274489   6.166   2.328  15.631 -0.5817  1.2488  3.0205
17692TIP3   OH274490   2.609   0.405   3.529 -0.3813 -0.1010  0.3867
17692TIP3    H174491   2.601   0.395   3.624  1.6089 -2.4561  0.4114
17692TIP3    H274492   2.520   0.422   3.499 -0.7647  3.3238  2.8223
17693TIP3   OH274493   1.303   4.913  16.574  0.6809 -0.7701 -0.2662
17693TIP3    H174494   1.317   4.934  16.482 -1.7212 -0.0950 -0.5590
17693TIP3    H274495   1.349   4.982  16.622 -0.0417  0.2875 -1.0426
17694TIP3   OH274496   5.685   2.696   2.455 -0.8028 -0.2436 -0.2078
17694TIP3    H174497   5.619   2.766   2.462  1.6293  2.1395  0.5785
17694TIP3    H274498   5.655   2.629   2.517 -2.1113  1.1030  0.6906
17695TIP3   OH274499   0.271   2.403  16.759 -0.4765 -0.2890  0.5068
17695TIP3    H174500   0.356   2.370  16.731  0.0396  1.5118 -0.2371
17695TIP3    H274501   0.214   2.389  16.683 -0.6214 -0.6695  0.6815
17696TIP3   OH274502   0.177   2.291   1.229 -0.0362  0.0345 -0.1109
17696TIP3    H174503   0.243   2.344   1.185 -0.0323 -0.0017 -0.1494
17696TIP3    H274504   0.157   2.221   1.166  0.8132 -0.6878  0.4023
17697TIP3   OH274505   1.338   6.492  12.936 -0.0933 -0.2349 -0.0347
17697TIP3    H174506   1.405   6.559  12.948 -0.1138 -0.6186  3.0171
17697TIP3    H274507   1.387   6.411  12.923 -0.0674  0.0523 -2.0711
17698TIP3   OH274508   3.553   5.884  14.042  0.3875 -0.6450 -0.1815
17698TIP3    H174509   3.476   5.927  14.004 -0.9038 -0.8474  2.0648
17698TIP3    H274510   3.607   5.956  14.074 -0.4406 -0.5610  1.0924
17699TIP3   OH274511   5.739   4.006   2.826  0.4477  0.0252 -0.1557
17699TIP3    H174512   5.683   4.017   2.749  2.0052  0.3356 -1.2999
17699TIP3    H274513   5.693   3.943   2.881 -1.2587  0.6688 -0.7876
17700TIP3   OH274514   1.607   5.282  13.680 -0.0461  0.0009  0.2907
17700TIP3    H174515   1.574   5.326  13.758  0.2097  0.2868  0.2386
17700TIP3    H274516   1.530   5.243  13.639 -0.2812  0.4628  0.2959
17701TIP3   OH274517   3.910   5.281   5.885  0.5572 -0.5348 -0.0997
17701TIP3    H174518   3.868   5.223   5.948  1.0302 -0.8929 -0.1115
17701TIP3    H274519   3.893   5.240   5.800  0.4231 -0.3646 -0.1552
17702TIP3   OH274520   0.200   1.237   2.345 -0.7684  0.0764  0.4063
17702TIP3    H174521   0.248   1.249   2.264 -1.5591 -0.5828 -0.1782
17702TIP3    H274522   0.232   1.305   2.403  0.2638  0.1573 -0.2476
17703TIP3   OH274523   2.293   4.044  10.988 -0.2323 -0.0004 -0.1288
17703TIP3    H174524   2.382   4.017  11.009 -0.7465 -0.0855  2.2286
17703TIP3    H274525   2.251   3.965  10.955  0.1640 -0.3425  0.1648
17704TIP3   OH274526   0.689   4.615   1.519  0.6738  0.0010  0.7196
17704TIP3    H174527   0.671   4.529   1.481 -2.3937  1.1391 -0.7070
17704TIP3    H274528   0.784   4.625   1.512  0.9581 -2.7308 -0.2467
17705TIP3   OH274529   0.004   0.518  16.626  0.4432 -0.0618 -0.2063
17705TIP3    H174530  -0.006   0.512  16.531 -1.3115 -2.0250  0.0443
17705TIP3    H274531  -0.062   0.459  16.661  1.7926 -0.2379  2.2296
17706TIP3   OH274532   6.479   2.519  13.686 -0.3683 -0.0648  0.1878
17706TIP3    H174533   6.510   2.474  13.608 -0.7345 -0.0204  0.0155
17706TIP3    H274534   6.495   2.458  13.757 -0.4920 -0.3049  0.0096
17707TIP3   OH274535   4.478   4.851  13.466 -0.1247 -0.4990  0.0643
17707TIP3    H174536   4.504   4.789  13.534  1.6566  1.2814  1.1094
17707TIP3    H274537   4.534   4.831  13.392  2.3324  1.3188  1.2567
17708TIP3   OH274538   1.544   0.010  14.154 -0.0043  0.6545 -0.5526
17708TIP3    H174539   1.498   0.075  14.207 -2.4943 -1.4944  0.1245
17708TIP3    H274540   1.607  -0.030  14.215 -0.0742  0.8814 -0.3297
17709TIP3   OH274541   2.448   1.970  12.677 -0.7931  0.3740 -0.2363
17709TIP3    H174542   2.472   1.901  12.616 -0.8448  1.0201 -1.0015
17709TIP3    H274543   2.474   2.051  12.633  0.3462  0.8052  1.1119
17710TIP3   OH274544   3.395   1.342  15.041  0.2761  0.3032  0.7861
17710TIP3    H174545   3.346   1.270  15.001 -0.0785  0.6173  0.6494
17710TIP3    H274546   3.445   1.381  14.969 -0.2332  0.7634  0.6746
17711TIP3   OH274547   5.797   6.472  11.725 -0.5790  0.0868 -0.1782
17711TIP3    H174548   5.716   6.496  11.769 -0.5115 -0.7054  0.3958
17711TIP3    H274549   5.785   6.501  11.634 -0.6635  1.8660  0.3710
17712TIP3   OH274550   5.362   0.749  13.644 -0.0620  0.0639  0.1326
17712TIP3    H174551   5.377   0.829  13.694 -0.3342  0.1620  0.0548
17712TIP3    H274552   5.450   0.723  13.615 -0.2219  2.3170 -2.8978
17713TIP3   OH274553   6.712   3.968  11.809 -0.4629 -0.3391 -0.4773
17713TIP3    H174554   6.772   3.986  11.737 -1.2599 -0.2641 -1.1393
17713TIP3    H274555   6.667   3.887  11.784 -1.7505  0.4295 -0.7521
17714TIP3   OH274556   0.618   6.493   2.393 -0.3258 -0.0019  0.1377
17714TIP3    H174557   0.584   6.569   2.347 -1.0996 -0.6762 -0.4316
17714TIP3    H274558   0.565   6.420   2.362  0.6530 -0.8462  0.3691
17715TIP3   OH274559   1.810   4.256   5.302  0.1064 -0.0103 -0.1789
17715TIP3    H174560   1.746   4.314   5.343  0.0512 -0.9517  1.1051
17715TIP3    H274561   1.821   4.184   5.363  2.2500  0.0060 -0.4485
17716TIP3   OH274562   3.383   4.242   5.426 -0.9484  0.0682 -0.0040
17716TIP3    H174563   3.455   4.252   5.363  0.0595  0.6884  1.2150
17716TIP3    H274564   3.396   4.155   5.463 -0.8960  0.1284  0.1199
17717TIP3   OH274565   4.975   1.253  10.870 -0.1503 -0.0757 -0.3500
17717TIP3    H174566   4.979   1.255  10.966  1.7485 -0.5260 -0.3848
17717TIP3    H274567   4.950   1.343  10.846 -0.7006  0.0328  0.5488
17718TIP3   OH274568   2.534   4.198  13.999 -0.6875  0.1943 -0.2261
17718TIP3    H174569   2.616   4.202  13.951  1.5759 -0.6603  3.1865
17718TIP3    H274570   2.478   4.264  13.958  1.3823  0.2988 -3.1508
17719TIP3   OH274571   6.110   3.319  13.354  0.5534 -0.2861  0.3991
17719TIP3    H174572   6.145   3.242  13.311  0.5809 -0.0674  0.0217
17719TIP3    H274573   6.132   3.308  13.446  0.2590 -0.8913  0.4003
17720TIP3   OH274574   5.618   0.166   3.902 -0.3311  0.5228  0.5714
17720TIP3    H174575   5.602   0.077   3.933 -0.0960  0.5158  0.6802
17720TIP3    H274576   5.542   0.188   3.849 -1.0768  0.8081  1.7424
17721TIP3   OH274577   1.973   1.642  15.331 -0.4667  0.2245  0.1569
17721TIP3    H174578   1.956   1.553  15.361 -1.4409  0.6237  0.8190
17721TIP3    H274579   1.947   1.642  15.239  1.6088 -0.7413 -0.4855
17722TIP3   OH274580   0.816   5.732  12.251  0.1547 -0.4098  0.1711
17722TIP3    H174581   0.911   5.722  12.261  0.4345  2.5037  1.5336
17722TIP3    H274582   0.781   5.718  12.340 -0.5847 -0.4333 -0.1167
17723TIP3   OH274583   5.138   6.585  11.482  0.0850 -0.0262  0.1968
17723TIP3    H174584   5.053   6.619  11.510  0.0329 -1.3458  1.7426
17723TIP3    H274585   5.198   6.658  11.495 -0.8228  1.0327 -1.2316
17724TIP3   OH274586   1.433   1.207  14.317  0.1345  0.1118  0.3293
17724TIP3    H174587   1.372   1.141  14.352 -0.4216  1.3074  1.7500
17724TIP3    H274588   1.382   1.288  14.316  0.4477  0.3413 -2.4762
17725TIP3   OH274589   4.736   0.476  16.370 -0.3760  0.2720  0.4529
17725TIP3    H174590   4.733   0.557  16.420  0.3918 -1.3774  3.4487
17725TIP3    H274591   4.710   0.408  16.433  2.6547 -2.2458 -0.7144
17726TIP3   OH274592   1.290   6.700   4.912  0.0887  0.1753  0.0738
17726TIP3    H174593   1.332   6.629   4.863  0.4583  0.9698 -0.7919
17726TIP3    H274594   1.272   6.663   4.998 -0.7468 -1.3170 -0.7135
17727TIP3   OH274595   5.797   5.190   1.524 -0.3449  0.1594 -0.4952
17727TIP3    H174596   5.821   5.220   1.436  0.9521  0.8886  0.0878
17727TIP3    H274597   5.744   5.262   1.559  0.0149  0.3304 -0.3003
17728TIP3   OH274598   1.287   6.554  15.458 -0.1333  0.2642 -0.1416
17728TIP3    H174599   1.236   6.567  15.378 -0.1733  0.5524 -0.0731
17728TIP3    H274600   1.223   6.567  15.529  0.5424  3.4858  0.0420
17729TIP3   OH274601   5.421   4.133  15.676  0.4558 -0.3511  0.3576
17729TIP3    H174602   5.488   4.199  15.694  1.3796 -0.8941 -0.9051
17729TIP3    H274603   5.464   4.071  15.616 -1.1104 -0.8259 -0.3312
17730TIP3   OH274604   5.874   5.204   1.806  0.2940  0.2050 -0.1184
17730TIP3    H174605   5.969   5.214   1.818  0.7799 -3.2169 -0.3041
17730TIP3    H274606   5.863   5.198   1.712  0.0537 -0.6454 -0.0360
17731TIP3   OH274607   3.409   5.793   3.643  0.5922  0.1548 -0.0715
17731TIP3    H174608   3.494   5.751   3.655 -0.1508 -1.3609  0.1751
17731TIP3    H274609   3.423   5.884   3.669  1.8487 -0.3592  1.1675
17732TIP3   OH274610   4.107   3.367  12.875 -0.7277  0.8663 -0.4526
17732TIP3    H174611   4.120   3.347  12.968 -0.8184  0.5334 -0.5097
17732TIP3    H274612   4.122   3.461  12.869  0.9126  0.6355 -0.3807
17733TIP3   OH274613   4.675   2.599  16.725  0.7111 -0.0156 -0.5941
17733TIP3    H174614   4.643   2.685  16.751  0.4937 -0.6368  1.3479
17733TIP3    H274615   4.748   2.618  16.667 -0.5190  1.4448 -1.7385
17734TIP3   OH274616   2.640   6.017  15.789 -0.1643  0.2434 -0.1656
17734TIP3    H174617   2.564   5.991  15.737 -0.8351  0.5657  0.6274
17734TIP3    H274618   2.670   5.935  15.829  1.5564 -0.3804 -2.5145
17735TIP3   OH274619   1.773   0.909   5.030 -0.0782  0.3070  0.2629
17735TIP3    H174620   1.792   0.959   4.951 -0.3517  1.3929  0.8518
17735TIP3    H274621   1.727   0.831   5.000  2.1104 -0.6505 -0.8852
17736TIP3   OH274622   5.583   6.608   1.397 -0.2092  0.2978  0.1660
17736TIP3    H174623   5.676   6.589   1.407 -0.7355 -1.8473  1.7184
17736TIP3    H274624   5.546   6.527   1.362 -1.7351  0.5539  1.1326
17737TIP3   OH274625   0.911   3.193  13.901  0.3742 -0.1755 -0.7592
17737TIP3    H174626   1.002   3.167  13.883  0.8335  0.8921 -0.0529
17737TIP3    H274627   0.915   3.287  13.914 -0.5330 -0.3272  0.9870
17738TIP3   OH274628   6.051   6.010  11.807  0.2292  0.2779  0.4165
17738TIP3    H174629   5.962   5.979  11.789  0.6244 -0.8360  0.2916
17738TIP3    H274630   6.070   5.980  11.895  0.9522 -0.6798 -0.0415
17739TIP3   OH274631   3.584   5.019  14.605  0.2095 -0.1636 -0.5395
17739TIP3    H174632   3.532   5.070  14.668  0.0425 -0.6732 -0.2584
17739TIP3    H274633   3.667   5.066  14.598  0.3049 -0.2102  0.2149
17740TIP3   OH274634   0.391   0.219  13.652 -0.2171  0.2335 -1.3038
17740TIP3    H174635   0.486   0.213  13.643 -0.2221 -1.4308 -0.5979
17740TIP3    H274636   0.376   0.302  13.698  0.9364  0.1370 -0.7246
17741TIP3   OH274637   0.305   0.110   3.407  0.5433  0.0030 -0.3093
17741TIP3    H174638   0.290   0.035   3.465 -0.5252 -0.2300 -0.8516
17741TIP3    H274639   0.247   0.178   3.441  0.6875  0.2133 -0.4831
17742TIP3   OH274640   5.872   0.785   0.615 -0.4988  0.4909 -0.3995
17742TIP3    H174641   5.870   0.724   0.541  1.0526  1.0830 -0.9626
17742TIP3    H274642   5.783   0.821   0.618 -0.4602  0.8779 -2.3442
17743TIP3   OH274643   5.542   0.970   1.811  0.3299 -0.1460  0.0423
17743TIP3    H174644   5.478   0.983   1.741  1.3687  0.9657 -0.7579
17743TIP3    H274645   5.561   0.877   1.810  0.0126 -0.2080 -0.8665
17744TIP3   OH274646   4.787   5.466   4.903  0.7969 -0.4641 -0.1019
17744TIP3    H174647   4.873   5.485   4.865  0.9642 -0.2996  0.3433
17744TIP3    H274648   4.778   5.531   4.973  0.2604 -0.4099 -0.2171
17745TIP3   OH274649   5.101   3.328   3.769  0.3706  0.0026 -0.4002
17745TIP3    H174650   5.186   3.357   3.735  0.5557 -0.1704 -0.0900
17745TIP3    H274651   5.083   3.388   3.841  1.1251 -1.0962  0.7578
17746TIP3   OH274652   3.715   1.860   0.505 -0.1131  0.2824  0.0936
17746TIP3    H174653   3.729   1.815   0.588 -0.4166 -0.2352 -0.1272
17746TIP3    H274654   3.796   1.848   0.456 -0.8113 -1.6614 -0.7046
17747TIP3   OH274655   1.260   2.426  14.567  0.3485 -0.2095  0.2577
17747TIP3    H174656   1.244   2.355  14.504  0.4267  0.2331 -0.2703
17747TIP3    H274657   1.351   2.414  14.595  0.6351  0.1723 -0.4741
17748TIP3   OH274658   1.974   5.470   0.742 -0.0899  0.1124 -0.3799
17748TIP3    H174659   1.895   5.503   0.784 -0.8871  0.1751 -1.8628
17748TIP3    H274660   1.963   5.491   0.649  0.2891 -2.4975 -1.0958
17749TIP3   OH274661   5.657   2.681  13.694 -0.3556 -0.1626 -0.3622
17749TIP3    H174662   5.585   2.619  13.682 -1.3220  1.2060 -2.1364
17749TIP3    H274663   5.720   2.659  13.626 -0.4368  0.4254 -0.6362
17750TIP3   OH274664   4.924   0.150  16.041  0.0774 -0.9264  0.2588
17750TIP3    H174665   4.862   0.216  16.073 -0.9985 -1.4995 -0.5498
17750TIP3    H274666   5.010   0.190  16.052 -0.4905  0.2662  0.5752
17751TIP3   OH274667   6.636   4.580   0.123  0.3424 -0.2238  0.1627
17751TIP3    H174668   6.645   4.613   0.033 -0.5895  0.8887  0.4607
17751TIP3    H274669   6.582   4.645   0.167  0.7502 -0.7816  1.5318
17752TIP3   OH274670   5.204   2.542  15.379  0.2248  0.2929  0.9282
17752TIP3    H174671   5.203   2.636  15.363  0.5078 -0.0703 -1.7032
17752TIP3    H274672   5.275   2.509  15.325 -0.1212 -1.4960  1.4861
17753TIP3   OH274673   4.191   5.442   3.858 -0.2622 -0.6923 -0.0413
17753TIP3    H174674   4.105   5.425   3.898 -0.2806  1.1815  0.8171
17753TIP3    H274675   4.252   5.445   3.931  0.8171 -3.2043 -0.7433
17754TIP3   OH274676   4.963   3.416   1.881  0.3407 -0.0920  0.7002
17754TIP3    H174677   5.040   3.466   1.857 -1.3548  2.5168  0.2782
17754TIP3    H274678   4.933   3.378   1.798  0.1487  0.4519  0.5159
17755TIP3   OH274679   2.338   6.000   0.828 -0.2164  0.2158  0.3164
17755TIP3    H174680   2.408   5.950   0.787  0.2698  3.3648 -3.2608
17755TIP3    H274681   2.266   5.999   0.764 -2.8865 -1.2935  3.0434
17756TIP3   OH274682   3.381   4.975   2.330  0.0820  0.1778  0.0273
17756TIP3    H174683   3.293   4.998   2.302 -0.4240 -1.1176  0.5114
17756TIP3    H274684   3.386   5.004   2.422 -0.5518 -1.5089  0.6343
17757TIP3   OH274685   4.820   6.623  16.346 -0.6811  0.0518  0.1659
17757TIP3    H174686   4.818   6.574  16.428 -4.4379 -1.1480 -0.4188
17757TIP3    H274687   4.756   6.693  16.358  2.5968  3.3067 -0.0043
17758TIP3   OH274688   2.516   6.613   1.651  0.7586  0.0989 -0.2205
17758TIP3    H174689   2.427   6.648   1.639 -0.1151 -0.9428  2.4643
17758TIP3    H274690   2.573   6.689   1.643 -0.3122  0.7739 -2.1292
17759TIP3   OH274691   1.297   3.736  11.805 -0.4992  0.1538 -0.1872
17759TIP3    H174692   1.202   3.747  11.813 -0.3676  1.3723 -0.0783
17759TIP3    H274693   1.327   3.818  11.766  0.5463 -0.1008  0.0589
17760TIP3   OH274694   6.579   4.630  15.070 -0.5407  0.7834 -0.4909
17760TIP3    H174695   6.560   4.634  15.164 -1.7547 -1.1608 -0.6031
17760TIP3    H274696   6.494   4.644  15.028 -0.0873  1.1608 -1.2992
17761TIP3   OH274697   1.803   2.569   3.841 -0.5154 -0.0587  0.1900
17761TIP3    H174698   1.777   2.503   3.906 -1.1977 -0.4827 -0.4964
17761TIP3    H274699   1.856   2.520   3.778 -1.3362 -0.0387 -0.5243
17762TIP3   OH274700   5.211   4.791   0.053  1.2639  0.0499  0.0140
17762TIP3    H174701   5.237   4.872   0.098 -1.1303  1.0335 -0.2167
17762TIP3    H274702   5.194   4.818  -0.037  0.7080 -0.7947 -0.1427
17763TIP3   OH274703   5.553   2.835   6.226 -0.0192 -0.0866 -0.5593
17763TIP3    H174704   5.510   2.829   6.311 -0.2784  0.9128 -0.6040
17763TIP3    H274705   5.546   2.747   6.190 -0.6982 -0.3119  0.0783
17764TIP3   OH274706   1.924   0.061  14.172 -0.2002  0.3262 -0.1318
17764TIP3    H174707   1.875   0.109  14.106 -0.6585 -1.8790 -1.5104
17764TIP3    H274708   1.891   0.093  14.255 -3.4137 -0.4134 -0.9885
17765TIP3   OH274709   5.400   5.722   3.442  0.4026  0.4940  0.4171
17765TIP3    H174710   5.430   5.715   3.351  0.9997  1.6609  0.5041
17765TIP3    H274711   5.305   5.725   3.435  0.3579 -1.2556 -0.0195
17766TIP3   OH274712   1.269   0.240  14.088 -0.2196  0.3830  0.1124
17766TIP3    H174713   1.271   0.255  14.182  3.1919  2.6304 -0.1489
17766TIP3    H274714   1.256   0.146  14.078  0.5015 -0.0702  2.8494
17767TIP3   OH274715   3.235   2.028   0.157  0.1964  0.0358 -0.2928
17767TIP3    H174716   3.145   2.060   0.164  0.7140  1.3460  0.8246
17767TIP3    H274717   3.250   2.020   0.063 -1.3469 -1.0222 -0.4808
17768TIP3   OH274718   2.755   6.530  14.491 -1.1115 -0.0021 -0.1800
17768TIP3    H174719   2.731   6.437  14.488  0.1851 -0.3688  0.2722
17768TIP3    H274720   2.776   6.552  14.401 -2.1521  0.0667 -0.4186
17769TIP3   OH274721   6.298   2.726   0.134  0.4518  0.2626  0.4959
17769TIP3    H174722   6.355   2.781   0.079  0.2858 -0.2357 -0.1904
17769TIP3    H274723   6.359   2.672   0.184  0.5988  0.0848  0.1320
17770TIP3   OH274724   3.818   6.700  14.732 -0.0829  0.0573 -0.8051
17770TIP3    H174725   3.830   6.650  14.812  2.4818 -1.1100 -1.7977
17770TIP3    H274726   3.730   6.678  14.702 -0.3524 -0.9875  0.6714
17771TIP3   OH274727   3.306   4.933   1.902 -0.0807 -0.1150 -0.2193
17771TIP3    H174728   3.234   4.981   1.861 -1.3007 -2.2958 -0.8387
17771TIP3    H274729   3.359   4.903   1.828 -0.6552 -1.5972 -0.0809
17772TIP3   OH274730   0.292   3.490  11.920  0.4531  0.0962  0.6046
17772TIP3    H174731   0.201   3.462  11.935  0.6118  0.4541  2.4504
17772TIP3    H274732   0.344   3.425  11.967  1.4612 -2.1633 -3.2278
17773TIP3   OH274733   5.162   5.865  14.970 -0.3026 -0.0724 -0.6210
17773TIP3    H174734   5.091   5.834  14.913 -1.5595  1.2292  0.1815
17773TIP3    H274735   5.192   5.946  14.929  1.9901 -1.4428 -1.9170
17774TIP3   OH274736   0.611   2.407  16.405  0.2456  0.1666  0.4326
17774TIP3    H174737   0.637   2.326  16.361 -1.6304 -0.2998  0.0910
17774TIP3    H274738   0.667   2.475  16.366  0.2176 -0.6053 -1.0172
17775TIP3   OH274739   4.718   3.486  16.178  0.1589 -0.1665 -0.3096
17775TIP3    H174740   4.634   3.480  16.223  1.3065 -2.4263  1.7881
17775TIP3    H274741   4.699   3.457  16.089 -1.1998 -1.3397  0.3145
17776TIP3   OH274742   5.483   3.473   1.606  0.9618 -0.0804  0.2432
17776TIP3    H174743   5.427   3.459   1.529 -0.6419 -0.3136  1.4209
17776TIP3    H274744   5.428   3.451   1.681  1.9865  1.6152  1.5681
17777TIP3   OH274745   3.201   3.041   0.741  0.0924  0.4816  0.0921
17777TIP3    H174746   3.185   3.044   0.646 -1.8359  2.7627  0.3818
17777TIP3    H274747   3.294   3.061   0.750 -0.3238  3.6791 -1.3089
17778TIP3   OH274748   5.546   3.045  15.866 -0.5492  0.9069  0.4274
17778TIP3    H174749   5.610   3.035  15.795  0.6907 -0.5301  1.6730
17778TIP3    H274750   5.595   3.022  15.945 -1.6334  3.2930  1.8975
17779TIP3   OH274751   1.099   6.299   2.616  0.0675 -0.0501  0.2670
17779TIP3    H174752   1.046   6.250   2.553  0.5437  0.6964 -0.7379
17779TIP3    H274753   1.171   6.241   2.638  0.9869  0.4022 -1.4117
17780TIP3   OH274754   3.522   3.114  10.803 -0.0147  0.0159  0.1880
17780TIP3    H174755   3.508   3.024  10.831 -0.0763 -0.0913 -0.1862
17780TIP3    H274756   3.594   3.145  10.859  1.6954 -1.0474 -1.2832
17781TIP3   OH274757   0.151   3.934  16.534  0.4014 -0.5216 -0.3616
17781TIP3    H174758   0.118   3.944  16.623  1.0970  1.3396 -0.2819
17781TIP3    H274759   0.076   3.958  16.478  0.6739  0.7434 -0.2174
17782TIP3   OH274760   5.159   3.704   4.968  0.6375  0.4386  0.8005
17782TIP3    H174761   5.081   3.730   5.017 -0.1253  1.5175 -0.8902
17782TIP3    H274762   5.129   3.630   4.914  1.9954 -2.1519  3.2952
17783TIP3   OH274763   3.692   2.288  11.023 -0.0994  0.0937  0.1428
17783TIP3    H174764   3.687   2.361  11.084  0.7784 -0.0856  0.4494
17783TIP3    H274765   3.635   2.313  10.950  2.3935  2.4608 -1.1799
17784TIP3   OH274766   4.828   3.561   4.093 -0.0009 -0.6542  0.6973
17784TIP3    H174767   4.812   3.632   4.155  1.6709 -0.3619  0.8291
17784TIP3    H274768   4.920   3.540   4.104  0.9248  0.6909 -3.0026
17785TIP3   OH274769   4.534   1.527  11.087 -0.2506 -0.4026 -0.5465
17785TIP3    H174770   4.441   1.505  11.090 -0.2045 -0.6162 -0.6601
17785TIP3    H274771   4.576   1.449  11.051  0.1075 -0.7784  0.6174
17786TIP3   OH274772   4.426   1.790  14.480  0.4685  0.0269  0.8445
17786TIP3    H174773   4.378   1.860  14.436 -0.6078 -0.1391  1.7202
17786TIP3    H274774   4.512   1.791  14.438  0.2437  1.3957  0.3481
17787TIP3   OH274775   0.513   4.154   5.629  0.0084 -0.0732  0.2127
17787TIP3    H174776   0.528   4.232   5.682  0.8924 -0.3785  0.4358
17787TIP3    H274777   0.512   4.186   5.539  0.3551  0.2062  0.3037
17788TIP3   OH274778   6.142   0.889  12.294  0.0751 -0.0724  0.3824
17788TIP3    H174779   6.180   0.886  12.206  2.2462 -1.2353  1.2774
17788TIP3    H274780   6.139   0.797  12.322 -2.2772  0.0877  0.9044
17789TIP3   OH274781   6.696   6.521   3.693 -0.9743 -0.6382  0.4466
17789TIP3    H174782   6.642   6.494   3.618 -0.8144 -0.0603  0.1132
17789TIP3    H274783   6.633   6.549   3.759 -1.0946 -0.2158  0.1578
17790TIP3   OH274784   5.041   0.071  13.971  0.3972  0.6517 -0.7141
17790TIP3    H174785   4.969   0.021  14.011 -0.3509  0.8361 -1.7752
17790TIP3    H274786   5.053   0.147  14.028  1.2345 -0.4640  0.6672
17791TIP3   OH274787   5.837   4.482   3.283  0.0887 -0.1022  0.3170
17791TIP3    H174788   5.929   4.459   3.297  1.1127  1.0477 -3.3676
17791TIP3    H274789   5.832   4.575   3.306 -0.5370 -0.4737  1.7714
17792TIP3   OH274790   6.092   0.732  13.029 -0.3585 -0.4216 -0.1260
17792TIP3    H174791   6.146   0.653  13.024 -0.5343 -0.6511  1.1811
17792TIP3    H274792   6.116   0.773  13.112  0.6703  1.6389 -1.3481
17793TIP3   OH274793   2.030   6.481  10.881  0.0744  0.3423 -0.0071
17793TIP3    H174794   1.971   6.499  10.808 -0.7240 -0.8240  0.3132
17793TIP3    H274795   2.012   6.390  10.905  1.3895  0.2287  0.6802
17794TIP3   OH274796   4.509   6.449   4.473 -0.5819  0.1011 -0.4446
17794TIP3    H174797   4.529   6.534   4.514  1.2743 -1.3733  1.9452
17794TIP3    H274798   4.554   6.385   4.528  0.3428 -2.2529 -3.6669
17795TIP3   OH274799   4.174   5.730   2.996  0.2434  0.5692  0.5271
17795TIP3    H174800   4.113   5.658   3.008  0.7484 -0.0485 -0.4342
17795TIP3    H274801   4.142   5.800   3.053  0.1731 -0.6646  2.0398
17796TIP3   OH274802   1.983   1.734  17.245  0.3947 -0.1240 -0.2120
17796TIP3    H174803   1.948   1.699  17.327  0.5965 -0.1920 -0.1534
17796TIP3    H274804   1.934   1.689  17.176 -1.1322  1.3408 -0.1221
17797TIP3   OH274805   2.597   0.567  15.857  0.8179 -0.2647  0.0445
17797TIP3    H174806   2.518   0.610  15.823  0.5099  0.5011  1.5954
17797TIP3    H274807   2.664   0.584  15.792  0.0138  0.2288 -0.6805
17798TIP3   OH274808   2.625   1.222   0.829  0.0708  0.4554 -0.1361
17798TIP3    H174809   2.637   1.299   0.884 -0.6827 -0.3576  1.2380
17798TIP3    H274810   2.659   1.247   0.744  2.5791  1.3225  1.0319
17799TIP3   OH274811   5.519   2.605   3.802 -0.2087 -0.3410 -0.1812
17799TIP3    H174812   5.499   2.698   3.811  1.9077  0.3214 -1.5750
17799TIP3    H274813   5.443   2.560   3.839 -2.1205  1.9079 -1.1599
17800TIP3   OH274814   3.172   0.473   4.260 -0.2361 -0.2670 -0.0496
17800TIP3    H174815   3.198   0.484   4.169  0.7351 -0.0074  0.2467
17800TIP3    H274816   3.228   0.534   4.309 -0.6271 -0.5212  0.7374
17801TIP3   OH274817   4.035   4.790  16.815 -0.6659  0.0170 -0.3602
17801TIP3    H174818   3.983   4.717  16.782 -1.9499 -0.5942  2.6942
17801TIP3    H274819   4.099   4.750  16.874  2.1312  0.9505 -2.5529
17802TIP3   OH274820   3.101   6.327   3.424 -0.5884  0.0639  0.0157
17802TIP3    H174821   3.171   6.383   3.458 -0.3941 -1.2776  2.0113
17802TIP3    H274822   3.140   6.286   3.347  0.5566 -0.0286  0.6129
17803TIP3   OH274823   0.195   0.445   5.183  0.3109 -0.2191 -0.8211
17803TIP3    H174824   0.227   0.530   5.214  0.2195 -0.0686 -1.1451
17803TIP3    H274825   0.106   0.461   5.154  0.7924 -0.0911 -2.3152
17804TIP3   OH274826   2.775   2.017  10.844  0.1895  0.1161  0.1182
17804TIP3    H174827   2.851   2.071  10.862 -0.2298  0.9242 -0.4429
17804TIP3    H274828   2.700   2.076  10.854 -0.4762 -0.9286  1.7763
17805TIP3   OH274829   3.217   0.511  16.774  0.3192  0.4881 -0.4055
17805TIP3    H174830   3.282   0.445  16.798  0.3539  0.5952 -0.2013
17805TIP3    H274831   3.231   0.525  16.680  1.7370  1.7411 -0.0499
17806TIP3   OH274832   2.084   1.615   3.324 -0.5714  0.4794 -0.6704
17806TIP3    H174833   2.079   1.562   3.404 -0.6327  0.5867 -0.6027
17806TIP3    H274834   2.178   1.621   3.305 -0.5383  0.7225 -0.4263
17807TIP3   OH274835   3.431   4.945   0.668  0.2048  0.1667 -0.5370
17807TIP3    H174836   3.457   4.983   0.584  1.1203  0.6667 -0.0519
17807TIP3    H274837   3.421   5.020   0.726  1.3101 -0.2695  0.2496
17808TIP3   OH274838   4.730   4.478   5.189 -0.0183 -0.3764  0.0773
17808TIP3    H174839   4.692   4.501   5.274  0.7020 -1.2740  0.6482
17808TIP3    H274840   4.813   4.526   5.186 -0.8174  1.0220 -0.8726
17809TIP3   OH274841   0.120   4.516  17.073  0.2413 -0.1118 -0.3712
17809TIP3    H174842   0.142   4.589  17.015 -0.0169 -0.5085 -0.9737
17809TIP3    H274843   0.198   4.461  17.073  0.1651 -0.2212 -0.5146
17810TIP3   OH274844   3.996   3.434   3.057  0.2512  0.3735 -0.0321
17810TIP3    H174845   4.017   3.469   2.971 -0.0569  1.4850  0.3302
17810TIP3    H274846   4.003   3.509   3.116 -1.1070 -0.0217  0.6635
17811TIP3   OH274847   1.062   3.423   3.337  0.2121 -0.3494 -1.0531
17811TIP3    H174848   1.099   3.500   3.294  0.8698 -0.2412 -0.3086
17811TIP3    H274849   1.068   3.354   3.270  0.0182  0.1280 -1.5755
17812TIP3   OH274850   2.129   4.466  11.889  0.9496 -0.7657  0.6902
17812TIP3    H174851   2.121   4.491  11.981  0.4022  2.1398 -0.0230
17812TIP3    H274852   2.214   4.500  11.862  0.4426 -0.1563 -0.2230
17813TIP3   OH274853   0.751   6.556   3.837  0.4939 -0.1288  0.5608
17813TIP3    H174854   0.841   6.541   3.866  0.6506  0.4931  0.4073
17813TIP3    H274855   0.713   6.468   3.830  0.5712 -0.3418  2.2638
17814TIP3   OH274856   5.716   2.599  12.418 -0.4760  0.9302 -0.6300
17814TIP3    H174857   5.772   2.640  12.483 -1.5085  2.7833 -0.8466
17814TIP3    H274858   5.764   2.521  12.390 -0.1005 -0.0838  2.4914
17815TIP3   OH274859   5.767   1.019  16.150  0.0215  0.3961  0.6329
17815TIP3    H174860   5.796   1.082  16.216  0.2799 -0.5209  1.4153
17815TIP3    H274861   5.756   0.937  16.199 -2.1119  0.2597  0.0286
17816TIP3   OH274862   4.423   4.271  13.764 -0.7468 -0.3712 -0.0209
17816TIP3    H174863   4.423   4.297  13.857  1.8773  0.9101 -0.2892
17816TIP3    H274864   4.491   4.325  13.724  0.0761 -2.8079 -2.1592
17817TIP3   OH274865   6.409   3.586   1.723 -0.1283  0.4777  0.1747
17817TIP3    H174866   6.460   3.505   1.726 -0.5718  0.1761 -0.2346
17817TIP3    H274867   6.395   3.609   1.815 -0.4668 -0.2078  0.2994
17818TIP3   OH274868   2.003   0.920   0.290 -0.0158  0.3871 -0.0728
17818TIP3    H174869   2.017   0.831   0.256 -0.4672  0.1080  0.4444
17818TIP3    H274870   2.019   0.912   0.384 -0.5657  0.7334  0.0528
17819TIP3   OH274871   0.948   5.581  16.022  0.2416  0.3650  0.1879
17819TIP3    H174872   1.027   5.527  16.021 -0.5092 -0.8137  1.8314
17819TIP3    H274873   0.912   5.570  16.109 -2.1437  0.3212 -0.7439
17820TIP3   OH274874   3.637   6.206  15.876 -0.4046  0.1563  0.0241
17820TIP3    H174875   3.684   6.160  15.945  1.0485 -1.6477 -2.0170
17820TIP3    H274876   3.608   6.288  15.916  0.8863 -0.5407  2.5458
17821TIP3   OH274877   4.016   5.282   2.169 -0.1753  0.0032  0.0113
17821TIP3    H174878   3.922   5.264   2.173  0.0061 -0.9032  0.4706
17821TIP3    H274879   4.057   5.195   2.172  0.7929  0.4035  3.7387
17822TIP3   OH274880   1.641   0.480  12.422 -0.0273 -0.4565  0.1272
17822TIP3    H174881   1.652   0.574  12.414  2.1202 -0.6580  0.1105
17822TIP3    H274882   1.577   0.458  12.355 -0.7492  1.0031  0.2994
17823TIP3   OH274883   4.381   1.194  16.550 -0.4422  0.4444  0.0473
17823TIP3    H174884   4.318   1.246  16.599 -0.3520  0.0079  0.6329
17823TIP3    H274885   4.442   1.160  16.616 -0.0300  0.2549 -0.4196
17824TIP3   OH274886   4.853   5.641  14.678 -0.4158 -0.4384 -0.1755
17824TIP3    H174887   4.802   5.717  14.705 -1.3861 -1.4556  0.9471
17824TIP3    H274888   4.796   5.566  14.695  1.0567 -1.5396  0.1196
17825TIP3   OH274889   5.559   3.680   3.464 -0.3305  0.5230  0.2943
17825TIP3    H174890   5.539   3.587   3.469 -1.6424  0.4485 -3.1381
17825TIP3    H274891   5.556   3.710   3.554 -5.2506 -1.7858  1.2751
17826TIP3   OH274892   3.637   1.036  17.179  0.5103 -0.0314  0.2703
17826TIP3    H174893   3.703   1.025  17.111 -0.9544 -1.3825 -1.0075
17826TIP3    H274894   3.603   0.948  17.195 -0.5180  0.5271  1.3672
17827TIP3   OH274895   4.761   6.047  11.585 -0.5612  0.2623 -0.4226
17827TIP3    H174896   4.779   6.132  11.547  0.6778 -0.1012 -0.6964
17827TIP3    H274897   4.738   5.991  11.511 -0.8592  0.2221 -0.3030
17828TIP3   OH274898   4.941   0.606  16.177 -0.1300 -0.8719 -0.6525
17828TIP3    H174899   5.034   0.586  16.175 -0.1304 -0.9175 -0.2559
17828TIP3    H274900   4.918   0.609  16.270 -0.5539 -1.0025 -0.7467
17829TIP3   OH274901   3.203   3.552  15.113 -0.3778 -0.2074 -0.7091
17829TIP3    H174902   3.250   3.634  15.126 -1.8526  0.5670 -0.0216
17829TIP3    H274903   3.271   3.486  15.108  0.8457  1.0481 -1.2658
17830TIP3   OH274904   4.980   5.691   0.179  0.2145  0.2565 -0.3361
17830TIP3    H174905   5.047   5.717   0.115  0.3782 -2.0218 -1.1756
17830TIP3    H274906   4.994   5.750   0.253  4.0059 -0.9032  0.0596
17831TIP3   OH274907   2.421   3.092  13.251  0.3934  0.0598  0.3704
17831TIP3    H174908   2.467   3.112  13.170 -0.8309 -0.5158 -0.4969
17831TIP3    H274909   2.400   3.178  13.289  1.8324  0.3286  0.6108
17832TIP3   OH274910   0.825   6.124  15.805  0.5750  0.7411 -0.0302
17832TIP3    H174911   0.770   6.067  15.752  1.0940  1.9252 -1.9172
17832TIP3    H274912   0.777   6.132  15.888 -0.5983 -0.6072 -0.5320
17833TIP3   OH274913   3.752   4.986   2.057 -0.5791 -0.5752  0.2654
17833TIP3    H174914   3.668   4.942   2.043 -0.4039 -0.7834 -0.1534
17833TIP3    H274915   3.789   4.943   2.134 -0.3508 -1.2704 -0.2194
17834TIP3   OH274916   6.524   6.217  14.608 -0.0288  0.1683  0.0315
17834TIP3    H174917   6.499   6.246  14.520  0.8413 -1.1868 -0.6903
17834TIP3    H274918   6.466   6.267  14.666  0.3658  2.1926 -1.1911
17835TIP3   OH274919   1.573   3.249  11.602 -0.5165  0.2628  0.1230
17835TIP3    H174920   1.593   3.337  11.573 -0.6752  0.0494 -0.6564
17835TIP3    H274921   1.584   3.252  11.697 -0.3774  1.0774  0.0886
17836TIP3   OH274922   0.824   3.078  15.301  0.4632 -0.2784  0.2402
17836TIP3    H174923   0.884   3.070  15.227 -1.2817  0.3478 -1.3147
17836TIP3    H274924   0.770   3.154  15.281 -0.1118 -0.1208  2.1561
17837TIP3   OH274925   3.772   3.735  15.631  0.6723  0.1119 -0.6087
17837TIP3    H174926   3.719   3.783  15.693 -0.7592 -0.7190 -1.1482
17837TIP3    H274927   3.721   3.735  15.550  1.2438 -1.1577 -0.9951
17838TIP3   OH274928   5.909   2.884   1.338  0.8082  0.2907  1.4571
17838TIP3    H174929   5.925   2.975   1.362  1.3098  0.8160 -0.5937
17838TIP3    H274930   5.957   2.873   1.255 -2.3919 -0.6742 -0.4337
17839TIP3   OH274931   1.632   2.777   5.142 -0.6969  0.1152  0.0757
17839TIP3    H174932   1.541   2.774   5.170 -1.2479  0.1621 -1.5984
17839TIP3    H274933   1.641   2.702   5.083  0.4486 -0.0586  0.4394
17840TIP3   OH274934   3.638   5.647   3.705 -0.0676 -0.3393 -0.4717
17840TIP3    H174935   3.617   5.561   3.743  2.3750 -0.0130  1.9687
17840TIP3    H274936   3.732   5.641   3.685  0.0817  1.6524 -0.5487
17841TIP3   OH274937   4.354   4.764  12.989 -0.1603 -0.6121 -0.0351
17841TIP3    H174938   4.283   4.827  12.978 -2.4093 -3.0501 -0.5722
17841TIP3    H274939   4.339   4.725  13.075  0.5091 -1.1870 -0.1666
17842TIP3   OH274940   1.415   1.114   3.513  0.0268 -0.3630 -0.3086
17842TIP3    H174941   1.370   1.189   3.552  1.0518 -0.0746  0.3468
17842TIP3    H274942   1.365   1.095   3.434  0.6460  1.9982 -1.3486
17843TIP3   OH274943   2.010   2.450  12.013 -0.3840  0.3428 -0.2885
17843TIP3    H174944   1.959   2.474  11.936  0.6039  0.1714 -1.0249
17843TIP3    H274945   2.060   2.529  12.034 -1.1263  0.5979  0.5924
17844TIP3   OH274946   4.775   3.477   2.592  0.8278  0.1350  0.2865
17844TIP3    H174947   4.761   3.519   2.677  2.2879 -0.0970  0.6614
17844TIP3    H274948   4.852   3.422   2.605  2.3318  1.6392 -1.7203
17845TIP3   OH274949   0.372   6.143   3.109  0.3773 -0.5204 -0.0545
17845TIP3    H174950   0.334   6.145   3.197  1.6266 -0.6885  0.5048
17845TIP3    H274951   0.345   6.226   3.069  1.5943  0.5601  1.2804
17846TIP3   OH274952   1.307   0.593  11.391 -0.2069  0.1360 -0.2641
17846TIP3    H174953   1.359   0.527  11.437 -0.8366  0.4147  0.8876
17846TIP3    H274954   1.269   0.546  11.317 -0.0525 -0.6087  0.1208
17847TIP3   OH274955   1.426   4.235   2.918 -0.5590  0.0540 -0.6304
17847TIP3    H174956   1.444   4.329   2.915  0.6865 -0.1415 -0.2178
17847TIP3    H274957   1.455   4.209   3.006 -1.0061 -0.6914 -0.7036
17848TIP3   OH274958   5.418   1.548   3.940 -0.5891 -0.9903 -0.3042
17848TIP3    H174959   5.472   1.479   3.980 -1.2963 -2.3076 -1.5157
17848TIP3    H274960   5.335   1.505   3.920 -0.9052  0.1018 -1.4740
17849TIP3   OH274961   0.467   4.363   1.329 -0.0176  0.2649  0.2564
17849TIP3    H174962   0.519   4.374   1.409  1.0580 -0.6249 -0.2811
17849TIP3    H274963   0.528   4.384   1.259 -1.3472  2.4604 -0.3387
17850TIP3   OH274964   0.927   0.729   6.029  0.0990  0.1693 -0.1822
17850TIP3    H174965   0.911   0.800   6.092 -0.9834 -0.8356  0.7165
17850TIP3    H274966   1.013   0.750   5.991 -0.4297  2.2403 -0.3507
17851TIP3   OH274967   1.594   0.176   5.164  0.0740 -0.2526 -0.4465
17851TIP3    H174968   1.669   0.232   5.185 -0.8347  2.0874 -2.8405
17851TIP3    H274969   1.519   0.221   5.204 -0.2409 -2.0067  1.0484
17852TIP3   OH274970   0.096   5.822  16.060  0.0062  0.0866  0.0729
17852TIP3    H174971   0.153   5.761  16.107  0.7937 -0.7411 -1.8362
17852TIP3    H274972   0.156   5.880  16.013 -0.5726 -1.2447 -2.5462
17853TIP3   OH274973   0.020   4.509  12.621  0.8818  0.5443 -0.4841
17853TIP3    H174974   0.012   4.502  12.526 -2.3377 -1.4056 -0.2269
17853TIP3    H274975   0.060   4.427  12.648  0.7477  0.6046 -0.0900
17854TIP3   OH274976   2.222   1.884   3.979 -0.1854 -0.9560 -0.6270
17854TIP3    H174977   2.223   1.788   3.982 -2.2023 -1.0837 -2.0037
17854TIP3    H274978   2.157   1.909   4.045  0.4245 -0.4927 -0.1839
17855TIP3   OH274979   2.944   6.454   1.941  0.2262 -0.0153 -0.8672
17855TIP3    H174980   2.870   6.436   1.883 -0.7493  1.3511 -0.1031
17855TIP3    H274981   2.911   6.431   2.028  0.2693  1.7125 -0.3673
17856TIP3   OH274982   1.465   4.026  12.062 -0.5330  0.1918 -0.1828
17856TIP3    H174983   1.467   3.947  12.116  0.4939  0.6820  0.5409
17856TIP3    H274984   1.534   4.011  11.997  1.4195  1.4436  1.4502
17857TIP3   OH274985   6.314   1.094  13.651  0.6388 -0.4555  0.5953
17857TIP3    H174986   6.389   1.068  13.704  1.3644  1.7217  0.7287
17857TIP3    H274987   6.245   1.115  13.715  1.8762  3.3143  0.9594
17858TIP3   OH274988   0.616   1.342   0.183  0.6307 -0.1750 -0.2860
17858TIP3    H174989   0.707   1.341   0.156  0.4095  1.0603 -1.1970
17858TIP3    H274990   0.585   1.430   0.160  0.3223  0.9763  3.8189
17859TIP3   OH274991   4.772   3.252   5.645 -0.3846  0.0350 -0.5831
17859TIP3    H174992   4.713   3.188   5.606 -0.1076 -0.0505 -0.8593
17859TIP3    H274993   4.740   3.262   5.735  1.1778 -2.5240  0.3592
17860TIP3   OH274994   3.930   5.173  12.785  0.2255  0.0378 -0.1308
17860TIP3    H174995   3.875   5.162  12.707 -0.2285  1.6623 -0.0846
17860TIP3    H274996   4.007   5.220  12.752  0.4387 -0.0519  0.2449
17861TIP3   OH274997   0.311   4.444   4.653 -0.4258 -0.2796  0.0297
17861TIP3    H174998   0.251   4.511   4.618 -0.5859 -0.3989  0.0756
17861TIP3    H274999   0.389   4.452   4.598  0.3328  1.2595  1.2549
17862TIP3   OH275000   6.600   0.141  15.369  0.1689  0.3526 -0.1454
17862TIP3    H175001   6.624   0.055  15.403 -1.2481 -0.5068 -1.1799
17862TIP3    H275002   6.639   0.144  15.282 -0.3071  0.4841 -0.3599
17863TIP3   OH275003   2.100   4.052  16.815 -0.0853 -0.3967  0.2105
17863TIP3    H175004   2.136   4.026  16.730  0.0787 -0.8699  0.4232
17863TIP3    H275005   2.005   4.054  16.801 -0.0345 -0.0978 -0.0870
17864TIP3   OH275006   4.085   5.266  11.590 -0.0870  0.1349 -0.0771
17864TIP3    H175007   4.084   5.301  11.501  1.9477 -1.8186 -0.9621
17864TIP3    H275008   4.036   5.184  11.584  0.7834 -0.4327  0.3864
17865TIP3   OH275009   2.269   4.911   1.193  0.7430 -0.2501  0.0829
17865TIP3    H175010   2.215   4.941   1.266  0.7458  0.2462 -0.1162
17865TIP3    H275011   2.356   4.945   1.212  1.1618 -1.6616  0.7728
17866TIP3   OH275012   6.118   5.101  16.573  0.2028 -0.0618 -0.8594
17866TIP3    H175013   6.059   5.083  16.499 -1.0576 -0.7936  0.2657
17866TIP3    H275014   6.115   5.021  16.625 -0.0820  0.9388  0.7185
17867TIP3   OH275015   0.410   4.376   3.554 -0.2460 -0.1907  0.3622
17867TIP3    H175016   0.481   4.370   3.490  0.3514 -0.5250  1.0415
17867TIP3    H275017   0.332   4.393   3.501  0.3953  0.6175 -0.3708
17868TIP3   OH275018   3.175   6.555   1.780 -0.0640 -0.4969 -0.7973
17868TIP3    H175019   3.107   6.539   1.845  0.5366  1.3164  0.3402
17868TIP3    H275020   3.235   6.481   1.789 -0.1028 -0.3811  0.5987
17869TIP3   OH275021   1.963   4.815   3.283  0.0210  0.0133  0.3006
17869TIP3    H175022   1.940   4.908   3.289  0.4394  0.0761  1.0025
17869TIP3    H275023   2.020   4.799   3.358 -1.2732 -1.1718  1.0960
17870TIP3   OH275024   4.909   2.326   2.577  0.1496  0.3426  0.4421
17870TIP3    H175025   4.819   2.346   2.600 -0.0159  0.2817 -0.1244
17870TIP3    H275026   4.927   2.243   2.621  0.1657  0.6983  1.1239
17871TIP3   OH275027   3.346   1.951   3.734  0.3816 -0.0446 -0.1581
17871TIP3    H175028   3.391   1.897   3.669 -0.2896 -0.1417 -0.5473
17871TIP3    H275029   3.384   1.924   3.817 -2.1734 -3.5620  0.0968
17872TIP3   OH275030   4.638   2.075  11.481 -0.4285 -0.3874  0.2402
17872TIP3    H175031   4.673   2.134  11.548 -2.0579  0.4828  0.3613
17872TIP3    H275032   4.573   2.022  11.527 -0.3964 -0.9164 -0.3118
17873TIP3   OH275033   2.257   0.868  14.216  0.0802 -0.2616 -0.2823
17873TIP3    H175034   2.294   0.913  14.293  0.4223 -0.0926 -0.5445
17873TIP3    H275035   2.252   0.936  14.149 -0.9982 -0.2036 -0.1628
17874TIP3   OH275036   4.019   2.501  16.737  0.2883 -0.3221 -0.4437
17874TIP3    H175037   4.012   2.563  16.665  1.0575 -0.1328 -0.3693
17874TIP3    H275038   4.055   2.421  16.697 -3.0009 -1.6690 -1.0507
17875TIP3   OH275039   0.397   1.175  16.360 -0.3300 -0.5603 -0.1328
17875TIP3    H175040   0.413   1.195  16.268 -1.0154 -0.6205 -0.2739
17875TIP3    H275041   0.377   1.081  16.361 -1.8195 -0.2729 -0.1510
17876TIP3   OH275042   4.431   0.963  12.875 -0.4110 -0.4662  0.0990
17876TIP3    H175043   4.349   0.914  12.878 -0.0350 -1.0524  1.1330
17876TIP3    H275044   4.499   0.897  12.886  0.4264 -0.4394 -3.4741
17877TIP3   OH275045   0.976   0.931  13.065  0.2551  0.1448  0.4211
17877TIP3    H175046   0.963   0.980  12.984 -0.4952 -2.0165 -0.8436
17877TIP3    H275047   0.908   0.963  13.124 -1.0048 -0.1878 -0.7975
17878TIP3   OH275048   5.381   0.123  17.226  0.1473  1.0822 -0.0179
17878TIP3    H175049   5.375   0.155  17.136  1.8707  1.3245 -0.0919
17878TIP3    H275050   5.390   0.028  17.217 -1.0426  0.9552 -0.0091
17879TIP3   OH275051   6.710   5.833  11.931 -0.3338 -0.6280  0.0456
17879TIP3    H175052   6.648   5.879  11.875 -1.8024 -0.0893  1.9939
17879TIP3    H275053   6.658   5.763  11.971 -0.1639  0.6597  2.7667
17880TIP3   OH275054   2.750   2.692   4.688 -0.0493  0.6359 -0.4645
17880TIP3    H175055   2.741   2.681   4.783  2.3902 -0.8913 -0.3197
17880TIP3    H275056   2.793   2.777   4.677  1.2281  0.0707 -0.0413
17881TIP3   OH275057   3.062   3.409  16.540  0.1579  0.2383  0.2459
17881TIP3    H175058   3.070   3.368  16.626 -0.5437 -1.4654 -0.4545
17881TIP3    H275059   2.980   3.458  16.544 -1.5576 -2.4041 -0.3846
17882TIP3   OH275060   3.314   4.225   1.917 -0.3521  0.4121  0.1415
17882TIP3    H175061   3.252   4.260   1.980 -1.6209  1.3714 -1.5512
17882TIP3    H275062   3.369   4.300   1.893  0.5022 -0.0796  0.5213
17883TIP3   OH275063   6.576   3.877   4.282 -0.3338  0.2042  0.0992
17883TIP3    H175064   6.651   3.818   4.287 -0.3714  0.1066 -0.4443
17883TIP3    H275065   6.573   3.919   4.368  1.0290  1.0422 -0.2225
17884TIP3   OH275066   1.851   0.157   0.980 -0.5162 -0.0331 -0.0311
17884TIP3    H175067   1.930   0.125   0.937 -0.5442  0.6840 -0.6332
17884TIP3    H275068   1.784   0.092   0.959 -0.5195  0.2816 -1.0535
17885TIP3   OH275069   3.369   1.784  15.043 -0.5301 -0.1408  0.4359
17885TIP3    H175070   3.275   1.763  15.048 -0.2311 -1.4453  0.7192
17885TIP3    H275071   3.385   1.840  15.120 -1.3500  1.2955 -0.3831
17886TIP3   OH275072   2.270   1.293   4.820 -0.1948 -0.3301  0.2124
17886TIP3    H175073   2.283   1.218   4.877 -1.7577 -1.2216 -0.5425
17886TIP3    H275074   2.175   1.306   4.817 -0.1250  0.1173 -1.6024
17887TIP3   OH275075   2.852   1.367  16.329 -0.7045  0.2456  0.3964
17887TIP3    H175076   2.861   1.462  16.322  0.0803  0.2732  1.4344
17887TIP3    H275077   2.800   1.341  16.253 -1.8021  1.6307  0.6392
17888TIP3   OH275078   2.230   2.349   0.206  0.0807 -0.3003 -0.0556
17888TIP3    H175079   2.315   2.311   0.185 -0.8508 -1.9836 -1.0084
17888TIP3    H275080   2.167   2.283   0.178 -1.6607  1.8466 -1.5331
17889TIP3   OH275081   3.682   1.255  13.122  0.1496 -0.1056  0.2058
17889TIP3    H175082   3.733   1.247  13.042  0.1261 -0.1418  0.1945
17889TIP3    H275083   3.630   1.335  13.109  1.2479  0.7303  0.7993
17890TIP3   OH275084   5.193   1.871  16.612  0.2475  0.0843  0.6018
17890TIP3    H175085   5.129   1.891  16.680  0.0910  0.9420  0.2237
17890TIP3    H275086   5.252   1.947  16.612 -0.5145  0.7416 -1.0681
17891TIP3   OH275087   0.512   6.631   5.677 -0.3590 -0.6326  0.0699
17891TIP3    H175088   0.424   6.623   5.640 -0.0464 -2.3774 -0.4019
17891TIP3    H275089   0.515   6.566   5.747  0.2900 -0.0090  0.6402
17892TIP3   OH275090   4.238   2.675   5.583 -0.1988  0.1241  0.3277
17892TIP3    H175091   4.305   2.709   5.524  0.3734 -0.3703  0.6756
17892TIP3    H275092   4.169   2.741   5.582  0.6170  0.9930  0.5146
17893TIP3   OH275093   5.446   4.227   3.652 -0.3125 -0.0029 -0.0257
17893TIP3    H175094   5.475   4.209   3.741 -0.1895  0.7552  0.0929
17893TIP3    H275095   5.424   4.141   3.616 -0.4626 -0.3028  0.7672
17894TIP3   OH275096   1.784   1.229  15.914  0.1991 -0.6122 -0.0440
17894TIP3    H175097   1.830   1.192  15.989 -0.7395 -2.2798 -0.2339
17894TIP3    H275098   1.769   1.155  15.855 -0.8839  0.2610 -0.9382
17895TIP3   OH275099   5.578   4.718  16.367  0.1372 -0.4817  0.7364
17895TIP3    H175100   5.671   4.702  16.352  0.4055  1.4522  0.0861
17895TIP3    H275101   5.558   4.673  16.449  1.7124 -0.6400  1.0495
17896TIP3   OH275102   3.365   1.726  14.474 -0.1621 -0.6717 -0.2551
17896TIP3    H175103   3.284   1.728  14.423 -0.0335 -0.0992 -0.4398
17896TIP3    H275104   3.337   1.743  14.564 -0.0681  1.1899 -0.5562
17897TIP3   OH275105   6.538   0.581  15.760 -0.3793  0.5130  0.8771
17897TIP3    H175106   6.541   0.585  15.664  0.1547  0.9258  0.9093
17897TIP3    H275107   6.532   0.672  15.788 -0.6287  0.3881  1.2355
17898TIP3   OH275108   5.759   4.986  16.730 -0.3020  0.1724  0.0972
17898TIP3    H175109   5.695   5.057  16.724 -1.4538 -0.5061  2.7365
17898TIP3    H275110   5.836   5.025  16.772 -0.2370  0.2825 -0.1282
17899TIP3   OH275111   4.957   1.568   1.057 -0.3408 -0.5976  0.3514
17899TIP3    H175112   4.960   1.642   0.996  2.2968 -0.7109  0.2395
17899TIP3    H275113   4.949   1.491   1.001  2.8679 -0.7677 -0.0683
17900TIP3   OH275114   4.653   1.280   6.346 -0.5381  0.1394 -0.1989
17900TIP3    H175115   4.641   1.194   6.385 -1.3647 -0.2257 -1.2248
17900TIP3    H275116   4.566   1.307   6.320 -0.3123  1.3653  0.2399
17901TIP3   OH275117   4.889   1.119   0.240  0.2809 -0.3129 -0.5848
17901TIP3    H175118   4.812   1.148   0.291  1.2756 -1.2684  1.5945
17901TIP3    H275119   4.853   1.062   0.173 -0.9515 -0.7537  0.3984
17902TIP3   OH275120   0.754   0.434  14.796  0.2369  0.3108  0.0500
17902TIP3    H175121   0.699   0.472  14.864 -1.1495  1.9209 -1.8618
17902TIP3    H275122   0.830   0.493  14.791  0.3994  0.1219  0.2795
17903TIP3   OH275123   6.201   4.153   0.924 -0.4629  0.3823  0.1096
17903TIP3    H175124   6.249   4.232   0.899 -0.6897  0.8352  1.0657
17903TIP3    H275125   6.175   4.168   1.015 -1.7741 -0.1651 -0.1445
17904TIP3   OH275126   0.597   4.506  16.157 -0.0122  0.5076  0.2865
17904TIP3    H175127   0.606   4.596  16.187 -0.5562 -0.4821  4.0066
17904TIP3    H275128   0.618   4.453  16.234 -1.3755 -2.5105 -1.2318
17905TIP3   OH275129   3.471   6.616  13.115 -0.4939  0.0791 -0.1842
17905TIP3    H175130   3.510   6.687  13.064  0.1310  0.3627  0.6758
17905TIP3    H275131   3.403   6.581  13.058  1.6925 -1.1622 -2.1832
17906TIP3   OH275132   5.735   4.448  16.083  0.3744 -0.8415  0.4127
17906TIP3    H175133   5.759   4.541  16.085  0.2586 -0.7009 -1.9186
17906TIP3    H275134   5.646   4.446  16.119  0.5623 -0.1477  0.9640
17907TIP3   OH275135   5.570   1.398   4.843 -0.4813 -0.0096 -0.1581
17907TIP3    H175136   5.549   1.412   4.750  1.2213  2.9231 -0.2323
17907TIP3    H275137   5.653   1.351   4.841 -0.4398  0.0622 -0.1483
17908TIP3   OH275138   1.130   6.549  13.374 -0.3105  0.4227 -0.1328
17908TIP3    H175139   1.121   6.624  13.432 -0.5543  2.0972 -2.2045
17908TIP3    H275140   1.046   6.505  13.378 -1.2040  1.9640 -1.0322
17909TIP3   OH275141   0.148   2.085  13.902 -0.0679 -0.2538  0.1071
17909TIP3    H175142   0.217   2.046  13.849 -0.4949  0.4994 -1.0339
17909TIP3    H275143   0.189   2.100  13.987  1.0236 -0.2816 -0.4018
17910TIP3   OH275144   3.864   0.926   0.089  0.1830  0.8433 -0.7220
17910TIP3    H175145   3.834   0.837   0.069 -1.5094  1.4898 -1.1579
17910TIP3    H275146   3.938   0.939   0.030  1.1466 -0.6288  0.0849
17911TIP3   OH275147   4.206   3.505   0.322  0.2806  0.2177 -0.5830
17911TIP3    H175148   4.195   3.426   0.269 -0.4153 -0.0695 -0.0162
17911TIP3    H275149   4.137   3.564   0.292 -1.7180 -0.8365  1.5916
17912TIP3   OH275150   5.861   6.169   4.656 -0.4240 -0.3238  0.3735
17912TIP3    H175151   5.915   6.142   4.582  2.0217  0.7019  1.6654
17912TIP3    H275152   5.836   6.086   4.697  1.5889 -0.8661  0.6376
17913TIP3   OH275153   3.741   2.686  17.181  0.3241 -0.3193 -0.3117
17913TIP3    H175154   3.734   2.591  17.192  1.9509 -0.4920 -0.5731
17913TIP3    H275155   3.813   2.698  17.120  0.3605  1.1093 -0.0244
17914TIP3   OH275156   5.426   6.244  13.427 -0.2625 -0.5557  0.1246
17914TIP3    H175157   5.447   6.278  13.340 -1.0559 -0.4167 -0.0221
17914TIP3    H275158   5.377   6.164  13.410 -0.8621 -0.2605  0.4330
17915TIP3   OH275159   2.427   0.945  15.177  0.3441  0.1877 -0.2163
17915TIP3    H175160   2.455   0.882  15.243  1.9943  0.8689 -0.2314
17915TIP3    H275161   2.387   1.017  15.226 -0.0316 -0.0968 -0.0970
17916TIP3   OH275162   0.947   4.236  11.885 -0.6373 -0.0256  0.0847
17916TIP3    H175163   0.872   4.177  11.899  0.9775 -1.7585  2.1196
17916TIP3    H275164   0.926   4.314  11.937 -1.3221 -0.1897  0.0615
17917TIP3   OH275165   1.526   2.624   2.356 -0.5194 -0.2381  1.1421
17917TIP3    H175166   1.561   2.543   2.319 -0.6579  0.1707  0.0910
17917TIP3    H275167   1.487   2.597   2.439 -0.9210 -1.3246  0.6262
17918TIP3   OH275168   3.831   0.273   5.052 -0.2677 -0.0881 -0.8062
17918TIP3    H175169   3.893   0.345   5.066 -1.0583  0.2801  0.9462
17918TIP3    H275170   3.867   0.226   4.976  0.5046  1.8714 -1.7302
17919TIP3   OH275171   6.436   6.106  12.695 -0.1169  0.2897 -0.2083
17919TIP3    H175172   6.381   6.080  12.621 -0.1599  1.4561 -0.6054
17919TIP3    H275173   6.511   6.150  12.655  2.3859 -3.1872  0.1249
17920TIP3   OH275174   0.931   3.068  15.741  0.5152 -0.3221 -0.2803
17920TIP3    H175175   0.916   3.127  15.815  2.8450  0.2495 -0.1851
17920TIP3    H275176   0.854   3.011  15.740 -0.6620  1.1403  1.1308
17921TIP3   OH275177   3.250   2.860  14.590  0.1459  0.6862 -0.8544
17921TIP3    H175178   3.297   2.932  14.550  0.2798  0.8343 -0.4342
17921TIP3    H275179   3.229   2.890  14.678  1.1842 -0.1962 -0.2738
17922TIP3   OH275180   6.645   6.286   0.039 -0.1065  0.3974  0.1840
17922TIP3    H175181   6.616   6.195   0.044 -0.8979  0.6222 -0.1233
17922TIP3    H275182   6.575   6.331  -0.007  1.1958  0.7834 -1.5343
17923TIP3   OH275183   3.014   1.625   3.904 -0.1006  0.6042  0.1184
17923TIP3    H175184   2.944   1.572   3.943  0.7956 -0.7464 -0.0504
17923TIP3    H275185   3.065   1.656   3.979 -0.4332  0.9754  0.1972
17924TIP3   OH275186   2.838   1.936   2.882 -0.3725  0.3578  0.0528
17924TIP3    H175187   2.791   1.991   2.820  1.4695  2.1911  0.2008
17924TIP3    H275188   2.859   1.856   2.832 -1.6294  0.4504 -0.6698
17925TIP3   OH275189   6.233   3.785  13.833 -0.5812 -0.3017  0.4154
17925TIP3    H175190   6.230   3.732  13.913 -0.6833 -0.3919  0.3522
17925TIP3    H275191   6.170   3.855  13.848  0.3228  0.4312  0.9391
17926TIP3   OH275192   4.377   2.772  16.603  0.5590 -0.1282 -0.0130
17926TIP3    H175193   4.353   2.865  16.600  3.3323  0.7032 -0.2519
17926TIP3    H275194   4.415   2.759  16.690 -0.8177 -1.3826  0.4387
17927TIP3   OH275195   2.603   4.988  14.502 -0.5475 -0.3466  0.2949
17927TIP3    H175196   2.662   5.024  14.435  1.2565  0.3344  2.1632
17927TIP3    H275197   2.612   4.893  14.494  0.1120 -0.2610 -0.0337
17928TIP3   OH275198   5.507   1.399   1.563 -0.0573  0.3648 -0.5469
17928TIP3    H175199   5.574   1.334   1.583  1.3386  1.7707 -0.5600
17928TIP3    H275200   5.485   1.382   1.471  0.9994  0.5206 -0.8402
17929TIP3   OH275201   2.284   6.518  16.323  0.2338 -0.4974  0.1855
17929TIP3    H175202   2.266   6.438  16.372 -0.7667  0.5452  1.6170
17929TIP3    H275203   2.362   6.554  16.364  0.2913 -0.3979 -0.0085
17930TIP3   OH275204   6.049   0.372   0.612  0.4163  0.1109 -0.2445
17930TIP3    H175205   5.972   0.420   0.641 -0.9372 -1.1251 -1.5994
17930TIP3    H275206   6.123   0.428   0.637 -1.0211  2.7386 -1.4280
17931TIP3   OH275207   4.190   4.024   1.947  0.5133  0.0309 -0.1968
17931TIP3    H175208   4.251   4.009   1.873 -0.0723  0.0931 -0.6989
17931TIP3    H275209   4.145   3.940   1.958  0.2178  0.1791 -0.2642
17932TIP3   OH275210   4.159   3.123   5.608  0.4373  0.3920 -0.7431
17932TIP3    H175211   4.239   3.104   5.559  0.4223  0.8635 -0.9608
17932TIP3    H275212   4.171   3.077   5.691 -0.2844 -1.8492 -1.7994
17933TIP3   OH275213   0.217   2.089   3.974 -0.0140  0.1992 -0.2958
17933TIP3    H175214   0.175   2.171   4.000  1.8272  1.1419 -0.1386
17933TIP3    H275215   0.212   2.034   4.053  2.7644  1.8934  1.2189
17934TIP3   OH275216   4.589   0.031   5.405 -0.5342 -0.5882 -0.2362
17934TIP3    H175217   4.662   0.059   5.349 -1.1412 -0.2627 -0.8749
17934TIP3    H275218   4.588   0.094   5.476 -0.8153  0.0052 -0.7568
17935TIP3   OH275219   6.100   3.696   5.551  0.2226  0.4301 -0.2428
17935TIP3    H175220   6.005   3.703   5.561  0.0312 -0.8776 -1.0523
17935TIP3    H275221   6.131   3.669   5.637  0.0623  2.3447  0.4703
17936TIP3   OH275222   1.856   4.836   2.273  0.1463  0.3661 -0.2107
17936TIP3    H175223   1.850   4.829   2.368  1.7314 -1.2427 -0.1927
17936TIP3    H275224   1.766   4.823   2.242 -0.0295 -1.5087  0.9663
17937TIP3   OH275225   6.361   6.406  15.204 -0.3037 -0.0586  0.2019
17937TIP3    H175226   6.295   6.365  15.148 -1.7873 -1.3238  2.7428
17937TIP3    H275227   6.425   6.336  15.221  0.4088  0.4626 -0.2736
17938TIP3   OH275228   1.186   4.589   1.044  0.0290 -0.3267  0.0815
17938TIP3    H175229   1.100   4.551   1.025  0.4678 -0.9403 -0.7936
17938TIP3    H275230   1.239   4.564   0.968  0.0874  2.9823 -1.1093
17939TIP3   OH275231   3.701   0.317   5.476  0.4348  0.4507 -0.1173
17939TIP3    H175232   3.691   0.241   5.418  0.4356 -0.6598  1.2716
17939TIP3    H275233   3.778   0.363   5.442  0.2642  0.0079 -1.1565
17940TIP3   OH275234   5.825   4.535   0.392 -0.2194 -0.1348 -0.5816
17940TIP3    H175235   5.868   4.539   0.307  2.1279  1.0930  0.5557
17940TIP3    H275236   5.746   4.588   0.383 -1.2144 -1.8119 -2.5310
17941TIP3   OH275237   5.337   4.345  16.706  0.1718 -0.6138  0.0985
17941TIP3    H175238   5.269   4.356  16.772  0.7113  0.1917  0.5430
17941TIP3    H275239   5.401   4.287  16.747  1.4594  1.3961  1.0958
17942TIP3   OH275240   3.191   2.380   5.185  0.0662 -0.3483 -0.0840
17942TIP3    H175241   3.284   2.385   5.162  0.4681  1.9774  1.6728
17942TIP3    H275242   3.186   2.310   5.250  0.4740 -0.8813 -0.6194
17943TIP3   OH275243   1.440   3.953   6.236  0.3610 -0.0141  0.4502
17943TIP3    H175244   1.466   3.995   6.318  0.0041  0.2666  0.4248
17943TIP3    H275245   1.346   3.943   6.243  0.4807 -1.1745  0.6072
17944TIP3   OH275246   0.126   6.231  13.036 -0.2365 -0.5251 -0.2712
17944TIP3    H175247   0.116   6.241  13.130  2.3083  1.7247 -0.1159
17944TIP3    H275248   0.109   6.319  13.000  0.1502 -1.0213 -1.7665
17945TIP3   OH275249   5.194   1.943   0.272  0.5207  0.0990  0.3345
17945TIP3    H175250   5.133   1.994   0.325 -1.5154 -0.1093 -1.6729
17945TIP3    H275251   5.194   1.856   0.312 -0.5097  0.1066  0.3749
17946TIP3   OH275252   0.567   1.705   5.155  0.3377  0.0474 -0.1529
17946TIP3    H175253   0.611   1.714   5.071 -0.4477 -0.9571 -0.7002
17946TIP3    H275254   0.504   1.635   5.141 -0.6747  0.7159  0.9246
17947TIP3   OH275255   3.111   3.921   0.064 -0.4894  0.6521 -0.0756
17947TIP3    H175256   3.029   3.939   0.110 -0.0290  2.5419  0.0866
17947TIP3    H275257   3.102   3.967  -0.020 -0.7721 -1.6250 -1.3956
17948TIP3   OH275258   5.363   6.762   2.250 -0.0382  0.6563 -0.5752
17948TIP3    H175259   5.280   6.775   2.296 -1.4219 -0.8473 -2.4935
17948TIP3    H275260   5.424   6.731   2.318 -0.8308  2.3394  0.9759
17949TIP3   OH275261   0.040   3.836  15.594  0.2183  0.4058 -0.0878
17949TIP3    H175262   0.035   3.804  15.684 -2.6065  0.0103 -0.3177
17949TIP3    H275263   0.097   3.772  15.550  0.1273 -0.4544  0.9818
17950TIP3   OH275264   5.768   2.992  14.665 -0.2588  0.0578  0.1478
17950TIP3    H175265   5.673   2.985  14.657 -0.3364  0.2646  0.7645
17950TIP3    H275266   5.798   3.012  14.577 -0.5850 -1.9425 -0.4616
17951TIP3   OH275267   1.091   5.341   3.983  0.9185 -0.3720 -0.2674
17951TIP3    H175268   1.074   5.317   3.892  2.8704 -0.1627 -0.7457
17951TIP3    H275269   1.134   5.265   4.020  1.0329 -0.0890  0.1894
17952TIP3   OH275270   5.835   0.423   0.837 -0.3810 -0.2245 -0.6804
17952TIP3    H175271   5.783   0.347   0.812 -1.7729  0.5009 -0.0694
17952TIP3    H275272   5.771   0.488   0.865  0.5277  2.0366 -3.3073
17953TIP3   OH275273   2.998   5.222   1.279 -0.1323 -0.1443 -0.4301
17953TIP3    H175274   3.021   5.177   1.198 -0.9658 -0.6211 -0.4093
17953TIP3    H275275   2.964   5.154   1.336  1.5574 -0.0183  0.7759
17954TIP3   OH275276   1.570   4.641   0.187 -0.1244  0.0079 -0.4391
17954TIP3    H175277   1.509   4.607   0.121 -0.7250 -0.4321  0.3239
17954TIP3    H275278   1.640   4.682   0.136 -1.2109  0.8130 -1.3520
17955TIP3   OH275279   3.326   4.193  11.217  0.4223 -0.4504 -0.4142
17955TIP3    H175280   3.329   4.279  11.175 -1.7011  0.6570  1.4871
17955TIP3    H275281   3.242   4.157  11.192  0.7949 -1.4767 -0.2407
17956TIP3   OH275282   6.612   3.634  16.076 -0.1754  0.2829 -0.3218
17956TIP3    H175283   6.547   3.576  16.116 -2.0267  0.0462 -3.3524
17956TIP3    H275284   6.668   3.575  16.026  2.5246  0.4931  2.2227
17957TIP3   OH275285   4.355   5.361   6.632 -0.3762  0.6497 -0.0347
17957TIP3    H175286   4.436   5.347   6.584 -1.1321  0.6864 -1.3605
17957TIP3    H275287   4.358   5.453   6.659  0.2342  0.5209  0.3521
17958TIP3   OH275288   4.554   1.281  15.477  0.3580 -0.0103  0.5199
17958TIP3    H175289   4.601   1.340  15.537  1.4153  0.3986 -0.6746
17958TIP3    H275290   4.491   1.236  15.533  0.9277  0.7673  1.8397
17959TIP3   OH275291   2.788   5.980   4.230 -0.2990 -0.5680 -0.3887
17959TIP3    H175292   2.789   5.887   4.207  2.2531 -0.3042 -1.6740
17959TIP3    H275293   2.856   6.019   4.175 -1.1706  2.0470  0.2491
17960TIP3   OH275294   2.477   3.592   2.259 -0.0769 -0.1900  0.1042
17960TIP3    H175295   2.453   3.501   2.277  1.9447 -0.6839  0.5013
17960TIP3    H275296   2.521   3.590   2.174  0.2726  0.3668  0.2629
17961TIP3   OH275297   3.236   6.026   1.545  0.6596  0.2779  1.1547
17961TIP3    H175298   3.258   6.092   1.480 -0.6871 -0.1904  0.1628
17961TIP3    H275299   3.160   6.062   1.592 -0.4315 -0.7382  0.2408
17962TIP3   OH275300   3.339   0.097   0.367  0.0967  0.6166  0.0578
17962TIP3    H175301   3.249   0.090   0.337 -0.9374  0.9893  2.7927
17962TIP3    H275302   3.391   0.105   0.287 -2.1162 -1.0329 -1.6593
17963TIP3   OH275303   0.954   0.295  16.600 -0.5632  0.2809 -0.2331
17963TIP3    H175304   0.902   0.277  16.678 -3.9397  0.9213 -2.1328
17963TIP3    H275305   0.937   0.387  16.579  1.3266  0.5047 -1.0343
17964TIP3   OH275306   4.593   1.900  12.181 -0.2881 -0.3031 -0.1972
17964TIP3    H175307   4.641   1.825  12.216  1.1603  0.8508  0.4517
17964TIP3    H275308   4.659   1.948  12.130 -1.1700  0.5425 -0.5650
17965TIP3   OH275309   4.391   5.696   2.597  0.1757 -0.0306  0.1688
17965TIP3    H175310   4.428   5.622   2.549  0.4745  0.6756 -0.7247
17965TIP3    H275311   4.296   5.686   2.588  0.2201  0.7465 -1.6782
17966TIP3   OH275312   5.668   5.087  10.816 -0.0118 -0.1561  0.3633
17966TIP3    H175313   5.612   5.149  10.862  1.8444  1.2355  0.9026
17966TIP3    H275314   5.683   5.016  10.880  0.1208  0.2605  0.8005
17967TIP3   OH275315   4.626   3.723   4.504 -0.4238  0.1816 -0.4650
17967TIP3    H175316   4.659   3.782   4.572  1.7548  0.2965 -1.5497
17967TIP3    H275317   4.584   3.780   4.441  0.9652  0.5417 -1.1038
17968TIP3   OH275318   1.891   6.692  16.666 -0.3481 -0.2292 -0.0543
17968TIP3    H175319   1.848   6.607  16.665  0.4175 -0.6146 -1.4370
17968TIP3    H275320   1.973   6.679  16.618 -0.3842  1.3580 -0.6063
17969TIP3   OH275321   3.039   0.397  12.671 -0.3922 -0.0355 -0.6273
17969TIP3    H175322   2.979   0.366  12.604  0.3673  0.1999 -1.4379
17969TIP3    H275323   3.026   0.338  12.745 -2.3627  0.6397 -0.3745
17970TIP3   OH275324   0.746   6.474   3.372  0.2230  0.9549 -0.4653
17970TIP3    H175325   0.758   6.437   3.284  1.3597 -0.3315  0.1881
17970TIP3    H275326   0.653   6.460   3.391  0.5348 -1.4170 -0.3717
17971TIP3   OH275327   3.344   3.265  15.344 -0.2811 -0.1924 -0.0403
17971TIP3    H175328   3.273   3.252  15.281 -1.1451 -1.2184  1.1049
17971TIP3    H275329   3.313   3.225  15.425  1.1291  0.3889  0.8357
17972TIP3   OH275330   1.162   4.952   0.597  0.2210  0.4112 -0.2382
17972TIP3    H175331   1.129   4.928   0.684 -0.2593 -0.4159 -0.6308
17972TIP3    H275332   1.256   4.968   0.610  0.0470  0.8327  0.5283
17973TIP3   OH275333   3.056   3.432  12.511 -0.1728  0.3495  0.1834
17973TIP3    H175334   3.031   3.405  12.599 -0.8500 -0.8548 -0.3605
17973TIP3    H275335   3.019   3.520  12.501  0.4266  0.7475  1.2981
17974TIP3   OH275336   3.617   1.701   3.141 -0.2838  0.2801 -0.1801
17974TIP3    H175337   3.661   1.636   3.086 -0.0782 -0.1505  0.4782
17974TIP3    H275338   3.688   1.755   3.176 -0.3428  0.0632  0.2788
17975TIP3   OH275339   0.514   2.493   4.904  0.3049 -0.2168 -0.1258
17975TIP3    H175340   0.576   2.566   4.900 -0.3298  0.3115 -0.6545
17975TIP3    H275341   0.508   2.463   4.813  0.3200 -0.7266  0.0403
17976TIP3   OH275342   5.036   6.544   0.889 -0.5957  0.3071  0.2052
17976TIP3    H175343   5.114   6.599   0.894 -1.1625  1.2726 -0.8778
17976TIP3    H275344   4.997   6.566   0.804 -0.8512 -1.7943 -0.2669
17977TIP3   OH275345   0.878   2.562   4.580  0.2658 -0.2802  0.4577
17977TIP3    H175346   0.804   2.506   4.560  0.2015  0.1208 -0.4541
17977TIP3    H275347   0.955   2.509   4.557  0.2394 -0.3876  0.6145
17978TIP3   OH275348   5.647   3.393   2.455  0.1246 -0.3221 -0.0580
17978TIP3    H175349   5.554   3.373   2.468 -0.0557  0.1244 -0.5998
17978TIP3    H275350   5.692   3.313   2.480 -0.4580 -0.7925 -0.4719
17979TIP3   OH275351   1.242   1.752   4.185 -0.3070 -0.3458  0.1363
17979TIP3    H175352   1.214   1.680   4.241  0.1481  0.1600  1.0613
17979TIP3    H275353   1.177   1.821   4.201 -0.6244 -0.4755 -0.5821
17980TIP3   OH275354   3.985   5.705   0.427 -0.3993 -0.3012  0.1402
17980TIP3    H175355   3.955   5.718   0.517 -0.3796  0.1786  0.0782
17980TIP3    H275356   3.917   5.745   0.373  0.1768  0.4882 -0.0124
17981TIP3   OH275357   1.785   1.173  14.220  0.7363 -0.1832  0.9647
17981TIP3    H175358   1.737   1.225  14.284  3.2409  0.3327  2.5843
17981TIP3    H275359   1.848   1.123  14.273  1.7386 -1.0819 -0.9736
17982TIP3   OH275360   6.671   2.986  14.204 -0.2569 -0.8124 -0.1940
17982TIP3    H175361   6.755   3.030  14.214 -0.7421  0.3097 -0.9885
17982TIP3    H275362   6.690   2.909  14.150  0.3610 -0.9443  0.1952
17983TIP3   OH275363   3.375   2.565   0.055  0.4971 -0.6177 -0.4004
17983TIP3    H175364   3.327   2.537  -0.024  1.0063 -2.8630  0.0041
17983TIP3    H275365   3.347   2.655   0.069 -2.6158 -1.3627 -0.9423
17984TIP3   OH275366   2.440   4.648   4.653 -0.0550  0.5948  0.0157
17984TIP3    H175367   2.460   4.638   4.560  0.9522  3.7650 -0.2220
17984TIP3    H275368   2.362   4.595   4.667  1.1454 -1.9226 -2.0273
17985TIP3   OH275369   1.641   6.131   2.284 -0.0746 -0.3768  0.5061
17985TIP3    H175370   1.661   6.114   2.376 -1.3760  1.3644  1.1670
17985TIP3    H275371   1.565   6.075   2.266  1.8845 -2.9440 -0.4531
17986TIP3   OH275372   1.449   1.675   6.542  0.2118  0.4983 -0.4918
17986TIP3    H175373   1.412   1.617   6.608 -0.0580 -0.4456 -1.4376
17986TIP3    H275374   1.502   1.737   6.591 -0.2245  0.0081  0.6273
17987TIP3   OH275375   4.485   5.391  14.193 -1.1081  1.0026 -0.1822
17987TIP3    H175376   4.461   5.301  14.170 -0.7320  0.9369 -0.3348
17987TIP3    H275377   4.522   5.385  14.281  1.6080  0.5116 -1.2460
17988TIP3   OH275378   0.879   0.896   2.850  0.0176  0.0579 -0.0364
17988TIP3    H175379   0.915   0.913   2.937  2.1518 -0.8268 -0.6889
17988TIP3    H275380   0.805   0.837   2.865 -0.5219  1.0275  1.2677
17989TIP3   OH275381   5.980   0.938  13.818 -0.8198 -0.0655 -0.5467
17989TIP3    H175382   5.923   0.932  13.742 -2.8121  0.6218  0.8258
17989TIP3    H275383   6.005   1.031  13.821  0.9695 -0.4670 -1.4949
17990TIP3   OH275384   0.765   3.719  16.660  0.1598  0.2105  0.2735
17990TIP3    H175385   0.756   3.629  16.630  2.6643  0.3508 -1.1917
17990TIP3    H275386   0.728   3.772  16.590  1.3975  0.3748 -0.2842
17991TIP3   OH275387   5.545   2.721  15.558 -0.0983 -0.3146 -0.0197
17991TIP3    H175388   5.481   2.662  15.597  0.7211 -1.3134 -0.1560
17991TIP3    H275389   5.609   2.664  15.517  2.0922  0.5528  1.9611
17992TIP3   OH275390   5.146   5.986   5.948  0.6741 -0.1951  0.2080
17992TIP3    H175391   5.101   5.910   5.912 -1.0054  1.9557 -2.6169
17992TIP3    H275392   5.103   6.003   6.032  0.0039 -1.4164  0.1235
17993TIP3   OH275393   5.222   2.904   4.398 -0.3414 -0.1790 -0.3156
17993TIP3    H175394   5.209   2.923   4.305 -3.7703  0.7865  0.2123
17993TIP3    H275395   5.291   2.964   4.425 -0.7756  1.0763 -1.8215
17994TIP3   OH275396   3.903   4.293  14.204 -0.5359 -0.6128 -0.1059
17994TIP3    H175397   3.935   4.368  14.254 -1.3114 -0.6845  0.5129
17994TIP3    H275398   3.830   4.260  14.256  0.0147 -2.0112 -0.1891
17995TIP3   OH275399   3.305   5.768   1.149 -0.0263  0.1977  0.3236
17995TIP3    H175400   3.385   5.762   1.201 -1.9656  0.7392  3.6559
17995TIP3    H275401   3.288   5.862   1.142 -0.4003  0.0882 -0.3000
17996TIP3   OH275402   4.667   0.369   0.633 -0.1562  0.3071 -0.2438
17996TIP3    H175403   4.732   0.399   0.568 -1.0451  1.3696 -0.6818
17996TIP3    H275404   4.666   0.439   0.699 -0.7808  0.2654 -0.2009
17997TIP3   OH275405   4.284   4.986  13.266  0.6141 -0.1607 -0.4965
17997TIP3    H175406   4.271   4.958  13.176 -0.2842 -1.0085 -0.1318
17997TIP3    H275407   4.288   4.904  13.316  1.7481  0.2716  0.1677
17998TIP3   OH275408   1.338   0.148  10.803  0.3693 -0.0457 -0.2274
17998TIP3    H175409   1.305   0.151  10.713 -0.0270 -1.2199 -0.1405
17998TIP3    H275410   1.413   0.088  10.798 -0.3222 -0.9833  0.4124
17999TIP3   OH275411   5.793   1.086  11.708  0.1596  0.1107 -0.2493
17999TIP3    H175412   5.739   1.008  11.700 -1.3323  1.0226  0.5324
17999TIP3    H275413   5.732   1.159  11.699  0.8080  1.2114  2.9504
18000TIP3   OH275414   1.151   5.851  12.907 -0.3046  0.3028 -0.6303
18000TIP3    H175415   1.238   5.889  12.898 -0.5076  0.9732  0.1371
18000TIP3    H275416   1.158   5.764  12.868  0.7402  0.2925 -0.4330
18001TIP3   OH275417   6.516   3.923  16.821 -0.3628 -0.1334  0.5810
18001TIP3    H175418   6.565   3.854  16.775  0.5860 -0.2438  1.7138
18001TIP3    H275419   6.424   3.902  16.803 -0.0521  0.7694 -2.5790
18002TIP3   OH275420   4.903   5.144   4.915 -0.4020 -0.0308  0.6096
18002TIP3    H175421   4.867   5.057   4.895 -2.1956  0.7267  0.3663
18002TIP3    H275422   4.873   5.162   5.004  1.3832 -0.3254  1.3102
18003TIP3   OH275423   6.289   6.318  12.162 -0.7299 -0.1023  0.3114
18003TIP3    H175424   6.319   6.389  12.105 -1.5424 -0.0656 -0.0810
18003TIP3    H275425   6.332   6.334  12.246  1.4615 -0.8053 -0.5840
18004TIP3   OH275426   0.203   2.435   3.650 -0.6371 -0.0231 -0.2109
18004TIP3    H175427   0.192   2.398   3.563  0.9547  1.0253 -0.9227
18004TIP3    H275428   0.176   2.526   3.641 -2.4308 -0.4015  0.9484
18005TIP3   OH275429   2.897   5.739  15.663  0.6623 -0.1718  0.0453
18005TIP3    H175430   2.959   5.690  15.717  0.1360  0.4030  1.2155
18005TIP3    H275431   2.812   5.701  15.684  0.5858 -0.9275 -1.5178
18006TIP3   OH275432   3.248   3.321  13.949 -0.2636  0.4510 -0.0201
18006TIP3    H175433   3.216   3.399  13.904  0.0714 -0.0166 -1.0866
18006TIP3    H275434   3.174   3.294  14.004 -1.8206 -0.6536 -2.4784
18007TIP3   OH275435   2.430   0.075  12.704  0.6104  0.5284 -0.3656
18007TIP3    H175436   2.397   0.014  12.638 -0.6757 -1.0345  1.5923
18007TIP3    H275437   2.525   0.063  12.702  0.3604 -3.5625  1.6116
18008TIP3   OH275438   6.731   4.981  12.879  0.4987 -0.2708 -0.4845
18008TIP3    H175439   6.641   4.964  12.906  0.4764 -1.6993 -1.3665
18008TIP3    H275440   6.778   4.994  12.961 -0.6245  1.2787 -0.0341
18009TIP3   OH275441   0.004   0.820  15.672  0.0772  0.4399 -0.1772
18009TIP3    H175442  -0.083   0.860  15.674 -1.0064 -1.6867 -1.3435
18009TIP3    H275443   0.006   0.761  15.748 -0.1941 -0.7514 -1.0525
18010TIP3   OH275444   3.602   3.843  17.173  0.2692 -0.7361 -0.0295
18010TIP3    H175445   3.621   3.867  17.264  2.0469  1.1870 -0.8192
18010TIP3    H275446   3.519   3.885  17.153  0.1397 -0.7239  0.5382
18011TIP3   OH275447   0.883   0.288   6.406  0.1967  0.0889 -0.0908
18011TIP3    H175448   0.889   0.201   6.366 -1.7065  1.2204 -3.1203
18011TIP3    H275449   0.973   0.321   6.406  1.0401 -1.9867  1.5994
18012TIP3   OH275450   2.913   5.223  15.682  0.4644  0.0477  0.0890
18012TIP3    H175451   2.904   5.197  15.590  0.3532  2.1745 -0.5686
18012TIP3    H275452   2.863   5.158  15.731  0.5533 -1.1487 -1.3346
18013TIP3   OH275453   5.745   5.378   4.466  0.2776  0.4302 -0.2521
18013TIP3    H175454   5.704   5.436   4.530 -0.8869 -0.7895  0.1488
18013TIP3    H275455   5.784   5.438   4.402 -1.3360  1.6759 -0.1474
18014TIP3   OH275456   3.457   6.327  12.755  0.2479  0.0491 -0.6255
18014TIP3    H175457   3.533   6.361  12.707  0.4631  0.4328 -0.0335
18014TIP3    H275458   3.392   6.307  12.688 -0.2505  2.5311 -0.9745
18015TIP3   OH275459   4.919   2.965   5.119 -0.8326 -0.4272  0.5219
18015TIP3    H175460   4.971   2.890   5.144 -2.0372 -1.5946 -0.3218
18015TIP3    H275461   4.981   3.024   5.076  0.0417 -1.1402  0.7697
18016TIP3   OH275462   0.129   5.462   4.560 -0.3120  0.1379  0.4383
18016TIP3    H175463   0.077   5.392   4.519  0.7832 -0.9435  0.8278
18016TIP3    H275464   0.217   5.448   4.525 -0.3394  2.2699 -0.6400
18017TIP3   OH275465   1.966   4.533  16.902  0.0735 -0.3993 -0.2087
18017TIP3    H175466   1.940   4.450  16.861  2.9640 -1.2476 -0.6049
18017TIP3    H275467   1.990   4.508  16.992 -0.7782  0.3860  0.2509
18018TIP3   OH275468   4.293   1.460  15.703 -0.2722  0.8517  0.0052
18018TIP3    H175469   4.216   1.415  15.667 -1.2173  1.7587  0.8307
18018TIP3    H275470   4.329   1.398  15.766 -0.8756  0.7697  0.2810
18019TIP3   OH275471   0.876   5.067  16.471 -0.6516 -0.8107 -0.7912
18019TIP3    H175472   0.824   4.998  16.430  0.6003 -1.3989 -1.4514
18019TIP3    H275473   0.934   5.020  16.531 -1.3750 -0.0996  0.5051
18020TIP3   OH275474   1.172   6.465  16.275 -0.6775  0.7940 -0.1132
18020TIP3    H175475   1.175   6.499  16.364 -1.6577 -0.1457  0.3071
18020TIP3    H275476   1.162   6.543  16.220  0.0357  1.3886  0.5856
18021TIP3   OH275477   6.482   1.925   2.377 -0.5469  0.1737  0.1207
18021TIP3    H175478   6.504   1.844   2.330 -0.8829 -0.2277  0.6453
18021TIP3    H275479   6.510   1.995   2.318 -0.9337 -0.3222 -0.6623
18022TIP3   OH275480   3.888   4.757  14.143  0.0117  0.1086  0.2799
18022TIP3    H175481   3.825   4.829  14.141 -1.7408 -1.3778 -0.3619
18022TIP3    H275482   3.907   4.745  14.236 -1.0891  0.2133  0.5245
18023TIP3   OH275483   6.721   1.600   6.081 -0.1269  0.2686 -0.3587
18023TIP3    H175484   6.756   1.641   6.161  1.8951 -0.3103 -0.8956
18023TIP3    H275485   6.753   1.655   6.010 -1.4806  0.4780 -0.8396
18024TIP3   OH275486   2.989   3.619  13.870 -0.1935  0.1875 -0.1759
18024TIP3    H175487   2.899   3.643  13.894 -0.6153 -2.2095  0.9731
18024TIP3    H275488   3.023   3.575  13.948  0.8025 -1.8598 -1.6761
18025TIP3   OH275489   4.154   2.463  15.457  0.6761  0.2919  0.3650
18025TIP3    H175490   4.159   2.402  15.383 -0.8507  1.0227 -0.3818
18025TIP3    H275491   4.244   2.493  15.469  1.0328 -0.1896 -0.8948
18026TIP3   OH275492   3.756   1.962   2.653 -0.6328 -0.1753 -0.0581
18026TIP3    H175493   3.784   2.022   2.584  1.5927 -1.1621 -0.1079
18026TIP3    H275494   3.766   1.875   2.614 -1.8266 -0.6691  0.6847
18027TIP3   OH275495   6.237   5.975   4.207 -0.2475 -0.5812 -0.0367
18027TIP3    H175496   6.332   5.963   4.212 -0.0806  0.6989  0.2286
18027TIP3    H275497   6.200   5.892   4.237  0.8022 -0.3802  1.9615
18028TIP3   OH275498   1.857   4.095   1.723 -0.1144  0.8741 -0.5297
18028TIP3    H175499   1.780   4.151   1.726 -1.8700 -1.3749 -1.2174
18028TIP3    H275500   1.834   4.025   1.663  1.5228 -1.2258  1.1449
18029TIP3   OH275501   2.763   0.433  13.970 -0.0308 -0.3591 -0.2724
18029TIP3    H175502   2.779   0.524  13.945  2.1757 -0.5516  0.2299
18029TIP3    H275503   2.667   0.426  13.976 -0.2352  2.0191  0.1027
18030TIP3   OH275504   1.171   4.645   5.538  0.4175  0.2884 -0.3496
18030TIP3    H175505   1.200   4.561   5.574  0.6108  0.6243  0.3005
18030TIP3    H275506   1.130   4.622   5.454 -0.0935 -0.5281  0.0997
18031TIP3   OH275507   4.750   6.304   1.505  0.1440  0.2474 -0.2346
18031TIP3    H175508   4.811   6.349   1.446  1.7816 -1.6683 -0.1276
18031TIP3    H275509   4.681   6.272   1.448  0.4131  0.5323 -0.7266
18032TIP3   OH275510   5.776   0.327  16.144 -0.2385 -0.7011 -0.7265
18032TIP3    H175511   5.807   0.417  16.137  1.0753 -1.0744  0.0220
18032TIP3    H275512   5.854   0.274  16.128 -0.6367 -1.6795  0.4947
18033TIP3   OH275513   0.226   0.918   0.222 -0.0984  0.3407  0.4830
18033TIP3    H175514   0.160   0.967   0.271 -2.0518 -0.1739 -1.4994
18033TIP3    H275515   0.288   0.985   0.193 -0.5302  1.0545  1.1533
18034TIP3   OH275516   2.868   6.243   4.337 -0.2602  0.1410  1.1033
18034TIP3    H175517   2.816   6.323   4.342  1.4911  1.3846  0.3008
18034TIP3    H275518   2.866   6.218   4.245  0.4514  0.1099  1.0960
18035TIP3   OH275519   1.931   0.872  17.177 -0.3527  0.6091  0.0841
18035TIP3    H175520   1.908   0.896  17.087 -2.6985  0.0088  0.4329
18035TIP3    H275521   2.003   0.809  17.168 -1.8925 -1.0540 -1.5803
18036TIP3   OH275522   0.195   1.564   2.956 -0.2192 -0.0843 -0.6320
18036TIP3    H175523   0.260   1.515   2.906  0.3898 -0.8025  0.7950
18036TIP3    H275524   0.245   1.610   3.023 -0.8791  1.8376 -1.3779
18037TIP3   OH275525   4.176   2.949   4.306  0.3009 -0.1110 -0.0737
18037TIP3    H175526   4.190   2.958   4.400 -1.9570 -1.1281  0.4226
18037TIP3    H275527   4.197   2.858   4.287  0.2528 -0.0443 -0.4531
18038TIP3   OH275528   5.693   1.682   1.790 -0.2864 -0.0014  0.4183
18038TIP3    H175529   5.736   1.611   1.837 -0.3169 -0.9445 -0.9461
18038TIP3    H275530   5.600   1.670   1.808 -0.3295 -0.5841 -0.1573
18039TIP3   OH275531   6.395   1.670   2.651  0.1847 -0.1840  0.0188
18039TIP3    H175532   6.320   1.717   2.689  0.5889  1.7312 -1.4029
18039TIP3    H275533   6.358   1.620   2.578  0.2060  0.3763 -0.3804
18040TIP3   OH275534   6.765   0.999  14.399  0.3485 -0.2261  0.1082
18040TIP3    H175535   6.833   0.942  14.435 -0.2554 -1.7748 -1.1069
18040TIP3    H275536   6.800   1.027  14.314 -1.1167 -2.4199 -1.3384
18041TIP3   OH275537   5.788   1.041   4.274  0.0708  0.5489 -0.2632
18041TIP3    H175538   5.704   0.994   4.275  0.0357  0.6099  0.7054
18041TIP3    H275539   5.838   1.003   4.346  0.3319  1.4698  0.0610
18042TIP3   OH275540   2.074   1.260  11.029 -0.2975 -0.0318  0.1088
18042TIP3    H175541   2.025   1.236  11.108 -0.0646  1.3034  0.6748
18042TIP3    H275542   2.020   1.327  10.987 -0.6021 -0.9822 -1.0905
18043TIP3   OH275543   5.446   0.248   1.104 -0.2512  0.2404 -0.2778
18043TIP3    H175544   5.527   0.294   1.084  0.8938 -1.1160  0.9731
18043TIP3    H275545   5.451   0.167   1.054 -1.0305  0.3298 -0.5068
18044TIP3   OH275546   3.239   6.745   4.714 -0.5799 -0.0782  0.3256
18044TIP3    H175547   3.223   6.787   4.798 -1.1651 -0.3958  0.3742
18044TIP3    H275548   3.193   6.800   4.651 -0.7522 -0.2469  0.3034
18045TIP3   OH275549   5.891   5.323  16.489 -0.4030  0.3298 -0.0454
18045TIP3    H175550   5.798   5.302  16.494 -0.0632 -1.4848 -0.8400
18045TIP3    H275551   5.928   5.287  16.569  0.0231 -1.3550 -0.9618
18046TIP3   OH275552   1.887   1.603   1.305  0.0103 -0.1235  0.2763
18046TIP3    H175553   1.855   1.689   1.279 -0.0259 -0.0748  0.4822
18046TIP3    H275554   1.814   1.543   1.286  0.3632 -0.2614 -0.7607
18047TIP3   OH275555   6.358   4.643  16.585 -0.1297  0.6109  0.0498
18047TIP3    H175556   6.380   4.558  16.547 -0.2826  1.2472 -1.5561
18047TIP3    H275557   6.341   4.625  16.677  0.6085 -0.9632 -0.0903
18048TIP3   OH275558   5.605   3.139   0.019 -0.2084 -0.4920  0.6768
18048TIP3    H175559   5.520   3.132   0.063 -0.1468  0.7241  1.0228
18048TIP3    H275560   5.623   3.050  -0.012 -1.3868 -0.8657  0.9972
18049TIP3   OH275561   3.468   5.544  14.971 -0.1001  0.4977  0.3420
18049TIP3    H175562   3.545   5.533  15.026  1.9426  1.8744 -2.0469
18049TIP3    H275563   3.489   5.618  14.914 -1.6980 -1.3029 -2.8348
18050TIP3   OH275564   5.462   0.745   5.308  0.5431  0.0110  0.4354
18050TIP3    H175565   5.469   0.654   5.278 -0.3111  0.7476 -2.2728
18050TIP3    H275566   5.379   0.747   5.356  1.4234 -0.9758  2.0929
18051TIP3   OH275567   0.022   4.815   4.944  0.3439 -0.5755  0.2496
18051TIP3    H175568   0.112   4.786   4.927  0.2864 -1.4311  1.3198
18051TIP3    H275569  -0.025   4.736   4.970 -0.2388  0.1631  1.5617
18052TIP3   OH275570   1.778   1.799  12.098  0.0332  0.1510 -0.2669
18052TIP3    H175571   1.796   1.730  12.034 -1.8399 -0.5264 -0.1017
18052TIP3    H275572   1.858   1.803  12.150  0.4898 -1.3496 -0.7796
18053TIP3   OH275573   6.605   4.115   1.374  0.7032  0.1621 -0.5719
18053TIP3    H175574   6.617   4.163   1.456 -1.6071  1.7506 -1.0774
18053TIP3    H275575   6.510   4.110   1.362  0.9480 -0.9065 -2.6724
18054TIP3   OH275576   4.038   4.330  16.360  0.2105 -0.7495 -0.6735
18054TIP3    H175577   4.126   4.352  16.333 -0.4320  0.5575 -1.8212
18054TIP3    H275578   3.988   4.323  16.279 -1.7967  3.4015 -0.0574
18055TIP3   OH275579   5.420   3.834   0.154  0.4513 -0.0555  0.6857
18055TIP3    H175580   5.450   3.909   0.103  0.7314  0.5729  1.7443
18055TIP3    H275581   5.399   3.767   0.089  2.4326  0.1018 -0.1827
18056TIP3   OH275582   5.256   5.418   2.463 -0.1965 -0.3772  0.2777
18056TIP3    H175583   5.274   5.418   2.557 -1.0256  0.5493  0.4458
18056TIP3    H275584   5.327   5.470   2.425 -2.3307  3.3831  0.9538
18057TIP3   OH275585   5.641   5.539   6.142 -0.6940 -0.7281 -0.0454
18057TIP3    H175586   5.636   5.492   6.225  0.8764  1.7795  1.5959
18057TIP3    H275587   5.656   5.630   6.166  2.4486 -0.2219 -3.0565
18058TIP3   OH275588   1.457   1.713  13.983  0.6603 -0.0788  0.3224
18058TIP3    H175589   1.419   1.733  13.898 -0.5539 -1.1829  0.5711
18058TIP3    H275590   1.382   1.698  14.041  1.4484  1.3087  1.7841
18059TIP3   OH275591   3.928   2.106   4.270 -0.3214  0.1717 -0.7775
18059TIP3    H175592   3.925   2.111   4.365  0.8736  2.6963 -0.8073
18059TIP3    H275593   3.876   2.180   4.239 -0.8282 -0.6924 -2.1447
18060TIP3   OH275594   5.664   4.838   4.265  0.5896 -0.0804 -0.1226
18060TIP3    H175595   5.698   4.927   4.253  0.1672  0.0693 -0.2299
18060TIP3    H275596   5.607   4.844   4.342  1.1685 -0.4352  0.3426
18061TIP3   OH275597   5.943   3.779  14.784 -0.2455  0.4859  0.2167
18061TIP3    H175598   5.909   3.855  14.831  1.1648  0.8098  0.7679
18061TIP3    H275599   5.964   3.715  14.852 -2.2768 -0.8226 -0.2876
18062TIP3   OH275600   5.642   2.114  17.152 -0.0737 -0.0439  0.3968
18062TIP3    H175601   5.573   2.160  17.200  0.0976  0.4086  0.2150
18062TIP3    H275602   5.595   2.051  17.098 -0.1795 -1.7597  2.3887
18063TIP3   OH275603   1.809   2.765  11.833  0.1456 -0.2912 -0.1221
18063TIP3    H175604   1.888   2.819  11.843  0.9310 -1.0566 -1.8243
18063TIP3    H275605   1.841   2.674  11.837 -0.8938 -0.6549  0.7559
18064TIP3   OH275606   0.639   4.212   2.467  0.0560  0.0565 -0.2135
18064TIP3    H175607   0.582   4.165   2.407 -1.5057 -0.6033  1.6614
18064TIP3    H275608   0.727   4.181   2.447 -0.7972 -2.9898  0.2637
18065TIP3   OH275609   1.843   5.805  13.332  0.0777 -0.0674 -0.2542
18065TIP3    H175610   1.889   5.725  13.309  1.3676  0.6306 -0.1853
18065TIP3    H275611   1.757   5.776  13.363  0.6816 -1.4410  0.1827
18066TIP3   OH275612   3.251   1.771  16.970 -0.6636  0.3658 -0.1269
18066TIP3    H175613   3.270   1.842  16.909 -1.6512  1.0429  0.3187
18066TIP3    H275614   3.316   1.780  17.040  0.1808 -0.1344 -0.8183
18067TIP3   OH275615   0.022   0.423  14.728  0.0226  0.2187  0.3330
18067TIP3    H175616  -0.064   0.409  14.687 -0.5497  1.6015  0.9751
18067TIP3    H275617   0.085   0.394  14.663 -0.8949  1.0607 -0.9861
18068TIP3   OH275618   0.451   4.109  14.705 -0.4983  0.3668  0.2592
18068TIP3    H175619   0.538   4.138  14.678 -1.3277  1.1821 -1.7338
18068TIP3    H275620   0.391   4.175  14.669 -2.1467 -1.5786 -0.8118
18069TIP3   OH275621   3.324   5.798   5.236 -0.1859 -0.4794 -0.0256
18069TIP3    H175622   3.362   5.759   5.157 -0.8246  0.1713 -0.6768
18069TIP3    H275623   3.244   5.748   5.251  0.0527 -0.7494  0.3434
18070TIP3   OH275624   0.991   6.419  10.737 -0.0263 -0.5438 -0.2851
18070TIP3    H175625   0.976   6.504  10.778  1.4047 -0.3763 -0.0741
18070TIP3    H275626   1.064   6.434  10.677 -0.5036 -1.3621 -1.0851
18071TIP3   OH275627   1.694   0.215   5.472  0.1320  0.0638 -0.0754
18071TIP3    H175628   1.727   0.303   5.455 -0.1684  0.1652 -0.1262
18071TIP3    H275629   1.721   0.196   5.562  0.2044  0.2046 -0.0665
18072TIP3   OH275630   4.984   3.762   3.708  0.0253  0.4586  0.0568
18072TIP3    H175631   5.057   3.735   3.764 -1.5361 -0.9423  1.5272
18072TIP3    H275632   4.961   3.850   3.738  0.6533  0.6288  0.0534
18073TIP3   OH275633   1.465   3.438   2.290  0.7242  0.2788  0.1559
18073TIP3    H175634   1.487   3.516   2.341 -0.2631 -0.2285  1.4272
18073TIP3    H275635   1.453   3.369   2.356 -0.5188 -0.4218 -0.7601
18074TIP3   OH275636   1.072   0.776   3.333  0.0479  0.2689  0.2961
18074TIP3    H175637   1.115   0.759   3.249 -0.4487 -0.3591  0.1626
18074TIP3    H275638   1.035   0.691   3.359 -2.3474  1.0532 -0.3014
18075TIP3   OH275639   3.345   1.707  12.531 -0.1448 -0.6200  0.8405
18075TIP3    H175640   3.415   1.772  12.540  0.4198 -1.3253  1.5987
18075TIP3    H275641   3.266   1.760  12.518  0.6480  0.1794 -1.2325
18076TIP3   OH275642   4.174   5.476  12.471  0.0767  0.0421  0.5927
18076TIP3    H175643   4.161   5.386  12.442  1.0721 -0.5879  2.0007
18076TIP3    H275644   4.254   5.473  12.523  1.5648  2.2358 -1.3900
18077TIP3   OH275645   1.212   0.980   1.946  0.3579 -0.4281 -0.0878
18077TIP3    H175646   1.238   1.072   1.938 -1.4709  0.0989 -0.5166
18077TIP3    H275647   1.293   0.933   1.964  1.4773  1.1492 -0.8193
18078TIP3   OH275648   0.143   5.078  13.077  0.3100 -0.2273  0.3328
18078TIP3    H175649   0.105   5.159  13.110 -0.4710 -0.5301  0.2011
18078TIP3    H275650   0.163   5.027  13.156  1.6716  0.4507  0.4603
18079TIP3   OH275651   0.438   6.564  15.993 -0.0232  0.2912  0.1733
18079TIP3    H175652   0.450   6.622  15.918  1.7793 -1.1397 -0.7499
18079TIP3    H275653   0.344   6.556  16.002 -0.3734 -0.5988 -2.9235
18080TIP3   OH275654   6.113   1.726  14.810 -0.1705 -0.5850 -0.4411
18080TIP3    H175655   6.111   1.712  14.715  0.0251  1.6732 -0.8248
18080TIP3    H275656   6.167   1.654  14.843 -1.1021 -2.0264 -1.8870
18081TIP3   OH275657   4.290   2.101   0.927 -0.3595 -0.1422  0.0331
18081TIP3    H175658   4.313   2.042   0.999  0.8670 -0.0324 -0.2483
18081TIP3    H275659   4.360   2.089   0.863 -0.9383  0.4576 -0.7341
18082TIP3   OH275660   4.446   3.981  15.972 -0.0153  0.0732 -0.2884
18082TIP3    H175661   4.474   3.985  15.881 -0.5278 -0.6381 -0.4837
18082TIP3    H275662   4.471   4.066  16.009  1.4112 -0.1313 -0.7262
18083TIP3   OH275663   5.806   5.036   1.189 -0.0865  0.0266  0.2699
18083TIP3    H175664   5.714   5.021   1.168 -0.2292  1.6122 -0.4007
18083TIP3    H275665   5.805   5.113   1.246  0.9384  1.6446 -1.7574
18084TIP3   OH275666   0.144   5.437   1.127 -0.0813 -0.3562  0.4747
18084TIP3    H175667   0.213   5.380   1.160 -0.7616 -0.6027  1.5153
18084TIP3    H275668   0.160   5.442   1.033 -0.2717 -2.6489  0.2626
18085TIP3   OH275669   5.588   3.244   5.050  0.2433  0.1316  0.0355
18085TIP3    H175670   5.535   3.323   5.049 -1.8932 -1.1685 -2.7683
18085TIP3    H275671   5.587   3.215   5.141 -3.5224  0.4844  0.2493
18086TIP3   OH275672   4.524   2.158   5.565 -0.3515 -0.2530  0.0803
18086TIP3    H175673   4.520   2.214   5.643  1.3686  0.1712 -0.1000
18086TIP3    H275674   4.505   2.217   5.492  0.3141 -0.1400 -0.0079
18087TIP3   OH275675   6.081   6.627  16.726 -0.2887  0.3035 -0.4270
18087TIP3    H175676   6.040   6.695  16.779  0.5426  0.3910  0.1191
18087TIP3    H275677   6.129   6.573  16.789  0.4648  0.2270 -1.0570
18088TIP3   OH275678   4.373   6.401   0.679  0.1669  0.9819 -0.1271
18088TIP3    H175679   4.326   6.339   0.623 -0.4450  0.3408  1.0802
18088TIP3    H275680   4.427   6.451   0.618  1.1022 -1.0925 -1.1116
18089TIP3   OH275681   1.839   5.246   0.547  0.4924 -0.4146 -0.1259
18089TIP3    H175682   1.857   5.338   0.525 -0.0108 -0.6631 -1.6292
18089TIP3    H275683   1.893   5.195   0.487 -0.5602 -1.1073 -0.5177
18090TIP3   OH275684   4.026   4.258  13.518 -0.3200  0.4691 -0.2039
18090TIP3    H175685   4.064   4.311  13.448 -0.2468  1.6909  0.7276
18090TIP3    H275686   4.001   4.322  13.585  0.9960 -0.7716  1.5500
18091TIP3   OH275687   4.553   3.915  16.275 -0.2279  0.2543 -0.2375
18091TIP3    H175688   4.568   3.825  16.305  0.0214  0.6890  0.9982
18091TIP3    H275689   4.518   3.905  16.186  1.3330 -0.9985 -0.7559
18092TIP3   OH275690   1.361   6.412  13.518 -0.0459 -0.0195 -0.2914
18092TIP3    H175691   1.329   6.464  13.592 -0.2907 -0.8730  0.2151
18092TIP3    H275692   1.293   6.420  13.452 -2.5024 -3.4782  1.5126
18093TIP3   OH275693   0.733   3.937  15.804  0.3137 -0.2011  0.6179
18093TIP3    H175694   0.811   3.993  15.800  1.2716 -1.3580  1.7641
18093TIP3    H275695   0.718   3.926  15.898 -0.1147 -1.4884  0.4095
18094TIP3   OH275696   5.222   4.411   3.592 -0.3030 -0.3243  0.7022
18094TIP3    H175697   5.254   4.484   3.539 -0.4638  0.2990  1.4503
18094TIP3    H275698   5.294   4.348   3.592  0.0530  0.0808  0.5284
18095TIP3   OH275699   5.951   4.956  15.315 -0.2846  0.1513  0.4543
18095TIP3    H175700   5.985   4.991  15.397  0.7016  1.9881 -0.6834
18095TIP3    H275701   5.873   5.009  15.297 -1.3045 -1.1453  0.8302
18096TIP3   OH275702   6.154   0.391  14.724 -0.3747 -0.1365  1.0986
18096TIP3    H175703   6.108   0.307  14.722 -0.3542 -0.1587  1.6178
18096TIP3    H275704   6.246   0.367  14.737 -0.0138 -0.1645 -1.0225
18097TIP3   OH275705   5.768   4.744  12.738 -0.1378  0.3015 -0.0967
18097TIP3    H175706   5.782   4.801  12.814  0.0888 -0.9197  0.8092
18097TIP3    H275707   5.703   4.680  12.768  1.7980 -1.7546 -0.0249
18098TIP3   OH275708   1.098   4.177   1.485 -0.4692 -0.5353 -0.1219
18098TIP3    H175709   1.095   4.103   1.425  0.5099  0.6171 -1.6953
18098TIP3    H275710   1.107   4.254   1.428 -1.5849  0.8349  1.4188
18099TIP3   OH275711   0.826   0.356   3.903  0.0985 -0.3119 -0.0165
18099TIP3    H175712   0.859   0.446   3.898 -1.2501  0.2988  1.3430
18099TIP3    H275713   0.863   0.313   3.826  0.6944  1.4277 -0.7611
18100TIP3   OH275714   2.731   5.427  15.745  0.3191  0.8756  0.5430
18100TIP3    H175715   2.760   5.483  15.816 -0.3522  2.1601 -0.1738
18100TIP3    H275716   2.802   5.363  15.735  0.1892  0.3382  2.6756
18101TIP3   OH275717   3.141   2.724  11.004 -0.1460  0.1700  0.0274
18101TIP3    H175718   3.065   2.757  11.052 -0.5710  0.1690 -0.6372
18101TIP3    H275719   3.103   2.678  10.928  0.4246 -1.4638  0.6805
18102TIP3   OH275720   3.745   2.541   5.048  0.5181 -0.1079 -0.3503
18102TIP3    H175721   3.835   2.571   5.059  0.7722 -0.6103 -1.0160
18102TIP3    H275722   3.712   2.530   5.138  1.1050  0.1058 -0.1041
18103TIP3   OH275723   6.231   2.095  14.326 -0.2044 -0.2993  0.3463
18103TIP3    H175724   6.296   2.154  14.288 -1.1055  1.9474  2.1067
18103TIP3    H275725   6.270   2.008  14.316  2.1109  0.7414 -0.5129
18104TIP3   OH275726   2.917   4.872   3.851  0.1631  0.0817 -0.2369
18104TIP3    H175727   2.905   4.803   3.786 -1.6457  1.1785 -1.1466
18104TIP3    H275728   2.887   4.952   3.808 -0.0180  1.0513  1.5558
18105TIP3   OH275729   0.118   2.339   3.916 -0.1066 -0.2020 -0.0657
18105TIP3    H175730   0.066   2.293   3.850 -0.4960 -0.5879  0.4906
18105TIP3    H275731   0.054   2.392   3.964  0.2697  0.5680 -0.4021
18106TIP3   OH275732   0.604   0.400  15.402  0.0291 -0.4978 -0.2107
18106TIP3    H175733   0.553   0.376  15.324 -0.2124  1.0987 -0.5885
18106TIP3    H275734   0.613   0.495  15.395  2.2702 -0.6328  0.3588
18107TIP3   OH275735   4.513   4.779   3.959  0.0106  0.0002  0.5178
18107TIP3    H175736   4.484   4.870   3.953 -0.5683 -0.2514 -0.8301
18107TIP3    H275737   4.433   4.728   3.959  0.3242 -0.6537 -2.3104
18108TIP3   OH275738   6.652   0.439   5.356  0.1953 -0.2164 -0.3120
18108TIP3    H175739   6.660   0.410   5.266 -0.4058  0.3314 -0.5470
18108TIP3    H275740   6.607   0.523   5.351 -0.6485 -0.5871  0.5505
18109TIP3   OH275741   3.529   1.053  10.984  0.0500 -0.4355  0.7112
18109TIP3    H175742   3.439   1.066  11.012  0.1466 -0.1458  0.8920
18109TIP3    H275743   3.523   0.987  10.915 -0.3027 -0.3951  0.6999
18110TIP3   OH275744   6.604   0.299   4.758 -0.1095 -0.0894  0.3349
18110TIP3    H175745   6.520   0.324   4.718  0.0317 -1.6894 -1.0720
18110TIP3    H275746   6.581   0.275   4.848 -1.0370  0.2074  0.1892
18111TIP3   OH275747   1.304   0.830  10.987 -0.4370  0.0319 -0.7110
18111TIP3    H175748   1.261   0.812  10.904 -3.5067 -0.5019  0.8341
18111TIP3    H275749   1.269   0.914  11.014  0.7270  0.3260 -0.0626
18112TIP3   OH275750   4.004   5.516  12.169 -0.0852  0.5029 -0.3225
18112TIP3    H175751   4.088   5.470  12.159 -1.0884 -1.9097  1.3326
18112TIP3    H275752   3.955   5.494  12.090 -0.3733 -1.0176  0.2368
18113TIP3   OH275753   2.135   4.003   1.416 -0.5928 -0.1666 -0.4406
18113TIP3    H175754   2.212   4.009   1.360 -0.9785 -1.0666 -1.0899
18113TIP3    H275755   2.116   4.094   1.439  0.5877  0.0744 -0.3575
18114TIP3   OH275756   1.087   5.830  14.254  0.3130 -0.1042 -0.0027
18114TIP3    H175757   1.168   5.879  14.268  0.0681 -0.6096  4.3849
18114TIP3    H275758   1.116   5.744  14.225  0.9898  0.8859 -2.5824
18115TIP3   OH275759   4.157   2.493   1.011  0.1560  0.3364  0.3120
18115TIP3    H175760   4.150   2.435   1.087  0.2390  0.6135  0.5331
18115TIP3    H275761   4.181   2.435   0.939 -0.2004  0.0289  0.4382
18116TIP3   OH275762   4.597   2.670  12.737  0.7781 -0.4469  0.6488
18116TIP3    H175763   4.645   2.743  12.699  0.1801 -0.2027  0.3380
18116TIP3    H275764   4.620   2.595  12.683  0.3211 -0.2001  0.1014
18117TIP3   OH275765   2.192   4.714   4.455  0.0969  0.2842  0.0939
18117TIP3    H175766   2.123   4.775   4.429  0.2641  0.1546 -0.6992
18117TIP3    H275767   2.156   4.668   4.531  0.5191  2.3039  1.5896
18118TIP3   OH275768   3.461   0.299   6.455  0.0287  0.9533 -0.1749
18118TIP3    H175769   3.437   0.229   6.516 -0.4197  0.4596 -0.8942
18118TIP3    H275770   3.555   0.309   6.466  0.8268 -2.3324 -2.6046
18119TIP3   OH275771   6.606   0.816  16.609 -0.1326 -0.1122 -0.3485
18119TIP3    H175772   6.677   0.881  16.606  0.7842 -1.0088  0.8262
18119TIP3    H275773   6.592   0.801  16.702  0.1624 -2.0858 -0.5840
18120TIP3   OH275774   2.137   2.168   3.009 -0.1067  0.3829  0.3647
18120TIP3    H175775   2.063   2.202   3.058  0.0574  1.1731  0.0864
18120TIP3    H275776   2.191   2.245   2.991  0.4644 -0.0854  0.0285
18121TIP3   OH275777   6.687   0.371   3.846 -0.6575 -0.1020  0.7932
18121TIP3    H175778   6.719   0.401   3.931  0.7156 -0.2856  0.3625
18121TIP3    H275779   6.742   0.416   3.782 -3.1425  1.8313 -0.1407
18122TIP3   OH275780   1.660   5.606  16.824 -0.6172  0.2420 -0.6040
18122TIP3    H175781   1.654   5.523  16.776  1.5906 -0.4975  0.2527
18122TIP3    H275782   1.615   5.589  16.907  0.6912 -0.5032 -0.0064
18123TIP3   OH275783   3.559   1.135  13.551  0.5798  0.2449  0.0295
18123TIP3    H175784   3.592   1.096  13.469  1.0930  0.2277  0.2380
18123TIP3    H275785   3.466   1.114  13.551  0.5552  0.3251 -0.5981
18124TIP3   OH275786   0.603   3.636  13.599  0.3671 -0.8770 -0.2505
18124TIP3    H175787   0.632   3.726  13.618 -1.4479 -0.0217 -1.2936
18124TIP3    H275788   0.510   3.635  13.622  0.3355 -2.5031 -0.3137
18125TIP3   OH275789   5.457   4.811  12.946  0.3009 -0.8117  0.2388
18125TIP3    H175790   5.499   4.895  12.963  0.9511 -1.3141  1.1880
18125TIP3    H275791   5.370   4.818  12.985  0.3068 -0.5357  0.1985
18126TIP3   OH275792   0.665   6.498  13.431 -0.2078 -0.7298 -0.3738
18126TIP3    H175793   0.591   6.553  13.405 -0.1215  0.0636  0.9417
18126TIP3    H275794   0.632   6.408  13.427 -1.4713 -0.3525  0.8291
18127TIP3   OH275795   6.354   1.653   3.401 -0.0944  0.7050 -0.6865
18127TIP3    H175796   6.420   1.697   3.454  1.8008 -0.2602 -2.1057
18127TIP3    H275797   6.337   1.571   3.448 -0.1612  0.8764 -0.4091
18128TIP3   OH275798   4.742   6.229  17.020  0.4432 -0.9601 -0.1578
18128TIP3    H175799   4.652   6.256  17.033 -0.2873 -2.5082 -1.5555
18128TIP3    H275800   4.761   6.172  17.095  1.0895  1.1531  1.3585
18129TIP3   OH275801   3.990   5.980   0.662 -0.0455 -0.4562  0.0982
18129TIP3    H175802   3.937   5.906   0.633  2.3381 -1.2223 -2.8953
18129TIP3    H275803   4.058   5.941   0.716  0.2510 -0.2381 -0.1147
18130TIP3   OH275804   3.109   4.700  16.461  0.3401  0.0985  0.8844
18130TIP3    H175805   3.108   4.764  16.390 -3.0671 -1.1310 -0.3782
18130TIP3    H275806   3.089   4.752  16.539  0.0702  0.8989  0.2984
18131TIP3   OH275807   4.191   3.924  15.880 -0.1961  0.0371 -0.2288
18131TIP3    H175808   4.261   3.952  15.939  0.2890 -1.1266 -0.2364
18131TIP3    H275809   4.123   3.890  15.939 -0.3545  0.2775 -0.2713
18132TIP3   OH275810   4.927   5.900   4.434 -0.6967 -0.2121 -0.2388
18132TIP3    H175811   4.925   5.994   4.413 -1.5332 -0.4350 -1.2065
18132TIP3    H275812   4.939   5.857   4.349 -0.0748 -0.9798  0.2303
18133TIP3   OH275813   5.219   3.182   4.111  0.0873  0.3434 -0.0125
18133TIP3    H175814   5.193   3.099   4.151 -0.1569 -1.0185 -2.7549
18133TIP3    H275815   5.238   3.160   4.020  1.8658  2.9966 -0.4013
18134TIP3   OH275816   3.556   3.262  11.646 -0.8918 -0.3692 -0.1945
18134TIP3    H175817   3.636   3.217  11.617 -0.7420  0.2412 -0.7353
18134TIP3    H275818   3.583   3.310  11.724 -0.3943  0.8793 -1.1112
18135TIP3   OH275819   5.674   1.344  14.899 -0.2918  0.4625 -0.1071
18135TIP3    H175820   5.737   1.384  14.839  0.9337 -1.0492  0.1110
18135TIP3    H275821   5.594   1.337  14.848  0.1873  0.9084 -0.9491
18136TIP3   OH275822   5.467   4.876   4.441 -0.7325 -0.1441  0.3118
18136TIP3    H175823   5.377   4.896   4.416 -0.5559  1.5258  0.8851
18136TIP3    H275824   5.468   4.880   4.536  0.2773  1.5653  0.2709
18137TIP3   OH275825   2.795   0.715  14.129 -0.5033 -0.1627  0.5895
18137TIP3    H175826   2.763   0.785  14.186  0.0703  0.7857 -0.2353
18137TIP3    H275827   2.757   0.735  14.043 -0.4984 -0.9877  0.3895
18138TIP3   OH275828   6.027   0.147  16.269  0.8180  0.6446 -0.3208
18138TIP3    H175829   5.998   0.162  16.179  0.2721  0.8273 -0.1182
18138TIP3    H275830   5.995   0.059  16.290  0.4729  0.8141 -0.1244
18139TIP3   OH275831   0.543   1.722   3.461 -0.1474 -0.3332  0.1170
18139TIP3    H175832   0.578   1.651   3.407  1.4519 -0.7989  1.6643
18139TIP3    H275833   0.586   1.711   3.546 -4.2189 -1.0524  2.3663
18140TIP3   OH275834   1.630   5.729   1.574 -0.0286  0.0768 -0.9836
18140TIP3    H175835   1.683   5.688   1.506 -0.0732  0.0073 -0.9775
18140TIP3    H275836   1.693   5.774   1.631 -0.0570  0.7873 -1.5048
18141TIP3   OH275837   6.415   4.198  17.174 -0.1693  0.1800 -0.0110
18141TIP3    H175838   6.442   4.236  17.258 -0.5510 -0.2216  0.3025
18141TIP3    H275839   6.392   4.273  17.120 -2.1217  0.3935  1.0121
18142TIP3   OH275840   6.277   4.777   2.825  0.2426  0.5661  0.0571
18142TIP3    H175841   6.202   4.728   2.858 -0.0413  0.5018 -0.6658
18142TIP3    H275842   6.244   4.823   2.747  0.7018  1.2937  0.2763
18143TIP3   OH275843   4.562   1.697   5.211  0.0408 -0.2262 -0.0220
18143TIP3    H175844   4.488   1.749   5.179 -0.6728 -1.2255 -0.0751
18143TIP3    H275845   4.556   1.704   5.306  0.8233  0.9440 -0.0450
18144TIP3   OH275846   4.694   3.890  17.060  0.2432 -0.7467  0.0766
18144TIP3    H175847   4.600   3.894  17.077  0.4850 -0.6985  1.5149
18144TIP3    H275848   4.705   3.811  17.007 -0.7300 -0.1023 -1.1401
18145TIP3   OH275849   1.583   1.612  14.217  0.5422 -0.3795  0.0142
18145TIP3    H175850   1.532   1.617  14.136  2.0028 -0.2726 -0.9520
18145TIP3    H275851   1.616   1.701  14.230  0.2196 -0.3651  0.8187
18146TIP3   OH275852   2.352   4.024  11.409 -0.7359 -0.4670 -0.1559
18146TIP3    H175853   2.426   3.973  11.375 -0.4428 -0.5244  0.5633
18146TIP3    H275854   2.346   4.099  11.350 -0.3270 -0.6478 -0.4333
18147TIP3   OH275855   6.612   6.321   1.029  0.3562 -0.1342  1.7740
18147TIP3    H175856   6.688   6.376   1.044  1.2090 -0.6116 -0.4081
18147TIP3    H275857   6.551   6.377   0.981  1.7150 -1.2746 -1.5412
18148TIP3   OH275858   6.070   2.215  14.610  0.5126  0.6204 -1.0461
18148TIP3    H175859   6.117   2.148  14.659  1.5525  1.5689 -0.6976
18148TIP3    H275860   6.097   2.200  14.519 -1.6313 -1.3124 -1.4591
18149TIP3   OH275861   0.486   0.780   4.841 -0.6560  0.4437  0.6564
18149TIP3    H175862   0.485   0.865   4.799 -1.8165 -1.6988 -4.4222
18149TIP3    H275863   0.397   0.767   4.873 -0.7342  0.7438  0.5583
18150TIP3   OH275864   4.680   5.985  15.101  0.0812  0.0324 -0.4029
18150TIP3    H175865   4.756   6.040  15.083 -0.3030  0.7355  0.0592
18150TIP3    H275866   4.607   6.029  15.057 -0.0533 -0.6368 -0.8445
18151TIP3   OH275867   0.255   1.649   4.863  0.5216  0.3521  0.5519
18151TIP3    H175868   0.340   1.663   4.822  0.8069 -0.2139  0.9302
18151TIP3    H275869   0.231   1.559   4.837  0.5448  0.1151  1.3266
18152TIP3   OH275870   5.436   3.641   0.352 -0.6705 -0.0239  0.0226
18152TIP3    H175871   5.520   3.669   0.388 -1.4169 -0.2422  2.0352
18152TIP3    H275872   5.421   3.701   0.278  0.8924  0.4887  0.0904
18153TIP3   OH275873   6.333   3.105  14.714 -0.1236 -0.7645 -0.2415
18153TIP3    H175874   6.267   3.048  14.673  1.2017 -1.8237 -1.0068
18153TIP3    H275875   6.377   3.049  14.778  1.6121 -0.8545 -1.4288
18154TIP3   OH275876   3.625   0.561  15.611 -0.0096  0.1981  0.1769
18154TIP3    H175877   3.693   0.521  15.557 -1.1297  1.1645 -2.0871
18154TIP3    H275878   3.568   0.489  15.635 -0.4983 -0.0264 -1.5318
18155TIP3   OH275879   1.609   6.742   4.998  0.5990  0.0547 -0.3385
18155TIP3    H175880   1.530   6.689   5.007  1.5280 -1.2080  0.7880
18155TIP3    H275881   1.595   6.818   5.055  0.9780 -1.1870  1.4971
18156TIP3   OH275882   5.770   0.897  13.649  0.4225  0.0247  0.3905
18156TIP3    H175883   5.750   0.804  13.644  1.4387 -0.2551  1.2119
18156TIP3    H275884   5.694   0.936  13.692 -0.4276 -0.2659 -0.8179
18157TIP3   OH275885   2.471   0.731  16.554  0.5860  0.2667 -0.1376
18157TIP3    H175886   2.477   0.769  16.642  0.8955  0.3853 -0.2122
18157TIP3    H275887   2.538   0.776  16.503  2.3612 -1.7224  0.2809
18158TIP3   OH275888   1.545   4.596   1.746  0.2493  0.0042 -0.2190
18158TIP3    H175889   1.627   4.609   1.699 -0.7259 -0.1312 -2.0755
18158TIP3    H275890   1.497   4.678   1.732 -0.5184 -0.4740 -0.4438
18159TIP3   OH275891   4.694   1.388  16.156 -0.3867  0.1278  0.0842
18159TIP3    H175892   4.610   1.376  16.200 -0.1229 -1.8733  0.1352
18159TIP3    H275893   4.672   1.402  16.064 -0.8331  1.8543  0.4174
18160TIP3   OH275894   6.605   5.499   3.045  0.1695 -0.2212 -0.2165
18160TIP3    H175895   6.512   5.477   3.041  0.1593 -0.4472  0.7719
18160TIP3    H275896   6.645   5.446   2.977 -0.2476 -1.2234  0.2815
18161TIP3   OH275897   4.480   1.999   0.732 -0.3182  0.0706 -0.1449
18161TIP3    H175898   4.565   1.955   0.744 -0.2476  0.0517 -0.7195
18161TIP3    H275899   4.502   2.083   0.692 -0.6215 -0.2127 -0.9250
18162TIP3   OH275900   0.379   0.793  13.425 -0.6716 -0.3533  0.1140
18162TIP3    H175901   0.430   0.869  13.454  0.6797  0.0185 -2.8653
18162TIP3    H275902   0.401   0.783  13.332 -1.7414 -3.6890  0.0900
18163TIP3   OH275903   2.902   4.084  12.416  0.3100  0.6134 -0.2015
18163TIP3    H175904   2.813   4.063  12.390 -0.6837  2.5354  1.3157
18163TIP3    H275905   2.894   4.117  12.506  2.5046  1.0904 -0.1061
18164TIP3   OH275906   0.613   3.719   4.242  0.3900 -0.8691  0.0554
18164TIP3    H175907   0.692   3.768   4.265  0.5562 -1.6273  1.2315
18164TIP3    H275908   0.541   3.781   4.256  0.6580 -0.6901  0.7008
18165TIP3   OH275909   4.442   6.396  13.313 -0.1518 -0.2920  0.4768
18165TIP3    H175910   4.405   6.377  13.399 -0.3031 -0.4515  0.3769
18165TIP3    H275911   4.375   6.449  13.270 -0.4476 -0.9186  0.1449
18166TIP3   OH275912   1.349   4.085  16.886  0.1494  0.1166  1.0383
18166TIP3    H175913   1.287   4.092  16.958  0.0385  0.8623  0.8789
18166TIP3    H275914   1.331   3.999  16.846 -0.5310  0.1741  1.2136
18167TIP3   OH275915   0.848   0.621   6.361 -0.4055  0.1390 -0.0621
18167TIP3    H175916   0.798   0.557   6.411 -0.6247  0.2841 -0.0882
18167TIP3    H275917   0.839   0.703   6.411  0.1117  0.0853  0.1216
18168TIP3   OH275918   4.808   2.904  15.708 -0.2490 -0.2897  0.1692
18168TIP3    H175919   4.859   2.851  15.768 -0.8314 -0.1809  0.7759
18168TIP3    H275920   4.863   2.980  15.689  0.6910 -1.2140 -0.9039
18169TIP3   OH275921   6.194   0.895   4.030 -0.1336  0.5610 -0.2253
18169TIP3    H175922   6.123   0.845   3.989  0.1771  0.8206 -1.1159
18169TIP3    H275923   6.201   0.860   4.118 -1.1392  0.2941 -0.2420
18170TIP3   OH275924   1.209   1.499   0.231 -0.4064 -0.5459  0.5931
18170TIP3    H175925   1.259   1.429   0.272 -1.3997 -1.8054 -0.2877
18170TIP3    H275926   1.253   1.516   0.148 -0.0924 -0.0128  0.8597
18171TIP3   OH275927   1.562   6.098  12.385  0.3685 -0.0342  0.3649
18171TIP3    H175928   1.627   6.030  12.397  0.0030 -0.4694 -0.0693
18171TIP3    H275929   1.512   6.071  12.308  0.1000  0.6296  0.2918
18172TIP3   OH275930   2.789   0.243   3.738 -0.0268  0.0891 -0.5333
18172TIP3    H175931   2.729   0.316   3.758  0.7135  1.1239 -1.9233
18172TIP3    H275932   2.874   0.274   3.768  0.5237  0.3476 -2.2734
18173TIP3   OH275933   5.249   0.946   1.351  0.2781  0.1271 -0.1981
18173TIP3    H175934   5.315   0.887   1.315 -0.3164 -0.9069  0.3443
18173TIP3    H275935   5.295   0.994   1.420  0.1921 -1.5068  1.0644
18174TIP3   OH275936   3.330   1.178   2.993  0.4406 -0.3196  0.6555
18174TIP3    H175937   3.388   1.250   2.968  0.9443 -0.2263  2.0120
18174TIP3    H275938   3.381   1.099   2.976  0.8395 -0.2510  1.4738
18175TIP3   OH275939   1.181   1.209   0.785 -0.6411 -0.0144 -0.0417
18175TIP3    H175940   1.112   1.223   0.720 -1.3607  0.2030  0.7653
18175TIP3    H275941   1.204   1.117   0.774  0.1914  0.3236 -1.5093
18176TIP3   OH275942   6.722   6.515   5.082  0.6215  0.2049 -0.2282
18176TIP3    H175943   6.627   6.518   5.088  0.7267  2.0337  1.6204
18176TIP3    H275944   6.746   6.426   5.108 -0.5990 -0.7458 -2.1667
18177TIP3   OH275945   2.947   1.748   5.076 -0.2409  0.0288 -0.1603
18177TIP3    H175946   2.900   1.677   5.032  0.3943  0.2813 -1.2782
18177TIP3    H275947   3.025   1.763   5.022  0.6069  0.3103  1.1024
18178TIP3   OH275948   4.804   6.422  16.121 -0.4821 -0.4335 -0.0572
18178TIP3    H175949   4.868   6.427  16.051  1.1261 -1.9504  1.1963
18178TIP3    H275950   4.841   6.476  16.192 -1.7137  0.4823 -0.0715
18179TIP3   OH275951   2.817   2.122  16.081 -0.1448 -0.4479  0.2867
18179TIP3    H175952   2.892   2.106  16.137 -0.1073 -0.0767  0.3475
18179TIP3    H275953   2.842   2.087  15.995  0.1616 -0.1777  0.2662
18180TIP3   OH275954   1.966   4.759  12.256  0.4579 -0.8903 -0.1974
18180TIP3    H175955   1.992   4.769  12.348  0.4715 -0.8897 -0.2014
18180TIP3    H275956   2.022   4.821  12.209  0.9799 -1.4340 -0.2992
18181TIP3   OH275957   5.021   2.661  14.525  0.0337 -0.5409  0.5467
18181TIP3    H175958   4.943   2.615  14.555  0.0861 -0.3599  0.9582
18181TIP3    H275959   5.076   2.669  14.602  0.9288 -1.5911  0.0429
18182TIP3   OH275960   0.458   1.325   4.612 -0.0629 -0.0993  1.2631
18182TIP3    H175961   0.543   1.366   4.627  0.8348 -0.8745 -1.2821
18182TIP3    H275962   0.397   1.399   4.604  0.8550  0.5993  0.5087
18183TIP3   OH275963   6.677   3.980  16.513  0.2771  0.1477  0.0503
18183TIP3    H175964   6.613   4.037  16.557 -1.2159 -1.9126  0.6819
18183TIP3    H275965   6.641   3.969  16.424 -0.3177 -1.0479  0.4192
18184TIP3   OH275966   1.028   6.315  11.542  0.2956 -0.6291  0.1098
18184TIP3    H175967   1.035   6.306  11.637 -2.1394 -1.9819  0.2511
18184TIP3    H275968   0.954   6.260  11.518  0.5370  0.0470 -2.5429
18185TIP3   OH275969   3.019   3.427  13.187  0.0234  0.9072 -0.1902
18185TIP3    H175970   3.065   3.479  13.121  0.6870  0.8313  0.1963
18185TIP3    H275971   3.025   3.479  13.267  3.2423 -0.9008  0.9741
18186TIP3   OH275972   6.246   0.784   0.027 -0.5775 -0.2964 -0.0720
18186TIP3    H175973   6.329   0.817  -0.008 -0.8452  0.7543  0.2588
18186TIP3    H275974   6.187   0.859   0.025 -0.4084  0.1022  3.2616
18187TIP3   OH275975   4.732   3.270  11.045  0.3046 -0.0099  0.2840
18187TIP3    H175976   4.797   3.266  11.116 -1.5106  1.3972  2.1463
18187TIP3    H275977   4.722   3.180  11.017  0.6767 -0.7234  2.2651
18188TIP3   OH275978   0.321   4.606  15.403 -0.3026 -0.1120  0.0897
18188TIP3    H175979   0.277   4.548  15.466 -0.5458 -0.0094  0.0159
18188TIP3    H275980   0.310   4.562  15.319  0.0344 -0.2564  0.1202
18189TIP3   OH275981   0.246   1.055  15.524  0.7714 -0.4062  0.1212
18189TIP3    H175982   0.309   0.985  15.538 -0.1118 -1.4989 -1.1167
18189TIP3    H275983   0.179   1.042  15.591  1.1135 -0.1195  0.5244
18190TIP3   OH275984   0.960   5.425  13.680 -0.1731  0.0522 -0.4579
18190TIP3    H175985   1.011   5.398  13.604  0.1077 -1.7747  0.3268
18190TIP3    H275986   0.869   5.428  13.648  0.0251  0.0563 -1.0311
18191TIP3   OH275987   2.513   3.153  13.843  0.1911  0.1556  0.1210
18191TIP3    H175988   2.458   3.104  13.903  1.8964 -1.7174  0.2540
18191TIP3    H275989   2.521   3.097  13.766  0.3254  1.2727 -0.7174
18192TIP3   OH275990   4.930   5.500   5.191 -0.3086  0.5362 -0.6878
18192TIP3    H175991   4.987   5.550   5.132  1.3858  0.5282  0.8442
18192TIP3    H275992   4.855   5.558   5.205  0.3220  1.4962 -1.0889
18193TIP3   OH275993   0.201   1.031   3.367 -0.5336  0.3248 -0.7291
18193TIP3    H175994   0.158   0.999   3.447 -0.4419 -0.1221 -0.8558
18193TIP3    H275995   0.129   1.038   3.304 -0.5487  0.3387 -0.7107
18194TIP3   OH275996   4.005   3.650  14.605  0.1658  0.2008  0.1122
18194TIP3    H175997   3.938   3.584  14.621  1.0311 -0.9345 -0.7354
18194TIP3    H275998   4.048   3.621  14.524  1.1034  1.3709  0.1655
18195TIP3   OH275999   0.361   4.625  12.962  0.0911 -0.0161 -0.7832
18195TIP3    H176000   0.290   4.682  12.992  0.0661 -0.4343 -0.0063
18195TIP3    H276001   0.327   4.536  12.975  1.2540 -0.2580  0.9123
18196TIP3   OH276002   6.315   4.786  13.249  0.1343  0.9101  0.2073
18196TIP3    H176003   6.355   4.859  13.296  1.3192 -0.0382  0.7361
18196TIP3    H276004   6.257   4.745  13.313  0.3965  0.6762  0.2986
18197TIP3   OH276005   3.947   1.277  13.343 -0.2964 -0.2027  0.3346
18197TIP3    H176006   3.861   1.270  13.301 -0.0113  0.6734 -0.4253
18197TIP3    H276007   3.945   1.362  13.388  0.1401 -0.2154  0.3811
18198TIP3   OH276008   1.430   5.410   3.336 -0.6801 -0.4831  0.1512
18198TIP3    H176009   1.379   5.457   3.403 -0.2484  0.1504  0.0505
18198TIP3    H276010   1.521   5.430   3.358 -0.5540  0.8252 -1.3738
18199TIP3   OH276011   1.691   6.203   3.985  0.3216  0.2572 -0.6822
18199TIP3    H176012   1.707   6.199   4.079  0.4151  1.9735 -0.5974
18199TIP3    H276013   1.596   6.208   3.976  0.3776  3.3079 -0.4548
18200TIP3   OH276014   2.743   3.035  15.562 -0.0801  0.2244  0.7952
18200TIP3    H176015   2.747   2.960  15.502  1.4406 -0.7097  1.9777
18200TIP3    H276016   2.682   3.007  15.630 -0.6399  0.6864  0.5013
18201TIP3   OH276017   2.107   6.734  12.830 -0.4312 -0.2688  0.0590
18201TIP3    H176018   2.149   6.815  12.801 -0.4766  0.3308  1.5858
18201TIP3    H276019   2.148   6.666  12.777  2.7213  0.2215  1.6550
18202TIP3   OH276020   1.702   6.693   5.847 -0.1901  0.3941  0.0136
18202TIP3    H176021   1.729   6.662   5.933  0.4789  1.3986  0.1787
18202TIP3    H276022   1.612   6.723   5.860  0.5965  2.5630  0.9303
18203TIP3   OH276023   4.469   1.274  10.930  0.0884 -0.1981 -0.2756
18203TIP3    H176024   4.481   1.233  10.844 -0.3787 -1.0230  0.0399
18203TIP3    H276025   4.481   1.202  10.992  1.4120  0.5760  0.4144
18204TIP3   OH276026   3.828   5.273   2.592  0.1434 -0.9181  0.2749
18204TIP3    H176027   3.887   5.208   2.555  0.6240  0.7723 -2.1306
18204TIP3    H276028   3.884   5.347   2.615 -0.8839  0.4711 -1.4506
18205TIP3   OH276029   0.074   1.238  16.028  0.5409  0.0694  0.1924
18205TIP3    H176030   0.088   1.189  15.947 -0.1823  1.4165 -0.7893
18205TIP3    H276031   0.127   1.317  16.018 -0.4045  0.7680  0.5185
18206TIP3   OH276032   6.103   4.815   0.086  0.6580 -0.1749  1.1133
18206TIP3    H176033   6.088   4.906   0.112  2.5413  0.8331 -0.9032
18206TIP3    H276034   6.146   4.775   0.162 -0.5218  0.4922  2.1599
18207TIP3   OH276035   3.851   1.253   4.972 -0.4720 -0.0027  0.6214
18207TIP3    H176036   3.819   1.166   4.996 -0.6072 -0.1025  0.1052
18207TIP3    H276037   3.944   1.240   4.954 -0.6840 -0.2458 -0.3791
18208TIP3   OH276038   0.428   2.603  16.430  0.4975 -0.5649  0.1099
18208TIP3    H176039   0.441   2.643  16.344 -1.0914 -1.4811 -0.5908
18208TIP3    H276040   0.441   2.510  16.415  0.0223 -0.7501  0.8257
18209TIP3   OH276041   1.652   6.747   2.613 -0.5240 -0.1170  0.2479
18209TIP3    H176042   1.617   6.801   2.685  0.4387 -0.4246  0.9652
18209TIP3    H276043   1.657   6.659   2.649 -1.4263 -0.5674 -0.6972
18210TIP3   OH276044   5.083   4.379  15.565  0.7978 -0.1099 -0.5094
18210TIP3    H176045   5.083   4.446  15.496 -0.0706 -1.1538 -1.5797
18210TIP3    H276046   5.028   4.416  15.634  1.6376  0.9317 -0.3804
18211TIP3   OH276047   5.834   1.183   0.171 -0.1145  0.5900 -0.2778
18211TIP3    H176048   5.800   1.219   0.252 -0.6425  0.3847 -0.4014
18211TIP3    H276049   5.857   1.093   0.192  2.5653  1.3470  0.4102
18212TIP3   OH276050   3.765   2.592   3.773  0.2594 -0.1788 -0.0376
18212TIP3    H176051   3.732   2.504   3.751  0.4954  0.0802 -1.4633
18212TIP3    H276052   3.727   2.649   3.707  0.2623  0.7839  0.7754
18213TIP3   OH276053   3.998   0.920  13.978 -0.6892 -0.7343  0.1736
18213TIP3    H176054   3.959   0.870  13.906 -2.1762 -2.4459  2.0193
18213TIP3    H276055   4.087   0.886  13.985 -0.3889 -0.2627 -1.0671
18214TIP3   OH276056   5.729   2.624   1.355 -0.1648  0.2670  0.3056
18214TIP3    H176057   5.770   2.566   1.291  0.4788 -0.2658  1.1641
18214TIP3    H276058   5.781   2.704   1.352  0.4441 -0.0958  0.7865
18215TIP3   OH276059   6.767   4.647  15.836  0.2800 -0.2984 -0.5425
18215TIP3    H176060   6.756   4.651  15.931  3.2107 -3.2968  0.1439
18215TIP3    H276061   6.834   4.714  15.817 -0.3248  0.3195 -0.5242
18216TIP3   OH276062   2.652   1.664   6.690 -0.3403 -0.1919 -0.4135
18216TIP3    H176063   2.654   1.689   6.598 -0.8105  0.1362 -0.3397
18216TIP3    H276064   2.675   1.572   6.691  2.5168  0.4372 -0.5955
18217TIP3   OH276065   4.282   0.317  12.580 -0.1485 -0.2611 -0.3852
18217TIP3    H176066   4.191   0.327  12.608 -0.0411 -0.2066 -0.0577
18217TIP3    H276067   4.303   0.400  12.538  0.0587  0.0905  0.4080
18218TIP3   OH276068   6.631   3.751  16.656 -0.3032 -0.0231 -0.6584
18218TIP3    H176069   6.661   3.826  16.604  0.5820  1.4249  1.7658
18218TIP3    H276070   6.698   3.684  16.643  0.8007  0.9415 -0.1017
18219TIP3   OH276071   3.181   0.768  13.619 -0.0802  0.3052  0.0662
18219TIP3    H176072   3.224   0.854  13.617  0.0399  0.3210  1.7841
18219TIP3    H276073   3.216   0.725  13.697 -0.4896 -1.1315 -0.5086
18220TIP3   OH276074   4.091   2.495   2.120  0.4094 -0.6294  0.1866
18220TIP3    H176075   4.033   2.476   2.047 -1.7787  1.0511  1.3865
18220TIP3    H276076   4.119   2.409   2.152 -1.2213 -1.4815 -0.5956
18221TIP3   OH276077   3.463   4.334  11.415 -0.7995 -0.2344 -0.7683
18221TIP3    H176078   3.417   4.417  11.407 -1.4247 -0.5657 -0.7250
18221TIP3    H276079   3.418   4.276  11.354 -1.1929 -0.8858  0.1086
18222TIP3   OH276080   1.567   4.175   1.911  0.9886 -0.0554 -0.0438
18222TIP3    H176081   1.522   4.095   1.884 -0.3824  0.1083  1.6305
18222TIP3    H276082   1.498   4.241   1.916  2.0071  1.1238 -0.8157
18223TIP3   OH276083   0.995   0.635  15.325 -0.3500 -0.0137 -0.2402
18223TIP3    H176084   0.975   0.728  15.331  1.8538  0.7925 -3.2123
18223TIP3    H276085   1.076   0.631  15.275  0.1197 -3.5339  0.5484
18224TIP3   OH276086   4.311   3.842  14.111  0.1213 -0.2503  0.1188
18224TIP3    H176087   4.282   3.814  14.024 -0.1340  1.4406 -0.3782
18224TIP3    H276088   4.251   3.798  14.171  0.1586 -1.2665 -0.5531
18225TIP3   OH276089   2.512   4.629  15.686  0.3224  0.3129 -0.5546
18225TIP3    H176090   2.449   4.636  15.758 -0.8347  1.0168 -1.6064
18225TIP3    H276091   2.597   4.649  15.727 -0.0650 -0.8581  0.9318
18226TIP3   OH276092   6.432   4.741  14.630 -0.4325 -0.5005  0.2154
18226TIP3    H176093   6.459   4.826  14.665  1.0846 -1.5493  1.7467
18226TIP3    H276094   6.350   4.760  14.584 -0.3168  1.7233  0.7784
18227TIP3   OH276095   0.136   5.036   6.132 -0.1128 -0.0083  0.6321
18227TIP3    H176096   0.206   5.022   6.197  0.5676  1.4920  0.2774
18227TIP3    H276097   0.059   4.997   6.172  0.6616 -0.6197  1.5943
18228TIP3   OH276098   3.068   2.918   6.068  0.8242 -0.4155  0.0487
18228TIP3    H176099   3.119   2.837   6.078  3.6596  1.2286  0.0891
18228TIP3    H276100   3.051   2.946   6.158  0.5078 -0.5735  0.0386
18229TIP3   OH276101   5.380   5.855   1.624  0.0735 -0.7971 -0.5041
18229TIP3    H176102   5.463   5.879   1.583  0.3057  1.4362  1.0654
18229TIP3    H276103   5.396   5.867   1.718 -1.4419 -2.3552  0.0151
18230TIP3   OH276104   4.805   1.474  14.701 -0.4904 -0.4254 -0.5960
18230TIP3    H176105   4.735   1.409  14.693 -0.6960  0.0052 -2.8539
18230TIP3    H276106   4.760   1.557  14.715 -0.2943 -0.5010  0.5699
18231TIP3   OH276107   5.839   5.871  11.883  0.7172 -0.6607  0.0886
18231TIP3    H176108   5.827   5.812  11.958 -3.4777 -0.8620 -0.4724
18231TIP3    H276109   5.774   5.940  11.896  2.5243  1.4899 -1.4879
18232TIP3   OH276110   1.089   1.569   2.419  0.0684  0.2549 -0.4204
18232TIP3    H176111   1.086   1.489   2.471  1.1176 -0.4163 -1.3586
18232TIP3    H276112   1.063   1.638   2.480 -0.4048 -0.7238  0.5263
18233TIP3   OH276113   6.322   4.423  15.820  0.0141 -0.6597  0.8036
18233TIP3    H176114   6.389   4.477  15.778  1.4050 -1.7807  1.4566
18233TIP3    H276115   6.273   4.483  15.876 -0.5221  0.4573 -0.8298
18234TIP3   OH276116   2.897   6.415  13.655  0.2053 -0.8204  0.7936
18234TIP3    H176117   2.965   6.350  13.675  0.5615 -0.6153  0.2656
18234TIP3    H276118   2.945   6.493  13.628 -0.1798 -1.5434 -2.4543
18235TIP3   OH276119   0.639   1.732  17.061  0.4635  0.2665  0.1857
18235TIP3    H176120   0.708   1.774  17.009 -0.7435  1.2253 -0.7176
18235TIP3    H276121   0.649   1.639  17.043  0.7913  0.4864 -0.8687
18236TIP3   OH276122   5.642   1.547   0.586  0.3012 -0.3150 -0.2451
18236TIP3    H176123   5.588   1.493   0.643 -2.3645  1.5246 -0.8663
18236TIP3    H276124   5.690   1.604   0.646 -1.0631  0.3512  0.2338
18237TIP3   OH276125   0.690   3.949   5.807  0.1392 -0.2534  0.2381
18237TIP3    H176126   0.662   3.878   5.748 -0.1139 -0.5710  0.7294
18237TIP3    H276127   0.763   3.990   5.762 -1.4169  0.9380 -1.3438
18238TIP3   OH276128   2.246   6.319   5.716  0.5178 -0.3116 -0.1807
18238TIP3    H176129   2.254   6.366   5.633 -0.5299  0.6747  0.2612
18238TIP3    H276130   2.163   6.348   5.753  1.1868 -0.3693  1.4537
18239TIP3   OH276131   0.464   4.675   3.077 -0.1380 -0.2001 -0.7991
18239TIP3    H176132   0.551   4.697   3.044  0.8665 -0.7860  1.3440
18239TIP3    H276133   0.477   4.599   3.133 -1.7548  0.6989  0.9012
18240TIP3   OH276134   6.513   6.370   1.292 -0.0934  0.3271  0.4542
18240TIP3    H176135   6.574   6.345   1.222 -1.4122  0.4178 -0.7523
18240TIP3    H276136   6.570   6.408   1.359  1.4864 -1.7963  0.4579
18241TIP3   OH276137   6.779   4.863   0.657  0.2623  0.1977 -0.1314
18241TIP3    H176138   6.862   4.827   0.623 -0.5081 -0.3582 -1.4999
18241TIP3    H276139   6.768   4.820   0.742  0.7613 -0.6906 -0.4907
18242TIP3   OH276140   2.969   2.594   4.349  0.3217 -0.0142  0.3235
18242TIP3    H176141   2.918   2.576   4.429 -1.3830  1.4349 -0.3807
18242TIP3    H276142   2.952   2.518   4.293 -0.9495  0.3546  0.1797
18243TIP3   OH276143   4.085   4.748  13.230  0.0014  0.1689  0.2878
18243TIP3    H176144   4.129   4.665  13.215  3.1418  1.4002  1.7312
18243TIP3    H276145   4.063   4.746  13.324  1.6790  1.5665  0.7538
18244TIP3   OH276146   0.950   3.330   5.267 -0.4917  0.2546  0.7657
18244TIP3    H176147   0.948   3.406   5.208 -1.1351  0.2119  0.7196
18244TIP3    H276148   0.985   3.364   5.349 -2.5812  1.0955  1.3824
18245TIP3   OH276149   6.693   6.503   1.439  0.0952 -0.1016  0.2075
18245TIP3    H176150   6.648   6.549   1.511  2.2715  2.0836  0.3162
18245TIP3    H276151   6.768   6.560   1.418  1.3427 -2.2801 -1.6456
18246TIP3   OH276152   1.732   2.966  14.534 -0.0171  0.8302  0.1105
18246TIP3    H176153   1.730   2.971  14.630 -1.7420  1.1606  0.0726
18246TIP3    H276154   1.750   2.874  14.516  1.2878  0.9334  0.7233
18247TIP3   OH276155   6.068   2.286   5.381  0.7995 -0.1946  0.1034
18247TIP3    H176156   6.004   2.229   5.422  1.2135 -0.2596  0.6689
18247TIP3    H276157   6.017   2.343   5.324  0.5405 -2.3754 -1.9873
18248TIP3   OH276158   0.065   6.329  13.287  0.0283  0.0561  0.6079
18248TIP3    H176159   0.110   6.402  13.330  1.3328  1.4470 -2.7959
18248TIP3    H276160  -0.026   6.357  13.283  0.3576  1.1247  0.1294
18249TIP3   OH276161   0.134   2.853  15.771 -0.6376  0.5374 -0.0603
18249TIP3    H176162   0.125   2.800  15.850  1.4220 -0.7642 -0.5932
18249TIP3    H276163   0.124   2.943  15.801 -0.2986  0.0541  1.6130
18250TIP3   OH276164   2.614   5.675   1.326  0.1482  0.1370 -0.2039
18250TIP3    H176165   2.524   5.688   1.358 -0.0410 -1.0059 -0.2403
18250TIP3    H276166   2.635   5.585   1.350  0.9326  0.0762 -1.0876
18251TIP3   OH276167   2.945   4.468  16.149 -0.3084  0.1400  0.9553
18251TIP3    H176168   2.965   4.454  16.241  0.6743 -0.5628  0.6619
18251TIP3    H276169   2.864   4.419  16.134  0.9034 -1.9819  0.8919
18252TIP3   OH276170   3.631   5.227  14.066 -0.4081  0.4761 -0.1503
18252TIP3    H176171   3.685   5.299  14.034 -0.1565  0.0499 -0.6967
18252TIP3    H276172   3.545   5.267  14.084 -0.6009  0.7024 -1.4986
18253TIP3   OH276173   5.228   3.515   5.555  0.1971 -0.5334 -0.0615
18253TIP3    H176174   5.282   3.513   5.634 -1.7460  0.0679  1.3603
18253TIP3    H276175   5.155   3.456   5.575 -1.5208  1.3470 -0.4686
18254TIP3   OH276176   5.890   0.421   2.185  0.0671  0.1905 -0.1285
18254TIP3    H176177   5.947   0.348   2.212 -0.2391  0.1477  0.4214
18254TIP3    H276178   5.862   0.461   2.268  0.6138  1.2368 -0.4305
18255TIP3   OH276179   3.558   2.839  14.447 -0.7752  0.6005 -0.3970
18255TIP3    H176180   3.642   2.885  14.443 -1.1902  1.5705  1.0810
18255TIP3    H276181   3.499   2.893  14.394 -1.2246  1.7710  1.2136
18256TIP3   OH276182   3.288   3.628   3.267  0.2489  0.4053 -0.0426
18256TIP3    H176183   3.327   3.631   3.354  2.2235  0.2270 -0.8840
18256TIP3    H276184   3.320   3.707   3.223  1.0985 -0.6262 -1.3353
18257TIP3   OH276185   5.525   2.465   0.229 -0.0652 -0.2886 -0.2561
18257TIP3    H176186   5.579   2.420   0.295 -0.4989  0.1931  0.4486
18257TIP3    H276187   5.461   2.514   0.281 -0.3678  0.1660 -1.0464
18258TIP3   OH276188   2.667   5.496  14.980 -0.1872  0.5831 -0.1121
18258TIP3    H176189   2.746   5.550  14.975 -0.1202  0.6171  0.9823
18258TIP3    H276190   2.687   5.418  14.929 -0.5813  1.9222 -2.4116
18259TIP3   OH276191   4.777   1.744   3.294  0.3199 -0.5047 -0.2924
18259TIP3    H176192   4.816   1.752   3.381 -1.0396 -0.9908  0.3920
18259TIP3    H276193   4.714   1.816   3.288  0.3374 -0.5274 -0.8432
18260TIP3   OH276194   0.883   5.107  14.331  0.3279  0.1727 -0.0521
18260TIP3    H176195   0.951   5.157  14.378 -0.8054  0.4335  1.3796
18260TIP3    H276196   0.869   5.029  14.386  0.9755 -0.9844 -1.4641
18261TIP3   OH276197   4.351   3.144  13.504  0.9174  0.0539  0.2831
18261TIP3    H176198   4.376   3.051  13.504  1.2976  0.1184 -1.4002
18261TIP3    H276199   4.338   3.165  13.412  0.5926  1.6257  0.6569
18262TIP3   OH276200   5.832   2.113   4.745 -0.2561 -0.3283 -0.0969
18262TIP3    H176201   5.858   2.068   4.825  0.1334 -0.8249 -0.4983
18262TIP3    H276202   5.850   2.206   4.763 -2.0425 -0.1661  1.1277
18263TIP3   OH276203   0.027   3.026  11.065  0.2968  0.2248  0.2370
18263TIP3    H176204  -0.017   2.969  11.128  0.9889  0.3150  0.8142
18263TIP3    H276205  -0.043   3.082  11.030 -0.7093 -1.9367 -1.4666
18264TIP3   OH276206   6.685   4.733   5.348 -0.1449 -0.1142  0.5059
18264TIP3    H176207   6.771   4.743   5.307 -0.6190  2.8788 -0.0355
18264TIP3    H276208   6.703   4.737   5.442  0.3977 -0.4905  0.4193
18265TIP3   OH276209   2.513   5.269  12.481 -0.3375 -0.3318  1.0760
18265TIP3    H176210   2.463   5.235  12.406 -1.5220 -0.7155  2.0081
18265TIP3    H276211   2.480   5.219  12.556  1.3232 -0.4527  1.7642
18266TIP3   OH276212   2.664   2.787  11.029  0.3333  0.4820  0.4445
18266TIP3    H176213   2.715   2.833  10.962  0.2655  0.0321  0.0815
18266TIP3    H276214   2.584   2.839  11.038  0.5692  0.8269  0.5443
18267TIP3   OH276215   2.854   5.260   0.459  0.3245  0.2398 -0.2756
18267TIP3    H176216   2.897   5.298   0.382 -0.7093  0.3289 -0.8200
18267TIP3    H276217   2.894   5.173   0.467  0.8306  0.4371 -0.5786
18268TIP3   OH276218   2.174   3.730   0.077  0.1207  0.3720  0.0829
18268TIP3    H176219   2.141   3.817   0.100  1.5126  1.0132 -0.2417
18268TIP3    H276220   2.269   3.735   0.093  0.3152 -0.8863 -0.5390
18269TIP3   OH276221   4.986   5.456   4.174  0.9875 -0.1462  0.4620
18269TIP3    H176222   5.007   5.371   4.136 -1.8984 -0.6121 -0.3161
18269TIP3    H276223   4.947   5.435   4.259 -0.7182  0.2621 -0.1771
18270TIP3   OH276224   3.934   5.585   3.097 -0.5573 -0.1585  0.0960
18270TIP3    H176225   3.992   5.521   3.138 -0.6159 -0.1973  0.1181
18270TIP3    H276226   3.920   5.651   3.164  0.9040  0.7878 -0.4937
18271TIP3   OH276227   0.505   1.445  16.159 -1.0063 -0.2945 -0.0392
18271TIP3    H176228   0.461   1.486  16.233 -1.2012 -0.3436 -0.1268
18271TIP3    H276229   0.594   1.480  16.162 -1.8881  2.3958 -1.7812
18272TIP3   OH276230   1.493   5.243  13.383  0.2255 -0.0014  0.0429
18272TIP3    H176231   1.404   5.220  13.412  0.5921 -2.1215 -0.2933
18272TIP3    H276232   1.499   5.203  13.296  1.6677 -0.3497  0.2832
18273TIP3   OH276233   6.464   3.620  12.323  0.9024 -0.0015 -0.0976
18273TIP3    H176234   6.481   3.714  12.330 -2.1368  0.7312 -1.0569
18273TIP3    H276235   6.526   3.590  12.257  3.9190  0.6149  2.2331
18274TIP3   OH276236   0.413   2.414   2.163 -0.2191 -0.4813 -0.1411
18274TIP3    H176237   0.476   2.383   2.098 -0.8945 -1.3902 -0.3769
18274TIP3    H276238   0.455   2.490   2.202  0.1712  0.1328 -1.6883
18275TIP3   OH276239   1.705   1.858  13.899  0.5684 -0.0849 -0.1383
18275TIP3    H176240   1.649   1.915  13.846  0.0629 -1.4610 -1.1439
18275TIP3    H276241   1.644   1.796  13.939  1.1677 -0.2801  0.4875
18276TIP3   OH276242   3.968   1.431  11.920 -0.4762 -0.0976 -0.0486
18276TIP3    H176243   3.991   1.378  11.843 -0.0110  0.0208  0.0058
18276TIP3    H276244   3.958   1.367  11.991  2.7243  0.0092  0.6773
18277TIP3   OH276245   1.128   2.124  12.527  0.0653 -0.0216  0.2613
18277TIP3    H176246   1.096   2.131  12.617  0.3289  1.4685  0.2679
18277TIP3    H276247   1.195   2.193  12.521 -2.0108  2.0111 -1.9236
18278TIP3   OH276248   2.190   3.447   2.645  0.1031 -0.6330  0.1519
18278TIP3    H176249   2.122   3.445   2.577  0.4841 -1.0349 -0.2247
18278TIP3    H276250   2.197   3.540   2.668 -0.2588 -0.5317 -0.1268
18279TIP3   OH276251   3.998   2.087   0.701  0.0607  0.0985  0.1235
18279TIP3    H176252   4.053   2.011   0.684  0.5552  0.3237  0.6685
18279TIP3    H276253   3.935   2.057   0.767 -0.3343 -0.0932 -0.3322
18280TIP3   OH276254   6.740   0.939   1.669 -0.9752 -0.0414  0.5450
18280TIP3    H176255   6.679   0.929   1.596 -0.4941 -0.0885  0.1487
18280TIP3    H276256   6.807   0.873   1.654  0.7275  1.8269 -0.5796
18281TIP3   OH276257   6.618   0.261  10.843  0.3333 -0.0530  0.0828
18281TIP3    H176258   6.643   0.169  10.849 -3.6162 -1.5644 -2.2899
18281TIP3    H276259   6.680   0.299  10.781  0.1328 -2.0842 -1.4936
18282TIP3   OH276260   6.515   0.963   4.263  0.4323 -0.3008  0.6182
18282TIP3    H176261   6.443   0.929   4.209 -0.0115 -1.5416  1.9234
18282TIP3    H276262   6.574   1.005   4.201 -0.7087 -0.5211 -0.6634
18283TIP3   OH276263   4.065   5.745  16.050 -0.5569 -0.9191 -0.5090
18283TIP3    H176264   3.973   5.737  16.074 -0.4935  1.5242  0.8267
18283TIP3    H276265   4.106   5.665  16.083 -2.0216 -1.6694 -0.4225
18284TIP3   OH276266   5.478   5.703  13.936 -0.3197 -0.4730  0.0231
18284TIP3    H176267   5.478   5.607  13.931  0.3340 -0.4512 -0.6191
18284TIP3    H276268   5.537   5.730  13.866 -2.3465  0.4983 -1.3857
18285TIP3   OH276269   2.633   0.338  15.137  0.2209 -0.1726 -0.0237
18285TIP3    H176270   2.537   0.341  15.141  0.2223  0.8853 -0.4727
18285TIP3    H276271   2.652   0.283  15.061 -0.0315 -0.0555 -0.1725
18286TIP3   OH276272   0.911   0.313  11.819  0.1439 -0.3179  0.4368
18286TIP3    H176273   0.846   0.380  11.842  0.9640  0.1085  1.5960
18286TIP3    H276274   0.962   0.354  11.749  0.6410  0.2877  1.1386
18287TIP3   OH276275   1.421   2.973  14.160 -0.0060  0.2254 -0.1411
18287TIP3    H176276   1.342   2.974  14.106 -0.9809 -1.3454  1.1953
18287TIP3    H276277   1.391   3.000  14.247  0.9086 -0.4900  0.4079
18288TIP3   OH276278   1.754   2.500   2.048 -0.0519 -0.5627 -0.1974
18288TIP3    H176279   1.760   2.432   1.982 -1.3045 -0.2867 -0.6338
18288TIP3    H276280   1.786   2.579   2.004 -1.3110 -0.2823 -0.6559
18289TIP3   OH276281   0.932   0.358   2.959 -0.0738  1.0734  0.5175
18289TIP3    H176282   0.892   0.313   2.884  2.5473 -0.5541 -0.0212
18289TIP3    H276283   0.996   0.417   2.921 -0.1474  1.7514  1.4234
18290TIP3   OH276284   2.440   5.437  10.965  0.3114  0.4890 -0.0137
18290TIP3    H176285   2.480   5.376  10.902 -1.0720 -0.3119 -0.1612
18290TIP3    H276286   2.440   5.521  10.921  2.2118  0.6404  0.1665
18291TIP3   OH276287   4.701   4.609   3.569 -0.2394 -0.2459  0.3909
18291TIP3    H176288   4.695   4.640   3.660 -1.1991 -0.0555  0.2677
18291TIP3    H276289   4.685   4.515   3.575 -0.6389 -0.1790  0.3822
18292TIP3   OH276290   0.188   3.821   6.048 -0.0806 -0.1751 -0.0078
18292TIP3    H176291   0.190   3.891   6.113  0.6526 -0.6012  0.4465
18292TIP3    H276292   0.216   3.743   6.096 -0.0602 -0.6051 -0.7085
18293TIP3   OH276293   1.376   3.217   4.317  0.2508 -0.0873 -0.1004
18293TIP3    H176294   1.355   3.124   4.326 -0.0853 -0.2283 -1.9260
18293TIP3    H276295   1.364   3.253   4.405 -2.7432 -1.1612  0.0551
18294TIP3   OH276296   3.360   6.083   5.824  0.2731  0.4641 -0.2759
18294TIP3    H176297   3.442   6.119   5.791  0.1117  0.1607 -1.0291
18294TIP3    H276298   3.372   6.080   5.919  1.5051 -0.4540 -0.4351
18295TIP3   OH276299   5.410   4.058   1.086  0.5205 -0.4478 -0.6058
18295TIP3    H176300   5.369   4.138   1.120  0.8803 -1.1146  1.5020
18295TIP3    H276301   5.338   3.994   1.083  0.5735 -0.5012 -0.7353
18296TIP3   OH276302   5.725   4.995  12.563  0.2466  0.4120 -0.0306
18296TIP3    H176303   5.641   4.984  12.519 -0.3803  0.8496  1.0237
18296TIP3    H276304   5.736   4.915  12.614  0.9657 -0.0903 -0.9637
18297TIP3   OH276305   0.045   3.610   1.542  0.0050  0.2328  0.7115
18297TIP3    H176306  -0.035   3.634   1.589 -0.5544  1.3314 -0.7426
18297TIP3    H276307   0.098   3.690   1.542  1.1119 -0.4584  1.5915
18298TIP3   OH276308   6.186   1.533  13.765 -0.0565  0.1742 -0.1240
18298TIP3    H176309   6.229   1.609  13.805 -0.6548  0.7517 -0.5723
18298TIP3    H276310   6.093   1.550  13.774 -0.2621 -1.4753  1.6035
18299TIP3   OH276311   6.448   0.978   1.789 -0.4324  0.2913  0.1722
18299TIP3    H176312   6.543   0.989   1.784 -0.3442 -0.9247 -1.3373
18299TIP3    H276313   6.435   0.921   1.865  0.0521  0.2689  0.2429
18300TIP3   OH276314   4.243   4.408   3.134 -0.4577 -0.1078  0.8540
18300TIP3    H176315   4.255   4.404   3.229 -1.2272  1.7039  1.0716
18300TIP3    H276316   4.239   4.502   3.115  1.0067 -0.3966 -1.1681
18301TIP3   OH276317   4.557   4.419  15.406  0.1420 -0.0517 -0.1866
18301TIP3    H176318   4.608   4.496  15.432 -1.0062  0.4676  0.5707
18301TIP3    H276319   4.592   4.348  15.459  0.2005  0.2615  0.1971
18302TIP3   OH276320   0.057   5.553  16.012  0.4624  0.4621  0.7864
18302TIP3    H176321   0.059   5.645  16.038  2.2086  0.1863  1.8249
18302TIP3    H276322  -0.034   5.528  16.021  0.0280  1.9639  0.9358
18303TIP3   OH276323   6.475   5.180   0.600  0.2382 -0.3161  0.6061
18303TIP3    H176324   6.497   5.091   0.629  0.8980 -0.3271  0.0883
18303TIP3    H276325   6.428   5.218   0.674 -1.5813 -1.6602  0.2030
18304TIP3   OH276326   6.245   5.614  16.361  0.2450  0.1680  0.3386
18304TIP3    H176327   6.175   5.559  16.326 -0.4061  0.8759  0.4848
18304TIP3    H276328   6.277   5.567  16.438  0.7013 -0.7017 -0.3811
18305TIP3   OH276329   0.553   2.916   0.113  0.7647 -0.1799  0.2526
18305TIP3    H176330   0.493   2.986   0.137  1.3685  0.3010  0.4048
18305TIP3    H276331   0.589   2.943   0.028  1.2919 -0.1090  0.4955
18306TIP3   OH276332   6.489   4.385  12.657 -0.5750  0.2525 -0.1899
18306TIP3    H176333   6.549   4.457  12.675 -0.9676  0.9607 -1.6018
18306TIP3    H276334   6.425   4.421  12.596 -2.4516 -0.4885  1.2429
18307TIP3   OH276335   1.540   3.511   2.030 -0.5096  0.3979 -0.4065
18307TIP3    H176336   1.506   3.466   2.108 -0.1451 -0.6125 -0.8126
18307TIP3    H276337   1.579   3.441   1.978  2.2807  1.4712  0.0647
18308TIP3   OH276338   3.271   5.377   0.659  0.8317 -0.1038  0.3106
18308TIP3    H176339   3.359   5.391   0.693  1.5563  0.4885 -1.6861
18308TIP3    H276340   3.224   5.458   0.680  1.6965  0.8587 -1.2404
18309TIP3   OH276341   0.541   1.712   0.502 -0.6953 -0.2082 -0.2021
18309TIP3    H176342   0.478   1.702   0.430  0.2245 -0.7503 -0.9522
18309TIP3    H276343   0.512   1.649   0.568 -2.2439  1.1072  0.4584
18310TIP3   OH276344   4.349   4.396   4.328 -0.7076  0.1386  0.0266
18310TIP3    H176345   4.330   4.440   4.410  0.6521  1.4366 -0.3184
18310TIP3    H276346   4.277   4.420   4.270 -0.1534  1.6807 -0.0554
18311TIP3   OH276347   2.353   3.693   3.240 -0.6063  0.2011 -0.4986
18311TIP3    H176348   2.303   3.747   3.179 -2.0144 -2.3265 -1.7543
18311TIP3    H276349   2.317   3.605   3.228  3.1645 -1.5299 -0.3834
18312TIP3   OH276350   0.466   1.092   3.390  0.5264 -0.2970  0.7505
18312TIP3    H176351   0.382   1.093   3.344  2.0067  0.7211 -2.2235
18312TIP3    H276352   0.445   1.063   3.479 -3.0092  0.4716  0.3029
18313TIP3   OH276353   2.373   4.929  14.705  0.3167 -0.6954  0.4425
18313TIP3    H176354   2.423   4.862  14.659 -0.4321 -1.3272  0.5303
18313TIP3    H276355   2.352   4.994  14.638  0.5261 -0.8489  0.2264
18314TIP3   OH276356   0.197   0.920   2.359 -0.4271  0.0935  0.1032
18314TIP3    H176357   0.187   1.015   2.357  1.0752  0.2824  0.4267
18314TIP3    H276358   0.236   0.898   2.275  0.0169 -0.1336  0.3658
18315TIP3   OH276359   6.515   3.579  12.014 -0.0959  0.1573  0.1407
18315TIP3    H176360   6.564   3.549  11.937  0.2859  1.4624 -0.1505
18315TIP3    H276361   6.427   3.597  11.980  0.2278  1.2999 -0.1554
18316TIP3   OH276362   0.504   3.700  15.142 -0.3761  0.6772 -0.1955
18316TIP3    H176363   0.500   3.620  15.194 -1.9832  1.6338  1.2869
18316TIP3    H276364   0.485   3.672  15.052  1.7740 -0.9194 -0.2199
18317TIP3   OH276365   5.243   4.279  15.844  0.3635 -0.3070  0.7194
18317TIP3    H176366   5.184   4.288  15.769 -1.0736  1.1707  1.9365
18317TIP3    H276367   5.312   4.220  15.814 -0.3004  0.0251 -1.6568
18318TIP3   OH276368   0.121   1.908   3.785 -0.1318  0.1987  0.2658
18318TIP3    H176369   0.026   1.923   3.787 -0.2676 -0.7094  1.3465
18318TIP3    H276370   0.156   1.977   3.842 -0.4742 -1.4639  2.6143
18319TIP3   OH276371   6.031   2.097  10.980 -0.0295  0.2900  0.1295
18319TIP3    H176372   6.040   2.111  10.886 -1.5467 -1.2010 -0.2964
18319TIP3    H276373   5.937   2.100  10.996  0.0462 -1.4539  1.2203
18320TIP3   OH276374   1.873   4.389   1.958  0.3933 -0.1398 -0.0639
18320TIP3    H176375   1.885   4.393   1.863 -0.8320 -0.7944 -0.2612
18320TIP3    H276376   1.860   4.296   1.977 -0.1131  0.0692  0.6530
18321TIP3   OH276377   5.385   6.631  13.214 -0.3289  0.2590 -0.0664
18321TIP3    H176378   5.456   6.628  13.150 -0.6945  0.0077 -0.4602
18321TIP3    H276379   5.430   6.633  13.299  0.1690 -2.4608 -0.1780
18322TIP3   OH276380   5.420   0.882  12.487 -0.3716 -0.1608  0.3857
18322TIP3    H176381   5.434   0.972  12.516  0.0390 -0.4917  1.2628
18322TIP3    H276382   5.356   0.847  12.549  0.5892 -0.9174  0.9781
18323TIP3   OH276383   6.604   3.381   6.578  0.1120  0.0903  0.2550
18323TIP3    H176384   6.540   3.371   6.508 -1.1979  0.0818  1.4230
18323TIP3    H276385   6.673   3.319   6.556 -1.6548 -2.0590  0.4713
18324TIP3   OH276386   6.663   3.103   2.746 -0.1229 -0.1620 -0.2132
18324TIP3    H176387   6.614   3.184   2.757  1.3304  0.6615  0.5423
18324TIP3    H276388   6.626   3.063   2.667  0.9662  2.6659 -2.3550
18325TIP3   OH276389   2.328   4.626  15.873  0.3017  0.2591 -0.0817
18325TIP3    H176390   2.324   4.634  15.968 -0.7360 -1.2029  0.0411
18325TIP3    H276391   2.240   4.647  15.843  0.8424  1.5891 -0.8356
18326TIP3   OH276392   5.215   3.998  13.044  0.1156  0.1855 -0.6071
18326TIP3    H176393   5.300   4.015  13.085  0.3553  1.8095 -1.6736
18326TIP3    H276394   5.232   3.926  12.983  0.0279 -1.4149  1.1582
18327TIP3   OH276395   3.244   4.547  12.100  0.6395  0.6623 -0.0897
18327TIP3    H176396   3.181   4.528  12.031  0.4205  1.2430 -0.0563
18327TIP3    H276397   3.201   4.613  12.154  1.2009  0.9282  0.0370
18328TIP3   OH276398   6.470   5.714  15.642  0.0296 -0.2657  0.0407
18328TIP3    H176399   6.496   5.807  15.639 -2.4844  0.4790 -2.0179
18328TIP3    H276400   6.533   5.671  15.585 -0.3834  0.7014 -1.2072
18329TIP3   OH276401   5.578   0.592  15.582 -0.1934  0.3176 -1.3191
18329TIP3    H176402   5.508   0.650  15.552 -1.2730  0.4519  1.1786
18329TIP3    H276403   5.568   0.512  15.530 -4.2782 -0.9096  0.9276
18330TIP3   OH276404   6.317   1.048   3.355  0.0572 -0.3695  0.3760
18330TIP3    H176405   6.365   1.048   3.438  1.3556 -0.5733 -0.3405
18330TIP3    H276406   6.385   1.058   3.288 -0.7106 -2.1849 -0.7698
18331TIP3   OH276407   2.870   3.712  15.646 -0.1634 -0.1437  0.1074
18331TIP3    H176408   2.802   3.648  15.665  1.7438 -2.0268  0.9834
18331TIP3    H276409   2.857   3.735  15.554 -0.2527 -2.7012 -0.5781
18332TIP3   OH276410   0.751   1.726  13.431  0.0332  0.4527  0.1157
18332TIP3    H176411   0.728   1.670  13.505 -0.2798  0.7961  0.2891
18332TIP3    H276412   0.795   1.801  13.471 -0.7738  0.9822  0.0347
18333TIP3   OH276413   6.523   4.245  16.303  0.6406 -0.2025 -0.6106
18333TIP3    H176414   6.522   4.152  16.284  4.0240 -0.2951 -0.8276
18333TIP3    H276415   6.587   4.255  16.373  0.0731  1.9361 -0.3211
18334TIP3   OH276416   0.364   0.255  11.337  0.1655 -0.0972 -0.0265
18334TIP3    H176417   0.448   0.225  11.372  0.6746  1.2666 -0.0386
18334TIP3    H276418   0.330   0.180  11.288  1.3685 -0.6586 -0.0224
18335TIP3   OH276419   0.654   2.043   1.863  0.0768 -0.1016  0.2711
18335TIP3    H176420   0.644   2.039   1.768  1.5138 -1.5116  0.1336
18335TIP3    H276421   0.622   1.958   1.894  1.6978 -0.5548  0.7917
18336TIP3   OH276422   3.182   0.673   1.761 -0.3904 -0.0340  0.0206
18336TIP3    H176423   3.120   0.632   1.821 -1.0556  0.6219 -0.1942
18336TIP3    H276424   3.235   0.731   1.816 -2.3867  2.1932 -0.2527
18337TIP3   OH276425   3.229   6.467  16.670 -0.1744 -0.6447 -0.0013
18337TIP3    H176426   3.207   6.492  16.580 -0.4963 -0.5278  0.1089
18337TIP3    H276427   3.318   6.432  16.664  1.6022  3.2624  0.2703
18338TIP3   OH276428   5.357   0.243  11.262  0.1747 -0.6754  0.1719
18338TIP3    H176429   5.405   0.213  11.185  1.1264  0.3570  0.3382
18338TIP3    H276430   5.422   0.291  11.314 -0.7050 -0.4378  1.0885
18339TIP3   OH276431   5.880   1.518   6.031  0.1854  0.1054 -0.0234
18339TIP3    H176432   5.905   1.583   6.097  1.4438  1.4333 -1.7078
18339TIP3    H276433   5.944   1.448   6.042  1.1243  0.8478 -0.5193
18340TIP3   OH276434   6.431   5.236  11.223  0.3577  0.0290  0.4886
18340TIP3    H176435   6.506   5.180  11.242 -0.2758 -0.5799  1.3000
18340TIP3    H276436   6.429   5.243  11.127  0.0906 -1.8736  0.3203
18341TIP3   OH276437   1.221   3.682  13.149 -0.2621 -0.8144  0.1999
18341TIP3    H176438   1.151   3.699  13.087 -0.8137  0.0561  1.0227
18341TIP3    H276439   1.301   3.697  13.100 -0.6664  2.8852  0.3884
18342TIP3   OH276440   6.446   6.258   1.927 -0.3356 -0.3192  0.1461
18342TIP3    H176441   6.378   6.326   1.928  0.8903  0.9501  1.0241
18342TIP3    H276442   6.510   6.290   1.863 -0.0246 -0.9432  0.1412
18343TIP3   OH276443   5.314   5.804  12.630 -0.0107  0.4922 -0.1511
18343TIP3    H176444   5.254   5.835  12.562 -0.2816  0.1043 -0.0932
18343TIP3    H276445   5.256   5.776  12.701  0.2207 -0.3122 -0.2737
18344TIP3   OH276446   1.327   1.313   3.689 -0.2065  0.2626  0.0432
18344TIP3    H176447   1.363   1.298   3.777 -1.3347  1.7712  0.8017
18344TIP3    H276448   1.394   1.366   3.646  0.3470 -0.4713 -0.0245
18345TIP3   OH276449   6.625   2.888   5.399 -0.0481 -0.4851  0.5567
18345TIP3    H176450   6.575   2.828   5.343  0.1975 -0.8391  0.7109
18345TIP3    H276451   6.680   2.830   5.452  2.0236 -0.0842 -1.0084
18346TIP3   OH276452   2.973   4.069   4.900  0.4568  0.4012  0.1101
18346TIP3    H176453   2.974   4.156   4.859  1.0063 -0.8611 -2.7992
18346TIP3    H276454   2.881   4.043   4.898  0.0829  1.3347  2.1705
18347TIP3   OH276455   1.669   1.162   1.286 -0.4905 -0.3843 -0.2099
18347TIP3    H176456   1.599   1.134   1.344 -1.0396  1.7256  0.2173
18347TIP3    H276457   1.629   1.230   1.231  0.7950 -0.2660 -1.0414
18348TIP3   OH276458   5.798   1.309  15.725  0.0169  0.1490  0.0967
18348TIP3    H176459   5.719   1.288  15.776 -0.5572  2.4103  0.2295
18348TIP3    H276460   5.864   1.247  15.757 -1.3969 -1.0927  0.7404
18349TIP3   OH276461   5.961   2.976  11.130 -0.0985  0.2077 -0.2645
18349TIP3    H176462   5.917   2.954  11.048 -1.7661  2.2617  0.0103
18349TIP3    H276463   5.913   2.927  11.197  1.6754 -2.0039 -0.4634
18350TIP3   OH276464   4.913   0.039  16.880  0.4030 -0.1811 -0.4058
18350TIP3    H176465   4.903   0.062  16.972 -0.4995 -0.2699 -0.4703
18350TIP3    H276466   4.888   0.118  16.832  0.6473 -0.2072 -0.5759
18351TIP3   OH276467   0.697   3.463  16.561 -0.6258 -0.1449 -0.2879
18351TIP3    H176468   0.788   3.446  16.584 -0.7430 -0.1576  0.1699
18351TIP3    H276469   0.646   3.417  16.627 -0.9607  0.2685 -0.2554
18352TIP3   OH276470   5.037   1.918  16.852 -0.3025  0.5152 -0.4461
18352TIP3    H176471   5.051   1.868  16.933  0.7619  1.4513 -0.0227
18352TIP3    H276472   4.953   1.888  16.820 -2.0198  1.8860  2.3626
18353TIP3   OH276473   6.399   1.694  16.601  0.2583 -0.0730 -0.0066
18353TIP3    H176474   6.442   1.621  16.646  0.1569 -0.4578 -0.5318
18353TIP3    H276475   6.327   1.719  16.660  0.2902 -0.4020  0.1731
18354TIP3   OH276476   2.190   5.766   4.123  0.6835  0.1681 -0.1158
18354TIP3    H176477   2.159   5.785   4.211 -0.5423  0.7722 -0.6467
18354TIP3    H276478   2.284   5.749   4.133  0.5568  0.1994  1.2926
18355TIP3   OH276479   1.053   5.786  13.267  0.3852 -0.5709 -0.2113
18355TIP3    H176480   1.092   5.843  13.200  0.2227 -0.9356 -0.6196
18355TIP3    H276481   1.092   5.816  13.349  0.6123 -0.1397 -0.4705
18356TIP3   OH276482   4.041   5.711  13.723  0.6412  0.4912  0.3158
18356TIP3    H176483   4.012   5.761  13.647 -0.8178  1.1057  1.2190
18356TIP3    H276484   4.130   5.684  13.702  0.8798  2.0742 -0.8954
18357TIP3   OH276485   5.311   3.798   1.094  0.0702 -0.6867 -0.5826
18357TIP3    H176486   5.298   3.782   1.000 -1.0290  2.6232 -1.1265
18357TIP3    H276487   5.241   3.747   1.136 -1.0418 -0.2140 -1.7919
18358TIP3   OH276488   0.005   0.822   4.188  0.3998 -0.0195  0.3312
18358TIP3    H176489  -0.050   0.816   4.111  1.5024  0.5726 -0.5353
18358TIP3    H276490  -0.056   0.840   4.260 -0.6041 -0.2614 -0.4428
18359TIP3   OH276491   0.021   1.572  14.041  0.2790 -0.2209 -0.2520
18359TIP3    H176492   0.111   1.539  14.035  0.3546 -0.2838  0.9904
18359TIP3    H276493  -0.023   1.510  14.099  0.1237  1.2122  1.2063
18360TIP3   OH276494   0.814   5.936  10.554  0.1199 -0.3498  0.1358
18360TIP3    H176495   0.852   5.919  10.468 -0.0045  0.5321 -0.1087
18360TIP3    H276496   0.826   6.031  10.566 -1.6631 -0.1056  0.2194
18361TIP3   OH276497   3.596   2.702   2.852 -0.0446  0.0291 -0.3296
18361TIP3    H176498   3.540   2.624   2.857 -1.0430  0.7161 -0.5904
18361TIP3    H276499   3.564   2.760   2.921  0.2118  0.5177 -0.6140
18362TIP3   OH276500   1.349   0.787   4.559  0.0454 -0.1683  0.1572
18362TIP3    H176501   1.444   0.788   4.553 -0.0199  0.1002 -0.9609
18362TIP3    H276502   1.331   0.787   4.653  1.1274  2.6442  0.4484
18363TIP3   OH276503   3.394   3.060   6.088  0.4385 -0.2424  0.5342
18363TIP3    H176504   3.369   2.970   6.110 -1.1480  0.4880  1.9242
18363TIP3    H276505   3.418   3.100   6.171  0.4860  0.8149  0.0298
18364TIP3   OH276506   0.253   4.389  14.920 -0.5869 -0.0475 -0.5494
18364TIP3    H176507   0.224   4.299  14.934 -0.3785  0.1530  1.4572
18364TIP3    H276508   0.172   4.440  14.919 -0.6173 -0.0816 -0.0769
18365TIP3   OH276509   2.481   5.020   3.799 -0.0594 -0.4254 -0.0081
18365TIP3    H176510   2.564   5.002   3.844  0.6601 -2.0137 -1.8484
18365TIP3    H276511   2.438   5.085   3.855  1.8659 -0.4481  1.6389
18366TIP3   OH276512   1.879   5.939  15.384 -0.0140 -0.0015 -0.4604
18366TIP3    H176513   1.820   5.880  15.431 -0.8476  1.4759  0.4255
18366TIP3    H276514   1.836   6.024  15.387  1.9212  1.0406 -0.2039
18367TIP3   OH276515   4.885   6.374  13.425 -0.3937  0.4714 -0.2890
18367TIP3    H176516   4.881   6.370  13.330  0.9425 -0.2527 -0.3406
18367TIP3    H276517   4.877   6.284  13.454  1.2183  0.4210  0.1425
18368TIP3   OH276518   6.254   5.744   6.535  0.0864 -0.3097  0.0470
18368TIP3    H176519   6.224   5.703   6.616 -0.6443  0.5700  0.2360
18368TIP3    H276520   6.185   5.806   6.512  0.4789 -0.2409 -1.0240
18369TIP3   OH276521   6.484   2.167  12.117  0.4190 -0.1955  0.6657
18369TIP3    H176522   6.435   2.233  12.166  0.5415 -0.4529  1.1449
18369TIP3    H276523   6.573   2.200  12.115  0.3168  0.0593  0.1734
18370TIP3   OH276524   3.483   2.541  11.648 -0.0843 -0.0446  0.2465
18370TIP3    H176525   3.500   2.542  11.742 -1.6579  0.0582  0.5624
18370TIP3    H276526   3.440   2.625  11.631 -4.0192 -1.8204  0.3653
18371TIP3   OH276527   0.082   5.925   4.300  0.0200 -0.1977 -0.1125
18371TIP3    H176528   0.135   5.849   4.320 -0.6957 -0.9889 -1.1163
18371TIP3    H276529   0.075   5.926   4.205 -1.9566 -0.2748 -0.0092
18372TIP3   OH276530   2.641   5.057   3.559  0.2180  0.5004  0.3412
18372TIP3    H176531   2.603   5.053   3.647 -0.0635  0.0258  0.2042
18372TIP3    H276532   2.565   5.051   3.500  0.2732  2.1685  0.0569
18373TIP3   OH276533   4.578   0.808  14.285 -0.3046  0.1760  0.2436
18373TIP3    H176534   4.599   0.891  14.326  1.4999  0.3352 -0.8926
18373TIP3    H276535   4.485   0.794  14.304 -0.3777  1.9279  1.3179
18374TIP3   OH276536   5.911   6.417   5.241 -0.2392  0.4188 -0.3520
18374TIP3    H176537   5.883   6.425   5.150 -1.5232 -0.1061 -0.0336
18374TIP3    H276538   5.874   6.494   5.284 -0.5114  0.1485 -0.0899
18375TIP3   OH276539   1.875   1.032   5.264  0.8052  0.4994 -0.1912
18375TIP3    H176540   1.848   0.989   5.183 -1.5696  0.9916  0.2787
18375TIP3    H276541   1.864   1.125   5.246  0.5549  0.6257  0.5953
18376TIP3   OH276542   3.080   6.117   5.743  0.3331  0.5471  0.1376
18376TIP3    H176543   3.065   6.208   5.716  0.3052  0.5579  0.1886
18376TIP3    H276544   3.171   6.116   5.773  0.5249  0.4166 -0.4307
18377TIP3   OH276545   4.975   2.834   6.056  0.0210 -0.5256 -0.4902
18377TIP3    H176546   4.908   2.902   6.054  0.8394  0.3211  0.1267
18377TIP3    H276547   4.970   2.798   6.144 -1.4112 -2.3363 -1.2484
18378TIP3   OH276548   3.067   6.507  15.165 -0.3626 -0.0625 -0.0229
18378TIP3    H176549   3.120   6.470  15.094 -0.4275 -1.4988  0.6614
18378TIP3    H276550   2.980   6.469  15.153 -0.5166  0.1165  0.5055
18379TIP3   OH276551   4.494   4.707  16.957 -0.4414 -0.0456 -0.2361
18379TIP3    H176552   4.401   4.682  16.956 -0.7160  0.8958 -0.0037
18379TIP3    H276553   4.517   4.718  16.865 -0.6122 -0.1050 -0.2873
18380TIP3   OH276554   6.431   2.541  14.085  0.2042 -0.3596 -0.1976
18380TIP3    H176555   6.367   2.611  14.098 -0.8680 -0.9589 -1.9009
18380TIP3    H276556   6.515   2.586  14.078 -0.4716  0.7719 -1.2998
18381TIP3   OH276557   2.291   4.285   1.738 -0.2015  0.1247 -0.2110
18381TIP3    H176558   2.224   4.267   1.673  1.2321  2.5708 -2.5518
18381TIP3    H276559   2.261   4.365   1.782  1.0986  1.2701 -1.3110
18382TIP3   OH276560   4.528   5.333  15.568 -0.4199 -0.1065  0.0920
18382TIP3    H176561   4.536   5.332  15.664  0.5348  0.0686  0.0283
18382TIP3    H276562   4.486   5.416  15.548  2.0961  1.2943  0.2133
18383TIP3   OH276563   3.797   4.077  17.094 -0.5519 -0.4918 -0.1625
18383TIP3    H176564   3.771   3.985  17.091  1.7004 -1.2147  0.4726
18383TIP3    H276565   3.715   4.125  17.102 -1.9099 -2.3245 -2.0104
18384TIP3   OH276566   5.668   1.728   1.407 -0.1869 -0.0012 -0.2674
18384TIP3    H176567   5.655   1.815   1.369  0.8806  0.2134 -0.1663
18384TIP3    H276568   5.584   1.707   1.449  0.2107  1.9900  1.7342
18385TIP3   OH276569   5.604   4.440  17.222 -0.3939 -0.1326  0.0440
18385TIP3    H176570   5.526   4.401  17.183 -0.7583 -1.8093  2.3059
18385TIP3    H276571   5.590   4.434  17.316  2.2536 -0.0160  0.5112
18386TIP3   OH276572   1.744   3.072   1.656 -0.2708 -0.0155  0.2339
18386TIP3    H176573   1.680   3.063   1.726 -0.1279 -1.0709  0.2378
18386TIP3    H276574   1.736   2.992   1.605 -1.4614  1.3494 -1.9092
18387TIP3   OH276575   4.911   6.260   4.240  0.0385  0.1209 -0.5344
18387TIP3    H176576   4.864   6.335   4.204 -2.7808 -0.3581  1.7755
18387TIP3    H276577   4.914   6.197   4.168 -1.8395  0.6747 -1.1537
18388TIP3   OH276578   1.915   4.680  13.481 -0.5643  0.0963 -0.5452
18388TIP3    H176579   1.921   4.589  13.511 -1.6630  0.2196  0.1014
18388TIP3    H276580   1.888   4.673  13.389  0.3555 -0.2432 -0.7945
18389TIP3   OH276581   1.249   4.373  15.340 -0.6926  0.4085  0.4115
18389TIP3    H176582   1.270   4.451  15.287 -0.8147  0.1620 -0.0007
18389TIP3    H276583   1.224   4.307  15.276  0.6626 -0.3775  0.6612
18390TIP3   OH276584   2.020   4.898  13.954  0.0856  0.2510  0.1459
18390TIP3    H176585   1.969   4.818  13.967  1.8759 -0.9420  0.1518
18390TIP3    H276586   2.111   4.870  13.963  0.7593  2.3295  0.2815
18391TIP3   OH276587   2.323   3.541   3.870  0.4538 -0.3269  0.1705
18391TIP3    H176588   2.340   3.447   3.860 -0.5661 -0.9827  3.2240
18391TIP3    H276589   2.410   3.580   3.882  0.8722 -0.8767 -0.9376
18392TIP3   OH276590   0.983   6.020   0.117 -0.4543  0.6497  0.1414
18392TIP3    H176591   1.031   5.937   0.119  0.9487  1.3968  3.5095
18392TIP3    H276592   1.050   6.086   0.096 -1.4929  1.0684 -2.1840
18393TIP3   OH276593   0.060   1.392   0.439 -0.3101  0.0165 -0.3255
18393TIP3    H176594   0.020   1.341   0.368 -0.3057 -0.3815 -0.0431
18393TIP3    H276595  -0.011   1.406   0.502 -0.4160  0.7121 -0.5901
18394TIP3   OH276596   6.192   3.883   0.924 -0.1610 -0.2817  0.3990
18394TIP3    H176597   6.196   3.979   0.923 -0.6856 -0.2376 -1.1257
18394TIP3    H276598   6.124   3.863   0.989 -1.5155  0.5047 -0.6987
18395TIP3   OH276599   5.436   4.988  14.499 -0.3059  0.4062  0.7791
18395TIP3    H176600   5.353   5.033  14.483 -1.0227 -1.2612 -0.5227
18395TIP3    H276601   5.426   4.950  14.586 -0.7975  0.4292  0.7344
18396TIP3   OH276602   0.717   0.520  16.285  0.5631 -0.4030 -0.4336
18396TIP3    H176603   0.777   0.554  16.351 -1.0680  0.4880  0.6571
18396TIP3    H276604   0.641   0.488  16.334  0.6127 -2.6579 -1.6754
18397TIP3   OH276605   5.775   4.572   5.492 -0.0886 -0.5675  0.1725
18397TIP3    H176606   5.799   4.524   5.571  1.2449  0.3998  0.3937
18397TIP3    H276607   5.704   4.630   5.519  0.4822 -0.1155  0.7237
18398TIP3   OH276608   5.942   2.827  10.676  0.0489  0.4525  0.5933
18398TIP3    H176609   5.893   2.909  10.663  0.1273  0.2904 -0.9035
18398TIP3    H276610   5.913   2.770  10.604 -0.1044 -0.8977  1.6915
18399TIP3   OH276611   1.585   1.113   1.723 -0.8015  0.0496 -0.0968
18399TIP3    H176612   1.554   1.151   1.805 -0.6935  1.7089 -0.7992
18399TIP3    H276613   1.640   1.180   1.684  0.1662 -1.1889 -0.9595
18400TIP3   OH276614   1.008   5.105  16.821  0.3114  0.3085  0.3961
18400TIP3    H176615   1.040   5.015  16.823  0.0282  0.1422 -1.2229
18400TIP3    H276616   0.938   5.107  16.887  0.0631 -0.7677  0.1833
18401TIP3   OH276617   5.590   3.198  13.970 -0.0285 -0.1034  0.1807
18401TIP3    H176618   5.513   3.252  13.955 -0.7375 -1.2772 -0.5808
18401TIP3    H276619   5.611   3.211  14.063 -2.0969 -0.9098  0.8274
18402TIP3   OH276620   4.878   6.058   1.091 -0.2040  0.0410  0.7685
18402TIP3    H176621   4.897   6.078   1.182 -0.7803  2.2915  0.4529
18402TIP3    H276622   4.891   6.141   1.045 -2.9907 -0.1984 -0.6745
18403TIP3   OH276623   1.666   1.638  13.676  0.4741 -0.1964 -0.4069
18403TIP3    H176624   1.572   1.640  13.695  0.5175  0.2317 -0.2288
18403TIP3    H276625   1.701   1.569  13.733  0.2922 -0.2631 -0.3757
18404TIP3   OH276626   1.888   2.672  16.617 -0.3618  0.3644 -0.4574
18404TIP3    H176627   1.838   2.749  16.644 -0.2055  0.4085 -0.2935
18404TIP3    H276628   1.827   2.599  16.625  0.2280  0.0655  1.8857
18405TIP3   OH276629   2.459   5.151  15.957 -0.1887 -0.2168  0.4072
18405TIP3    H176630   2.465   5.110  16.043 -0.3261 -1.4726 -0.1494
18405TIP3    H276631   2.389   5.103  15.913  1.3481 -1.1218 -1.1816
18406TIP3   OH276632   3.833   4.889   2.812  0.3827 -0.7322 -0.1731
18406TIP3    H176633   3.867   4.973   2.843  1.0512 -1.3813  0.9318
18406TIP3    H276634   3.883   4.872   2.732  0.4108 -0.1972 -0.2768
18407TIP3   OH276635   0.588   1.284  16.537  0.0886 -0.1743 -0.2667
18407TIP3    H176636   0.537   1.235  16.473 -0.9200 -0.6089  0.8372
18407TIP3    H276637   0.524   1.341  16.580  1.1383  1.8579 -1.2125
18408TIP3   OH276638   2.057   1.490  15.967  0.1134  0.1401 -0.6128
18408TIP3    H176639   1.972   1.521  15.936 -1.3382 -2.0708  0.8248
18408TIP3    H276640   2.078   1.418  15.908  0.4146 -0.0417 -0.2873
18409TIP3   OH276641   6.745   0.323   4.379  0.1800 -0.0397 -0.1593
18409TIP3    H176642   6.764   0.263   4.451 -1.2761  1.7347  1.8302
18409TIP3    H276643   6.830   0.340   4.339  1.0167 -1.1637  1.0413
18410TIP3   OH276644   3.093   0.100   3.160  0.5567  0.3417  0.2761
18410TIP3    H176645   3.064   0.135   3.075  1.3205 -0.2932 -0.2581
18410TIP3    H276646   3.137   0.174   3.202  1.1900  0.3542 -0.3766
18411TIP3   OH276647   5.241   5.384  16.819 -0.0737 -0.3309  0.2917
18411TIP3    H176648   5.152   5.420  16.827 -0.2403 -0.9793  1.5434
18411TIP3    H276649   5.236   5.300  16.864  0.2085 -2.1471 -2.7926
18412TIP3   OH276650   4.669   1.265  11.138  0.0534  0.3394 -0.2482
18412TIP3    H176651   4.666   1.178  11.098  0.3948  0.2497 -0.0832
18412TIP3    H276652   4.595   1.265  11.199  0.6291 -0.1987  0.4712
18413TIP3   OH276653   6.434   3.244  15.671  0.3046 -0.0332 -0.2336
18413TIP3    H176654   6.389   3.327  15.685  0.2611  0.0810 -0.9707
18413TIP3    H276655   6.509   3.246  15.730 -0.5434 -0.1411  0.8633
18414TIP3   OH276656   6.540   2.182   0.273 -0.3603  0.0080  0.1786
18414TIP3    H176657   6.499   2.099   0.297 -1.2906 -0.2841 -2.1127
18414TIP3    H276658   6.534   2.236   0.352 -1.2054 -1.5500  1.2268
18415TIP3   OH276659   3.686   5.181  12.905  0.2470 -0.1182  0.1498
18415TIP3    H176660   3.696   5.134  12.988  0.3624  0.2112  0.3272
18415TIP3    H276661   3.770   5.170  12.861  1.0176  1.5571  1.0646
18416TIP3   OH276662   0.058   5.830  12.521  1.0427  0.4027 -0.6542
18416TIP3    H176663   0.031   5.809  12.610  2.4514 -0.3420 -0.3725
18416TIP3    H276664   0.004   5.774  12.465  1.7111 -0.8097 -0.1297
18417TIP3   OH276665   5.580   3.193   3.940  0.4783 -0.5175  0.7363
18417TIP3    H176666   5.629   3.166   3.862  0.6819  0.5987  0.4673
18417TIP3    H276667   5.559   3.111   3.984  0.6885 -1.1467 -0.2968
18418TIP3   OH276668   5.828   3.352  13.914 -0.1545 -0.0622  0.5872
18418TIP3    H176669   5.758   3.292  13.938 -1.4431 -1.0627 -4.4885
18418TIP3    H276670   5.783   3.428  13.876  1.4558  0.4611 -0.3951
18419TIP3   OH276671   4.185   0.216  11.756  0.5406  0.1385 -0.0176
18419TIP3    H176672   4.254   0.281  11.744  0.0838  0.1693 -3.2458
18419TIP3    H276673   4.222   0.134  11.724 -0.5056 -0.0854 -0.7080
18420TIP3   OH276674   1.662   6.287  17.067  0.2645 -0.0979 -0.5129
18420TIP3    H176675   1.645   6.363  17.123 -0.3807 -0.2716 -0.4640
18420TIP3    H276676   1.610   6.304  16.988 -0.3566 -0.7683 -0.2562
18421TIP3   OH276677   1.314   6.022  15.766  0.1214  0.3329  0.5935
18421TIP3    H176678   1.349   6.084  15.829  1.6576 -1.4155  1.5908
18421TIP3    H276679   1.220   6.036  15.767 -0.0421 -0.1415  3.9438
18422TIP3   OH276680   1.324   1.558  12.477  0.4490  0.3370 -0.4969
18422TIP3    H176681   1.359   1.482  12.523 -0.5366 -1.1248 -2.0262
18422TIP3    H276682   1.389   1.627  12.492  0.1396  0.0035  3.0135
18423TIP3   OH276683   1.171   2.671   0.362  0.9225 -0.2879 -0.4156
18423TIP3    H176684   1.263   2.687   0.384  0.9325  1.0087 -1.2736
18423TIP3    H276685   1.130   2.757   0.365 -0.4362 -0.9386  0.6115
18424TIP3   OH276686   3.772   5.159  13.505 -0.1257  0.0910 -0.0999
18424TIP3    H176687   3.776   5.220  13.579 -1.3805  0.3050 -0.1791
18424TIP3    H276688   3.825   5.201  13.437 -1.0254  1.1744 -0.1787
18425TIP3   OH276689   0.473   4.256  14.024 -0.3742 -0.0882 -0.3481
18425TIP3    H176690   0.481   4.347  14.050  0.3090  1.0030 -3.8360
18425TIP3    H276691   0.558   4.217  14.044 -0.1380  0.4544 -0.3058
18426TIP3   OH276692   3.084   0.318   3.601 -0.6383  0.8397 -0.0380
18426TIP3    H176693   3.081   0.223   3.609  0.0176  0.8240  0.1187
18426TIP3    H276694   3.087   0.335   3.507 -1.0444  0.7222 -0.0740
18427TIP3   OH276695   6.619   5.638   1.704  0.7514  0.1405 -0.3004
18427TIP3    H176696   6.704   5.675   1.679  0.9370 -1.0402 -1.5097
18427TIP3    H276697   6.603   5.671   1.793  2.4470  0.4163 -0.0766
18428TIP3   OH276698   1.297   2.203  12.229 -0.1848  0.1952 -0.6290
18428TIP3    H176699   1.322   2.130  12.286 -0.3167  1.2506  0.8543
18428TIP3    H276700   1.363   2.270  12.247 -1.2898  1.2311 -0.3039
18429TIP3   OH276701   5.984   3.193   3.852  0.5713 -0.0008 -0.4289
18429TIP3    H176702   5.910   3.132   3.854 -0.1156  0.6744 -2.5278
18429TIP3    H276703   6.055   3.146   3.895 -0.5676 -1.3877  0.0247
18430TIP3   OH276704   3.129   4.980   3.243 -0.0526 -0.4387  0.0880
18430TIP3    H176705   3.117   5.034   3.165  0.8813 -1.4402 -0.7929
18430TIP3    H276706   3.125   4.890   3.210 -1.1980 -0.9374  1.4521
18431TIP3   OH276707   2.048   1.512   4.239  0.1239  0.2252  0.1221
18431TIP3    H176708   1.991   1.444   4.274 -1.5298  0.5779 -1.7007
18431TIP3    H276709   2.029   1.589   4.292 -1.3832  0.4174 -0.6459
18432TIP3   OH276710   6.599   2.182   5.828 -0.6668 -0.0451  0.3421
18432TIP3    H176711   6.657   2.210   5.899  0.3551  3.9249 -1.7417
18432TIP3    H276712   6.651   2.117   5.780 -0.5515 -1.2235  1.9873
18433TIP3   OH276713   0.325   5.587   0.783  0.0116 -0.2618  0.0559
18433TIP3    H176714   0.277   5.543   0.713 -0.0400  1.3399 -0.9615
18433TIP3    H276715   0.365   5.516   0.833 -1.3172 -1.5159 -0.5888
18434TIP3   OH276716   3.534   3.394  15.616  0.6180  0.2655 -0.1580
18434TIP3    H176717   3.444   3.389  15.584 -0.1804 -0.9187  2.0292
18434TIP3    H276718   3.588   3.372  15.540 -1.0719 -1.3446 -0.9741
18435TIP3   OH276719   6.608   0.826  15.321 -0.5302 -0.1101 -0.4587
18435TIP3    H176720   6.701   0.832  15.340 -0.8361 -0.5203  1.3495
18435TIP3    H276721   6.595   0.885  15.246  1.3537 -0.9850 -1.5416
18436TIP3   OH276722   6.781   2.027  16.350 -0.4096  0.1171  0.6603
18436TIP3    H176723   6.829   1.990  16.424  0.2826 -0.0044  0.1601
18436TIP3    H276724   6.845   2.032  16.279 -1.2042 -0.3474 -0.1269
18437TIP3   OH276725   5.513   5.256  14.341  0.2550  0.0427 -0.3321
18437TIP3    H176726   5.560   5.293  14.416 -0.9522  0.7284  0.1264
18437TIP3    H276727   5.435   5.216  14.379 -0.3421  0.3450 -1.2106
18438TIP3   OH276728   3.478   6.648   4.858  0.4994 -0.0942  0.7181
18438TIP3    H176729   3.492   6.562   4.820  1.8235 -0.1442  1.2422
18438TIP3    H276730   3.426   6.695   4.794  0.0224 -1.1780  0.2888
18439TIP3   OH276731   2.594   0.432  16.100 -0.6076  0.3738  0.2569
18439TIP3    H176732   2.654   0.470  16.164 -0.4014  1.3033 -0.4719
18439TIP3    H276733   2.589   0.497  16.030  2.3090 -2.1817 -2.6448
18440TIP3   OH276734   1.537   6.534   2.775  0.4329 -0.2194  0.6117
18440TIP3    H176735   1.521   6.466   2.708  1.3030  3.3931 -3.7591
18440TIP3    H276736   1.451   6.571   2.792  0.5837  1.8045 -2.3092
18441TIP3   OH276737   2.893   4.718   1.366  0.4709 -0.1977 -0.6635
18441TIP3    H176738   2.867   4.692   1.454  2.1587  0.6831  0.1369
18441TIP3    H276739   2.830   4.675   1.308 -1.8279  0.7153  1.0502
18442TIP3   OH276740   3.743   6.228  16.451 -0.6117  0.0820 -0.1855
18442TIP3    H176741   3.779   6.286  16.518 -1.7654  0.3888  0.2096
18442TIP3    H276742   3.650   6.253  16.446 -0.6588 -0.2848 -1.5415
18443TIP3   OH276743   2.847   0.510   3.592  0.2470 -0.4623 -0.1889
18443TIP3    H176744   2.918   0.466   3.544  0.6515 -0.3865  0.3237
18443TIP3    H276745   2.778   0.444   3.598  1.2160 -1.4057  1.3972
18444TIP3   OH276746   6.605   4.020   6.125  0.3987 -0.6528  0.7679
18444TIP3    H176747   6.639   4.055   6.208  0.7449  0.4355  0.1835
18444TIP3    H276748   6.643   4.075   6.058  0.8445 -2.0927 -0.2082
18445TIP3   OH276749   1.326   4.148   6.040 -0.2940 -0.8052  0.5020
18445TIP3    H176750   1.246   4.105   6.007  0.8044 -2.3423 -0.3168
18445TIP3    H276751   1.361   4.086   6.104  0.5641 -0.4375  0.3964
18446TIP3   OH276752   5.790   4.817  15.576 -0.5096  0.3829  0.4018
18446TIP3    H176753   5.833   4.903  15.575  1.0577 -0.3088 -2.6126
18446TIP3    H276754   5.698   4.836  15.558 -0.3197  1.4804  0.5122
18447TIP3   OH276755   1.249   6.327  14.297 -0.8041 -0.4035  0.6652
18447TIP3    H176756   1.242   6.419  14.323 -0.2095 -0.0303 -0.4031
18447TIP3    H276757   1.325   6.294  14.345  0.0603  0.1752 -0.2529
18448TIP3   OH276758   3.435   4.067   4.245 -0.0809  0.0680 -0.2073
18448TIP3    H176759   3.479   4.054   4.161  0.9075  2.1575 -0.0702
18448TIP3    H276760   3.455   4.157   4.269 -2.4164  0.3261  1.0853
18449TIP3   OH276761   6.251   1.898  16.876 -0.0486  0.5788 -0.2912
18449TIP3    H176762   6.209   1.953  16.810  1.4145  2.0065 -0.0922
18449TIP3    H276763   6.231   1.808  16.849 -0.5059  1.1502 -1.9801
18450TIP3   OH276764   4.992   2.981  11.878 -0.5198  0.1869  0.2599
18450TIP3    H176765   4.962   2.933  11.955 -0.8404  0.4610  0.3079
18450TIP3    H276766   4.984   3.073  11.902  1.0769  0.2742  0.5541
18451TIP3   OH276767   0.065   0.817   0.624  0.4356 -0.6394  0.6259
18451TIP3    H176768  -0.010   0.766   0.595  0.2946 -0.0990  0.0026
18451TIP3    H276769   0.036   0.908   0.618  0.7903 -0.4658  1.4063
18452TIP3   OH276770   1.279   2.102   3.948  0.1684  0.2019  0.3252
18452TIP3    H176771   1.310   2.158   3.877  2.0178  0.3516  1.1889
18452TIP3    H276772   1.324   2.136   4.026 -1.3076 -0.3647  1.4591
18453TIP3   OH276773   5.330   5.783   0.487  0.4068  0.4406 -0.3740
18453TIP3    H176774   5.284   5.722   0.544  0.2051 -0.3851 -1.3925
18453TIP3    H276775   5.276   5.862   0.488 -1.5377 -0.7657 -2.1684
18454TIP3   OH276776   6.681   3.908   5.705 -0.1713  0.9260  0.6463
18454TIP3    H176777   6.727   3.960   5.771 -0.7409  2.6825 -0.2939
18454TIP3    H276778   6.714   3.819   5.718  1.8881  1.7439  1.3918
18455TIP3   OH276779   4.665   0.713   1.336 -0.6370 -0.4858 -0.6828
18455TIP3    H176780   4.717   0.739   1.411 -0.2814 -1.8598 -0.4284
18455TIP3    H276781   4.574   0.719   1.366 -0.6663  1.6231 -1.0359
18456TIP3   OH276782   6.067   2.746   4.664 -0.3826 -0.0217  0.1239
18456TIP3    H176783   5.977   2.759   4.634 -0.2700 -1.2340 -0.8285
18456TIP3    H276784   6.058   2.713   4.754 -0.8533  0.6790  0.3375
18457TIP3   OH276785   1.576   5.922   0.969  0.3951  0.3329  0.0717
18457TIP3    H176786   1.616   5.990   1.024  1.7058 -1.5733  1.6671
18457TIP3    H276787   1.484   5.921   0.995  0.6931  0.4648  1.2213
18458TIP3   OH276788   1.997   3.745   1.781  0.2319 -0.3415  0.6048
18458TIP3    H176789   2.013   3.727   1.689  1.7861  1.4608  0.4646
18458TIP3    H276790   2.072   3.709   1.827 -0.9886 -2.0936  1.3415
18459TIP3   OH276791   5.600   5.031  12.977  0.5725 -0.3308  0.3174
18459TIP3    H176792   5.589   5.121  12.945  1.8094 -1.0037 -2.2558
18459TIP3    H276793   5.678   4.999  12.931  0.0574 -2.8009  1.0462
18460TIP3   OH276794   1.779   5.098   2.406 -0.1589  0.0895  0.6693
18460TIP3    H176795   1.727   5.071   2.330 -0.1902  1.5189  0.1640
18460TIP3    H276796   1.743   5.183   2.431  1.3689  0.7093  0.8469
18461TIP3   OH276797   2.169   5.361  12.561 -0.0013  0.1263  0.1573
18461TIP3    H176798   2.187   5.319  12.477 -0.1994  0.8368 -0.2446
18461TIP3    H276799   2.235   5.324  12.621 -1.2445 -2.0970  0.2755
18462TIP3   OH276800   4.465   2.582  14.578  0.5806  0.3997 -0.1365
18462TIP3    H176801   4.390   2.639  14.595 -1.0588 -1.1973 -1.5911
18462TIP3    H276802   4.463   2.567  14.484  1.3815 -1.4407  0.0896
18463TIP3   OH276803   3.847   2.123  14.884  0.0031  0.9198 -0.0490
18463TIP3    H176804   3.871   2.215  14.876 -1.4924  1.1950 -2.1442
18463TIP3    H276805   3.793   2.119  14.964 -0.5171  2.0239 -0.3248
18464TIP3   OH276806   2.690   0.354  12.687  0.0998  0.3068 -0.1539
18464TIP3    H176807   2.673   0.371  12.594  0.5060  1.1585 -0.0742
18464TIP3    H276808   2.701   0.259  12.692 -1.0646  0.1246 -0.7889
18465TIP3   OH276809   5.496   2.116  11.184 -0.0923 -0.2959  0.0077
18465TIP3    H176810   5.435   2.116  11.110  0.0720 -0.6005 -0.1330
18465TIP3    H276811   5.455   2.059  11.249 -0.3216  0.1152  0.2249
18466TIP3   OH276812   1.617   1.392   5.809 -0.3923  0.6682 -0.0243
18466TIP3    H176813   1.615   1.480   5.773  1.1139  0.9494  0.5263
18466TIP3    H276814   1.566   1.397   5.890 -0.4648  0.9906 -0.0918
18467TIP3   OH276815   2.865   5.731  14.891  0.5259 -0.3562 -0.1246
18467TIP3    H176816   2.907   5.802  14.842  0.6851 -0.9609 -0.8893
18467TIP3    H276817   2.938   5.684  14.932  0.5862 -1.0699 -0.9967
18468TIP3   OH276818   4.652   2.562  11.819  0.5076 -0.0427  0.3547
18468TIP3    H176819   4.709   2.638  11.817  1.3337 -0.6365 -1.5300
18468TIP3    H276820   4.564   2.597  11.810  0.9905  0.7257 -3.1214
18469TIP3   OH276821   2.122   0.673  17.189 -0.0382 -0.1050 -0.1036
18469TIP3    H176822   2.080   0.603  17.238  2.4301 -1.6201  0.0571
18469TIP3    H276823   2.136   0.636  17.102 -0.8582  1.1173 -0.7729
18470TIP3   OH276824   1.222   0.779   2.765 -0.6852  0.5372 -0.1945
18470TIP3    H176825   1.156   0.811   2.703 -1.3294 -0.3319  0.0159
18470TIP3    H276826   1.300   0.763   2.711 -1.0185  0.4630 -0.6623
18471TIP3   OH276827   2.821   3.978   1.426 -0.1392 -0.0540 -0.1902
18471TIP3    H176828   2.836   4.068   1.456 -0.7831  0.4230 -1.2781
18471TIP3    H276829   2.748   3.947   1.480  0.3592 -0.0909  0.4843
18472TIP3   OH276830   1.661   5.534  15.023  0.7169 -0.0355  0.2118
18472TIP3    H176831   1.736   5.478  15.006  1.0090  0.1258  0.9425
18472TIP3    H276832   1.661   5.547  15.118 -0.1134  0.1347  0.1976
18473TIP3   OH276833   4.493   0.477   2.505 -0.5322 -0.3416  0.1232
18473TIP3    H176834   4.491   0.471   2.601  1.4395  1.6566  0.3899
18473TIP3    H276835   4.404   0.458   2.478 -1.5985  0.7617  2.5117
18474TIP3   OH276836   5.403   4.513   5.855 -0.1980  0.5027 -0.1736
18474TIP3    H176837   5.467   4.539   5.921 -0.2722  1.4106 -0.4505
18474TIP3    H276838   5.440   4.546   5.773 -1.4189  1.8107 -0.2338
18475TIP3   OH276839   1.807   0.498  14.416  0.1125  0.0228 -0.1005
18475TIP3    H176840   1.814   0.493  14.512  1.0472  0.2802 -0.1411
18475TIP3    H276841   1.834   0.587  14.394 -0.8019  0.1989 -0.5625
18476TIP3   OH276842   5.563   0.416   2.754  0.0597 -0.5097  0.1934
18476TIP3    H176843   5.507   0.378   2.686 -1.1546  2.2726 -0.4998
18476TIP3    H276844   5.571   0.508   2.729  2.1944 -0.0927  2.1590
18477TIP3   OH276845   4.548   2.801  13.913 -0.0763  0.1313 -0.9680
18477TIP3    H176846   4.599   2.812  13.833  0.9643  0.3843 -0.2842
18477TIP3    H276847   4.458   2.786  13.882  0.2732  0.4098 -2.1682
18478TIP3   OH276848   5.722   6.456   2.802 -0.3006  0.4416  0.3615
18478TIP3    H176849   5.806   6.437   2.759  2.4372  2.5966  4.0912
18478TIP3    H276850   5.704   6.378   2.855 -0.0962  0.3743  0.3344
18479TIP3   OH276851   0.301   4.411  13.590 -0.0570 -0.1593  0.0361
18479TIP3    H176852   0.357   4.488  13.583 -0.7194  0.3303 -0.0358
18479TIP3    H276853   0.349   4.350  13.646  0.2383  0.5207  0.5309
18480TIP3   OH276854   4.301   6.320   1.216  0.2852 -0.1392  0.4550
18480TIP3    H176855   4.287   6.381   1.288  1.0945  1.2078 -0.4859
18480TIP3    H276856   4.337   6.374   1.145 -0.8965 -1.3413 -1.1227
18481TIP3   OH276857   5.615   4.843  11.656 -0.3333 -0.3179  0.1132
18481TIP3    H176858   5.670   4.889  11.719 -1.9761 -0.9884  2.1639
18481TIP3    H276859   5.676   4.794  11.601  1.3344  2.4504 -0.7182
18482TIP3   OH276860   5.866   5.021   4.117 -0.1574  0.1326  0.0432
18482TIP3    H176861   5.869   4.963   4.041  0.7387 -0.2487  0.3492
18482TIP3    H276862   5.955   5.017   4.153 -0.2284  1.3085  0.3650
18483TIP3   OH276863   5.488   0.440  11.391  0.0455 -0.2809  0.3786
18483TIP3    H176864   5.563   0.439  11.451  2.2355 -0.5066 -2.1637
18483TIP3    H276865   5.498   0.521  11.341 -1.3773 -0.3511 -0.0539
18484TIP3   OH276866   1.794   4.019  12.763  0.3386 -0.4345 -0.0256
18484TIP3    H176867   1.860   3.951  12.781 -0.3477 -1.0268  0.3117
18484TIP3    H276868   1.770   4.052  12.849 -2.0323 -2.3856  0.1526
18485TIP3   OH276869   5.816   6.427  16.461 -0.1250  0.2632 -0.0051
18485TIP3    H176870   5.751   6.405  16.527 -1.0929  2.0206 -0.3203
18485TIP3    H276871   5.897   6.387  16.493 -1.0009 -0.5871  1.2249
18486TIP3   OH276872   6.092   3.537   4.524 -0.2547  0.2004  0.0294
18486TIP3    H176873   6.012   3.489   4.503 -0.9951  0.5189  1.9241
18486TIP3    H276874   6.145   3.475   4.574  0.0860  0.4382 -0.0277
18487TIP3   OH276875   5.111   1.619  14.831  0.0189  0.1204  0.1530
18487TIP3    H176876   5.119   1.564  14.753  1.3127  2.1380 -1.2214
18487TIP3    H276877   5.173   1.581  14.893  0.5945 -0.2080 -0.6130
18488TIP3   OH276878   6.176   4.570   1.952 -0.7117 -0.2005  0.3585
18488TIP3    H176879   6.150   4.555   1.861 -1.2878  1.1585  0.2855
18488TIP3    H276880   6.099   4.545   2.004  0.0397 -2.2137  0.6083
18489TIP3   OH276881   1.193   5.651  16.295  0.2699  0.5855 -0.0444
18489TIP3    H176882   1.173   5.691  16.210 -1.4541  0.9426  0.4843
18489TIP3    H276883   1.224   5.724  16.349  3.6871 -0.0172 -0.9558
18490TIP3   OH276884   5.239   4.794  15.794  0.4869  0.4474  0.0784
18490TIP3    H176885   5.154   4.838  15.789  0.5356  0.7414  1.4934
18490TIP3    H276886   5.284   4.822  15.714 -1.3074 -1.0333 -1.5814
18491TIP3   OH276887   2.301   5.206  11.942 -0.0527  0.2423 -0.0345
18491TIP3    H176888   2.285   5.188  12.035 -0.7251  0.0180 -0.1853
18491TIP3    H276889   2.250   5.285  11.925  0.3160  0.4577 -0.1411
18492TIP3   OH276890   3.787   4.416  10.821  0.1589 -0.8535 -0.2247
18492TIP3    H176891   3.772   4.402  10.915  1.5413 -0.5055  0.0699
18492TIP3    H276892   3.880   4.397  10.809  0.6749  1.8374 -0.9823
18493TIP3   OH276893   0.447   1.279  12.515 -0.6850 -0.0254 -0.5283
18493TIP3    H176894   0.411   1.219  12.581  1.5638 -1.0165 -0.1238
18493TIP3    H276895   0.537   1.294  12.543 -0.0476  0.5038 -2.7243
18494TIP3   OH276896   3.191   4.851  14.713  0.1569 -0.5749  0.1747
18494TIP3    H176897   3.155   4.773  14.670 -1.0846  0.1096 -0.0859
18494TIP3    H276898   3.203   4.823  14.804  1.2538 -1.5381 -0.2447
18495TIP3   OH276899   5.031   6.484  15.985  0.2315  0.3719  0.1968
18495TIP3    H176900   5.092   6.489  16.059 -0.7823  0.2455  1.0598
18495TIP3    H276901   5.050   6.562  15.932  0.7232  0.6526  0.7838
18496TIP3   OH276902   5.340   1.410   5.017  0.1844  0.0584 -0.7884
18496TIP3    H176903   5.420   1.425   4.968 -0.5155 -0.2644 -2.0634
18496TIP3    H276904   5.369   1.369   5.098  1.3309  0.2853 -1.0626
18497TIP3   OH276905   6.083   3.562   1.871  0.0845 -0.0033 -0.5211
18497TIP3    H176906   6.081   3.484   1.927  1.7557 -0.4805 -1.0920
18497TIP3    H276907   5.995   3.600   1.880  0.1010 -0.3870  1.9434
18498TIP3   OH276908   3.171   5.413   2.891  0.7393 -0.1246  0.1748
18498TIP3    H176909   3.242   5.429   2.830  0.3348 -0.5260 -0.4196
18498TIP3    H276910   3.152   5.499   2.930 -0.1616  0.5190 -1.5660
18499TIP3   OH276911   4.692   0.226  15.870 -0.5708 -0.4055 -0.0366
18499TIP3    H176912   4.783   0.195  15.868 -0.7631 -0.9298 -1.8659
18499TIP3    H276913   4.684   0.270  15.955  0.7338 -2.2934  1.1498
18500TIP3   OH276914   5.501   6.282   0.315 -0.4863 -0.0307  0.2697
18500TIP3    H176915   5.516   6.230   0.394  0.9052 -0.4129 -0.2279
18500TIP3    H276916   5.406   6.279   0.303 -0.5323 -1.7233  0.7641
18501TIP3   OH276917   5.570   4.807   6.144 -0.4943  0.3612  0.0550
18501TIP3    H176918   5.658   4.843   6.151 -0.4867  0.8475 -2.0313
18501TIP3    H276919   5.512   4.881   6.164 -0.4526  0.3798  0.1068
18502TIP3   OH276920   1.259   3.987  13.129 -0.1424  0.1727  0.2697
18502TIP3    H176921   1.199   3.980  13.054  0.5156 -0.7008 -0.2037
18502TIP3    H276922   1.257   3.900  13.169  0.3087  0.3267  0.6279
18503TIP3   OH276923   3.063   1.940  16.014  0.3744  0.3862  0.3185
18503TIP3    H176924   3.070   1.899  15.928 -0.4979  0.8853 -0.0112
18503TIP3    H276925   3.113   1.884  16.072 -0.7452 -1.1299 -0.1163
18504TIP3   OH276926   0.946   4.036  13.097  0.0349  0.3270 -0.3074
18504TIP3    H176927   0.876   3.972  13.099 -0.2057  0.5846 -0.3545
18504TIP3    H276928   0.988   4.029  13.182  1.2204 -1.2110 -0.9736
18505TIP3   OH276929   1.717   6.432  11.940 -0.2693 -0.1141  0.4052
18505TIP3    H176930   1.769   6.510  11.920 -1.1153  0.5556  0.7530
18505TIP3    H276931   1.627   6.459  11.924 -0.6545 -0.7288  1.4537
18506TIP3   OH276932   1.350   4.830  12.605  0.0665 -0.2730 -0.1175
18506TIP3    H176933   1.374   4.871  12.522 -0.3511 -2.6077 -1.4860
18506TIP3    H276934   1.420   4.766  12.621  0.5894  0.7019  1.8087
18507TIP3   OH276935   5.110   1.160  13.416  0.4504  0.2663  0.4633
18507TIP3    H176936   5.104   1.122  13.329 -1.4405 -0.1010  0.7072
18507TIP3    H276937   5.146   1.090  13.471 -0.5983 -0.3313  0.4134
18508TIP3   OH276938   1.064   5.512  14.479 -0.4487 -0.1226 -0.2419
18508TIP3    H176939   1.100   5.435  14.524  1.0235  0.3296 -0.5803
18508TIP3    H276940   1.067   5.582  14.544 -0.5081 -0.0216 -0.3472
18509TIP3   OH276941   1.489   0.449   2.880  0.2265 -0.2946  0.2486
18509TIP3    H176942   1.502   0.362   2.842  0.6723  0.2784 -0.9962
18509TIP3    H276943   1.417   0.439   2.942  2.4067 -2.2601  2.6834
18510TIP3   OH276944   3.632   6.191  13.517  0.0709  0.0952 -0.1052
18510TIP3    H176945   3.625   6.199  13.612  0.3683  0.7573 -0.1322
18510TIP3    H276946   3.664   6.277  13.488  0.4495 -0.2526 -0.7508
18511TIP3   OH276947   2.799   4.494   5.276 -0.0875 -0.3146  0.9386
18511TIP3    H176948   2.867   4.537   5.326  1.7012 -0.6455 -1.0710
18511TIP3    H276949   2.760   4.563   5.223 -1.7555 -0.0270  2.4317
18512TIP3   OH276950   4.883   2.396  13.419 -0.1014 -0.3599  0.4981
18512TIP3    H176951   4.919   2.466  13.364 -0.2786 -0.5362  0.1567
18512TIP3    H276952   4.788   2.404  13.409 -0.1650 -3.0130 -2.6291
18513TIP3   OH276953   5.996   5.526   4.379  0.0083 -0.1234  0.3953
18513TIP3    H176954   6.004   5.431   4.373  0.4912 -0.0552 -0.1033
18513TIP3    H276955   5.985   5.543   4.473 -2.2910 -0.8231  0.3122
18514TIP3   OH276956   4.493   4.246   4.519  0.6704  0.1997  0.2770
18514TIP3    H176957   4.438   4.287   4.452  0.4639 -0.9220 -0.2556
18514TIP3    H276958   4.459   4.157   4.527 -0.8395  0.9192  3.5624
18515TIP3   OH276959   1.063   2.170  16.090  0.3238 -0.3961 -0.0824
18515TIP3    H176960   0.988   2.165  16.032  1.1848 -1.5324 -1.1463
18515TIP3    H276961   1.133   2.124  16.043  1.9058  1.2728  0.5389
18516TIP3   OH276962   3.099   0.602   5.314  0.2758 -0.2733 -0.1312
18516TIP3    H176963   3.029   0.644   5.265  0.6339 -0.2092 -0.5915
18516TIP3    H276964   3.072   0.611   5.406 -0.2473 -0.1300 -0.2939
18517TIP3   OH276965   5.502   2.912  12.934  0.5759 -0.1344  0.6577
18517TIP3    H176966   5.542   2.992  12.898  0.2149 -0.1600  0.1913
18517TIP3    H276967   5.572   2.847  12.932  0.1371 -0.6042 -1.5572
18518TIP3   OH276968   3.836   0.850   0.879  0.8313  0.1659 -0.0901
18518TIP3    H176969   3.760   0.875   0.827  1.9172  0.5701 -1.5528
18518TIP3    H276970   3.829   0.755   0.890 -0.8720  0.4235  1.4855
18519TIP3   OH276971   4.300   2.070  10.941  0.4349 -0.2120  0.5699
18519TIP3    H176972   4.245   1.992  10.933  1.0021 -0.5132 -0.6762
18519TIP3    H276973   4.288   2.099  11.031  1.1986 -2.5090  1.4723
18520TIP3   OH276974   3.736   3.938  15.248 -0.1028 -0.4805 -0.5576
18520TIP3    H176975   3.691   3.961  15.167 -1.5496  0.8775  0.5799
18520TIP3    H276976   3.792   4.013  15.268 -3.2188  1.4043  2.0268
18521TIP3   OH276977   1.279   5.965   5.166  0.4783  0.3049 -0.1612
18521TIP3    H176978   1.276   6.060   5.157  0.3061  0.2803 -0.3639
18521TIP3    H276979   1.341   5.950   5.238 -1.1210  0.6686  1.3696
18522TIP3   OH276980   1.395   2.711  15.540  0.2215  0.4681 -0.6309
18522TIP3    H176981   1.364   2.776  15.602  0.5749  0.6780 -0.6746
18522TIP3    H276982   1.326   2.645  15.537 -0.4347  1.1646 -1.0732
18523TIP3   OH276983   2.755   2.511  11.499  0.8634 -0.1818 -0.0159
18523TIP3    H176984   2.787   2.598  11.526 -0.9602  0.2258  0.9606
18523TIP3    H276985   2.719   2.525  11.412  0.2223  0.1305  0.2988
18524TIP3   OH276986   0.023   5.475  11.780 -0.1441 -0.1799 -0.8204
18524TIP3    H176987   0.102   5.431  11.813  1.3982  1.6954 -1.7737
18524TIP3    H276988   0.028   5.465  11.685 -0.2031  1.2367 -1.0000
18525TIP3   OH276989   2.991   4.115   4.418 -0.2921 -0.3820 -0.2971
18525TIP3    H176990   3.054   4.096   4.349  0.7826 -0.7394  0.7321
18525TIP3    H276991   3.028   4.073   4.496 -0.0879  2.1597  1.0898
18526TIP3   OH276992   3.574   6.117  14.309 -0.4582  0.3238 -0.0188
18526TIP3    H176993   3.520   6.193  14.285  0.6171  1.2160  0.3067
18526TIP3    H276994   3.664   6.148  14.301  0.0089 -0.9873 -0.0528
18527TIP3   OH276995   6.510   6.385   2.645 -0.3481  0.4276 -0.0078
18527TIP3    H176996   6.414   6.380   2.649 -0.3257 -2.4697 -0.4892
18527TIP3    H276997   6.531   6.366   2.554  0.6924 -0.2544  0.3548
18528TIP3   OH276998   6.040   1.182   6.363  0.0888  0.2758  1.1682
18528TIP3    H176999   6.079   1.226   6.438  3.6380  3.0769 -1.9234
18528TIP3    H277000   6.106   1.118   6.335 -1.0693 -0.5943  0.3303
18529TIP3   OH277001   2.840   1.596  10.849 -0.6573  0.1930  0.3331
18529TIP3    H177002   2.810   1.659  10.914 -1.8782 -0.5182  0.4925
18529TIP3    H277003   2.795   1.620  10.768  0.1474  0.5139 -0.0351
18530TIP3   OH277004   4.232   1.751  12.178 -0.9380 -0.4193  0.0408
18530TIP3    H177005   4.282   1.671  12.196  0.8779  0.3074 -1.4789
18530TIP3    H277006   4.158   1.721  12.125 -0.3251 -1.1156 -0.4424
18531TIP3   OH277007   5.377   6.287  16.898 -0.2161  0.3741  0.1067
18531TIP3    H177008   5.417   6.341  16.829 -2.7547 -0.1510 -1.9123
18531TIP3    H277009   5.424   6.204  16.893  0.0129  0.5354 -0.6307
18532TIP3   OH277010   0.400   3.707  12.063  0.2592 -0.0543 -0.1784
18532TIP3    H177011   0.442   3.629  12.098 -0.2905 -0.4262 -0.3474
18532TIP3    H277012   0.362   3.679  11.980 -0.0977  0.3465 -0.1519
18533TIP3   OH277013   1.383   4.738  12.321 -0.0024 -0.4774  0.8509
18533TIP3    H177014   1.315   4.673  12.303 -0.7988  0.5490  0.0507
18533TIP3    H277015   1.344   4.822  12.297  2.6952 -0.1200 -3.2036
18534TIP3   OH277016   5.702   2.787  15.882  0.1708 -0.5025  0.0735
18534TIP3    H177017   5.724   2.824  15.968 -1.5405 -1.3201  0.9077
18534TIP3    H277018   5.654   2.707  15.902 -0.1427 -0.7803 -1.6677
18535TIP3   OH277019   0.406   1.352   6.386 -0.0229 -0.2193  0.3552
18535TIP3    H177020   0.366   1.318   6.465 -0.1276 -2.3143 -0.5445
18535TIP3    H277021   0.406   1.279   6.324  0.1545  1.2983 -1.5660
18536TIP3   OH277022   6.450   0.101  14.052  0.0294  0.7028  0.3258
18536TIP3    H177023   6.467   0.055  14.135  0.4585 -0.0983 -0.1942
18536TIP3    H277024   6.480   0.191  14.068  0.3659  0.4856  0.9523
18537TIP3   OH277025   6.160   5.724   4.013  0.3049  0.8133 -0.2225
18537TIP3    H177026   6.210   5.772   4.079  0.1839  1.0807 -0.3242
18537TIP3    H277027   6.170   5.632   4.037 -1.7074  0.9911  1.6064
18538TIP3   OH277028   1.056   0.026   4.033  0.4647 -0.1395 -0.0736
18538TIP3    H177029   1.098   0.082   3.967 -0.0752  0.3103 -0.0436
18538TIP3    H277030   1.017   0.087   4.095  0.1387 -0.5532  0.1322
18539TIP3   OH277031   2.402   2.332   3.831 -0.3406 -0.1413 -0.1517
18539TIP3    H177032   2.327   2.304   3.882 -0.0153  2.3630  1.9318
18539TIP3    H277033   2.438   2.251   3.794 -3.1756 -1.5566 -0.0492
18540TIP3   OH277034   2.202   3.024   3.122  0.0832  0.7844  0.5431
18540TIP3    H177035   2.119   3.035   3.168  0.4851  1.4777  1.1286
18540TIP3    H277036   2.180   3.033   3.030 -0.5257  0.7520  0.6807
18541TIP3   OH277037   0.959   3.604   2.796 -0.0886 -0.5852  0.0394
18541TIP3    H177038   0.936   3.584   2.886  0.5192 -0.7007  0.1745
18541TIP3    H277039   1.054   3.615   2.797  0.3297 -3.3220 -1.0992
18542TIP3   OH277040   5.951   3.110   0.429  0.4668  0.6770 -0.0237
18542TIP3    H177041   5.915   3.179   0.485  0.5957  0.4467  0.3455
18542TIP3    H277042   5.911   3.126   0.343 -0.5711  0.3909  0.3850
18543TIP3   OH277043   3.241   0.549   3.983  0.0545  0.2723  0.2484
18543TIP3    H177044   3.315   0.489   3.991  1.7004  2.3595  1.8312
18543TIP3    H277045   3.226   0.557   3.889  4.3223  2.5233 -0.4763
18544TIP3   OH277046   0.954   0.081   4.733  0.5334 -0.0314 -0.0385
18544TIP3    H177047   1.046   0.110   4.726  0.3177  0.9861  1.1518
18544TIP3    H277048   0.907   0.136   4.670  0.7041 -0.5267 -0.6208
18545TIP3   OH277049   4.726   4.753  13.989 -0.1881 -0.5289  0.3192
18545TIP3    H177050   4.745   4.723  14.077  1.8436  0.9995  0.4690
18545TIP3    H277051   4.721   4.849  13.996 -0.4401 -0.4080 -1.1414
18546TIP3   OH277052   5.651   0.700   1.846 -0.2013 -0.2667  0.2591
18546TIP3    H177053   5.687   0.654   1.770 -1.2191 -0.3777 -0.1828
18546TIP3    H277054   5.576   0.645   1.872 -0.0119 -0.0873  1.1782
18547TIP3   OH277055   5.531   6.430  14.250  0.2949  0.1343  0.0499
18547TIP3    H177056   5.510   6.499  14.314 -4.7147  0.0999 -1.1477
18547TIP3    H277057   5.461   6.366  14.261  1.3066 -1.6889 -3.0465
18548TIP3   OH277058   2.549   5.676  16.666  0.2408  0.3953 -0.1578
18548TIP3    H177059   2.481   5.628  16.619  0.7147  0.2925 -0.7597
18548TIP3    H277060   2.510   5.696  16.751  0.4387 -2.0785  0.5950
18549TIP3   OH277061   1.302   2.353  15.917  0.4112  0.2559  0.2805
18549TIP3    H177062   1.291   2.316  15.829  3.9227  1.0500 -0.6345
18549TIP3    H277063   1.306   2.278  15.975 -0.8998 -0.3211 -0.3184
18550TIP3   OH277064   6.400   5.852  12.804  0.7110 -0.9672  0.0057
18550TIP3    H177065   6.410   5.861  12.899  0.5609 -1.6674  0.0927
18550TIP3    H277066   6.437   5.933  12.769  0.7580 -0.6926  0.6602
18551TIP3   OH277067   2.109   1.009  13.825 -0.2720  0.3256 -0.0347
18551TIP3    H177068   2.076   1.025  13.914  0.6846 -1.2781  0.6488
18551TIP3    H277069   2.102   0.914  13.814  1.5152  0.2675 -0.9007
18552TIP3   OH277070   4.483   0.263  16.165  0.1523  0.5255  0.0303
18552TIP3    H177071   4.420   0.293  16.100  0.7260  1.0967 -0.2788
18552TIP3    H277072   4.554   0.328  16.161 -0.2964  1.2163  2.0004
18553TIP3   OH277073   5.774   1.814  13.726 -0.2728 -0.9274 -0.0003
18553TIP3    H177074   5.722   1.819  13.646 -0.5192 -0.8733  0.1602
18553TIP3    H277075   5.713   1.780  13.792 -0.4331  0.2091  0.4653
18554TIP3   OH277076   2.786   6.337   2.148 -0.3890  0.0319  0.3381
18554TIP3    H177077   2.774   6.245   2.124 -1.1736  0.3250 -0.4073
18554TIP3    H277078   2.749   6.344   2.236 -2.6518  0.1628 -0.5737
18555TIP3   OH277079   6.014   2.991  15.527  0.2445  0.5357  0.5692
18555TIP3    H177080   6.085   2.988  15.591 -0.0533  1.2335  0.9514
18555TIP3    H277081   5.935   2.982  15.580  0.0341  0.0176  0.1745
18556TIP3   OH277082   1.972   3.036  10.974  0.8282 -0.4796  0.3399
18556TIP3    H177083   2.063   3.010  10.989  0.6344 -1.1351  0.3819
18556TIP3    H277084   1.926   3.010  11.054  0.3813 -1.2123 -0.1521
18557TIP3   OH277085   5.121   1.886   1.098 -0.0164 -0.4621 -0.4348
18557TIP3    H177086   5.156   1.835   1.025 -1.8210 -1.9170 -0.3639
18557TIP3    H277087   5.199   1.918   1.145  1.2080  0.6436 -2.9970
18558TIP3   OH277088   0.332   0.424  11.106  0.1339  0.5605  0.6713
18558TIP3    H177089   0.325   0.364  11.032  0.9947  2.7541 -1.3408
18558TIP3    H277090   0.304   0.373  11.182  0.4639 -2.1999 -0.9411
18559TIP3   OH277091   5.317   0.300   4.666 -0.3208  0.5165  0.2351
18559TIP3    H177092   5.231   0.287   4.626  1.0101 -2.1075 -2.0954
18559TIP3    H277093   5.331   0.223   4.721  1.7502 -0.8607 -2.0088
18560TIP3   OH277094   3.841   1.400  12.252 -0.0793 -0.2918 -0.5680
18560TIP3    H177095   3.903   1.464  12.286 -0.8599 -0.6873  1.7598
18560TIP3    H277096   3.768   1.453  12.219  0.1164  0.0846 -0.4058
18561TIP3   OH277097   1.824   3.908  15.126  0.0222  0.7141 -0.7146
18561TIP3    H177098   1.856   3.997  15.110  1.3372  0.5267  0.6537
18561TIP3    H277099   1.757   3.917  15.193  0.4406  0.6345 -0.2847
18562TIP3   OH277100   0.898   4.805   6.019  0.0485  0.0693 -0.4977
18562TIP3    H177101   0.912   4.745   6.092 -0.4737 -0.0673 -0.5078
18562TIP3    H277102   0.971   4.789   5.960  0.9220  0.7513  0.3770
18563TIP3   OH277103   0.633   5.672   4.180  0.0511  1.0198  0.2163
18563TIP3    H177104   0.672   5.594   4.140  0.1111  0.6668  0.9441
18563TIP3    H277105   0.565   5.638   4.237 -0.3786  1.5502  0.0236
18564TIP3   OH277106   3.645   4.743  11.635 -0.3039 -0.1907  0.1116
18564TIP3    H177107   3.727   4.728  11.588 -0.8688  0.3298 -1.0619
18564TIP3    H277108   3.631   4.661  11.684  1.2432 -0.0348  0.8742
18565TIP3   OH277109   4.008   4.667   3.418  0.5473 -0.0008 -0.4133
18565TIP3    H177110   3.949   4.624   3.356 -1.0866 -0.4461  1.3564
18565TIP3    H277111   4.043   4.742   3.370 -0.0793 -0.7377 -2.0873
18566TIP3   OH277112   1.105   4.135   3.621  0.1881  0.3649 -0.0248
18566TIP3    H177113   1.156   4.195   3.566 -2.5934  0.8121 -2.4015
18566TIP3    H277114   1.165   4.065   3.644  1.5772 -0.0275 -4.0318
18567TIP3   OH277115   2.295   6.695  11.410 -0.0929 -0.2146  0.9427
18567TIP3    H177116   2.208   6.714  11.446 -0.6310 -0.5004 -0.1638
18567TIP3    H277117   2.289   6.720  11.318  0.3246 -2.1913  0.3226
18568TIP3   OH277118   4.732   3.692   3.766 -0.6915  0.2522  0.5438
18568TIP3    H177119   4.825   3.694   3.741 -0.0541  2.5951  2.7140
18568TIP3    H277120   4.708   3.600   3.760  1.7921 -0.4353  0.0107
18569TIP3   OH277121   6.259   2.412  15.357  1.1262  0.0072 -0.0012
18569TIP3    H177122   6.194   2.457  15.412  1.2432 -0.1432  0.2617
18569TIP3    H277123   6.290   2.340  15.411  0.6833 -0.6041 -0.5517
18570TIP3   OH277124   1.508   2.984   0.000 -0.4229 -0.1252 -0.2815
18570TIP3    H177125   1.435   2.939   0.042  0.2243 -1.0749 -0.1308
18570TIP3    H277126   1.567   2.913  -0.028  0.3970  0.6108 -0.4606
18571TIP3   OH277127   1.181   2.957   3.422 -0.2530  0.0057 -0.2523
18571TIP3    H177128   1.160   2.863   3.424 -3.3640  0.5407 -1.4324
18571TIP3    H277129   1.131   2.994   3.495  0.2999  0.8645 -0.2972
18572TIP3   OH277130   2.157   5.503  13.162 -0.0313 -0.1384 -0.1939
18572TIP3    H177131   2.191   5.584  13.198  1.9309 -0.7386 -0.5736
18572TIP3    H277132   2.101   5.467  13.231  0.5988  0.6120  0.7228
18573TIP3   OH277133   1.854   4.192  11.284 -0.0977  0.0618 -0.0068
18573TIP3    H177134   1.821   4.104  11.303 -0.8898  0.3521  0.0052
18573TIP3    H277135   1.920   4.179  11.216 -0.0347 -0.5656  0.1714
18574TIP3   OH277136   3.931   0.154  10.638 -0.2936  0.4581 -0.3174
18574TIP3    H177137   3.916   0.173  10.545 -0.7257 -0.0616 -0.3615
18574TIP3    H277138   3.934   0.240  10.679  0.8789  0.7384 -0.9426
18575TIP3   OH277139   5.102   0.841   3.188 -0.2126  1.0864 -0.8408
18575TIP3    H177140   5.172   0.903   3.202  1.3329 -0.3046 -1.9903
18575TIP3    H277141   5.122   0.768   3.247  0.2009  0.0329 -2.2181
18576TIP3   OH277142   6.749   3.963  13.132 -0.0411  0.1777  0.2485
18576TIP3    H177143   6.802   3.893  13.170  1.0464  0.0668 -1.3959
18576TIP3    H277144   6.658   3.934  13.145  0.3435 -0.6810  1.1324
18577TIP3   OH277145   4.481   6.260   5.320  0.3055  0.0124 -0.3995
18577TIP3    H177146   4.571   6.282   5.296  0.0745 -0.8189 -2.1903
18577TIP3    H277147   4.429   6.333   5.286  0.4241  1.7970  2.8138
18578TIP3   OH277148   2.418   6.688   4.847 -0.2518 -0.0612  0.0075
18578TIP3    H177149   2.357   6.711   4.917 -0.9532 -0.8019 -0.3429
18578TIP3    H277150   2.439   6.772   4.806 -0.1768  0.3298  0.8183
18579TIP3   OH277151   6.646   0.861   5.236  0.4509  0.6774 -0.0033
18579TIP3    H177152   6.583   0.812   5.289 -0.9705  1.8425 -0.5624
18579TIP3    H277153   6.594   0.898   5.164  2.0535  0.4230 -1.3446
18580TIP3   OH277154   1.422   1.665  11.524  0.0948 -0.7484 -0.0469
18580TIP3    H177155   1.408   1.759  11.539 -1.0988 -0.4696 -2.3810
18580TIP3    H277156   1.507   1.660  11.482  0.0207 -0.6530 -0.2120
18581TIP3   OH277157   4.871   5.413  10.825 -0.3811 -0.4577  0.2439
18581TIP3    H177158   4.858   5.385  10.916  0.7536 -0.6602  0.3657
18581TIP3    H277159   4.965   5.399  10.810 -0.2602  0.9982 -0.4707
18582TIP3   OH277160   0.938   2.878  12.224  0.2415  0.2793  0.4841
18582TIP3    H177161   0.965   2.838  12.141 -2.0547 -0.6240  0.1118
18582TIP3    H277162   0.864   2.933  12.201 -1.9371 -1.7490  2.1844
18583TIP3   OH277163   1.408   5.505   4.605 -0.1859 -0.7191  0.1775
18583TIP3    H177164   1.440   5.480   4.518  0.0711 -2.0948  0.6439
18583TIP3    H277165   1.320   5.467   4.610 -0.0529 -0.9773  0.6499
18584TIP3   OH277166   5.260   4.736  13.598  0.1969  0.5478 -0.3663
18584TIP3    H177167   5.335   4.679  13.579 -0.1509  0.4585 -1.5649
18584TIP3    H277168   5.264   4.803  13.530 -1.0020  0.3385 -0.6683
18585TIP3   OH277169   0.278   4.359  13.002 -0.3440  0.3625  0.1793
18585TIP3    H177170   0.219   4.294  13.040  0.6769 -0.0001  1.2175
18585TIP3    H277171   0.315   4.316  12.925  0.1426 -0.1969  0.7239
18586TIP3   OH277172   0.874   1.212   5.766  0.5907  0.1231 -0.3652
18586TIP3    H177173   0.913   1.125   5.758  0.7004  0.2834 -1.7371
18586TIP3    H277174   0.882   1.250   5.679 -0.4580  1.0883 -0.0582
18587TIP3   OH277175   6.469   1.266   2.399 -0.1618 -0.0863 -0.0398
18587TIP3    H177176   6.502   1.329   2.464 -1.3098 -0.1962  0.6607
18587TIP3    H277177   6.548   1.222   2.367  0.4437  0.1065  1.1333
18588TIP3   OH277178   0.305   3.430  12.450 -0.2171  0.1131 -0.2535
18588TIP3    H177179   0.313   3.377  12.371  0.9069  2.1263 -1.5756
18588TIP3    H277180   0.384   3.411  12.501 -0.2307 -0.0924 -0.3090
18589TIP3   OH277181   3.024   4.796   6.343 -0.0302 -0.0893 -0.4410
18589TIP3    H177182   3.072   4.825   6.265 -0.4848 -0.7172 -0.9677
18589TIP3    H277183   3.084   4.736   6.388 -0.2142 -0.6930 -0.9763
18590TIP3   OH277184   1.828   6.681  11.867  0.2511  0.1021 -0.7151
18590TIP3    H177185   1.899   6.639  11.817  0.3615  1.3472 -1.6454
18590TIP3    H277186   1.872   6.718  11.943  0.3244 -0.5348 -0.4388
18591TIP3   OH277187   1.505   0.202   3.459 -0.5420 -0.1368  0.0901
18591TIP3    H177188   1.460   0.145   3.397 -1.1719 -0.4442  0.8103
18591TIP3    H277189   1.481   0.291   3.433  0.8205 -0.1609 -1.3265
18592TIP3   OH277190   0.769   6.031  16.601 -0.2307  0.4128  1.0148
18592TIP3    H177191   0.765   5.986  16.517 -2.2870 -0.2825  1.4455
18592TIP3    H277192   0.774   5.961  16.666 -0.3260  0.9032  1.5616
18593TIP3   OH277193   1.737   6.341   1.820  0.1036 -1.0357  0.2336
18593TIP3    H177194   1.748   6.435   1.808 -0.4414 -1.1450 -1.2451
18593TIP3    H277195   1.705   6.332   1.910  0.1955  0.1798  0.4015
18594TIP3   OH277196   1.587   0.917   2.666  0.0340  0.0660 -0.5406
18594TIP3    H177197   1.505   0.964   2.653 -0.3248  0.2530  1.8633
18594TIP3    H277198   1.618   0.898   2.578 -0.8153  3.0245 -1.6095
18595TIP3   OH277199   0.549   6.576  13.879  0.4443  0.5011 -0.1874
18595TIP3    H177200   0.625   6.520  13.866 -0.2313 -2.1150  4.7530
18595TIP3    H277201   0.483   6.541  13.820  2.1987  1.2454 -2.7526
18596TIP3   OH277202   4.908   2.111  11.584 -0.1885  0.1087  0.4664
18596TIP3    H177203   5.000   2.100  11.560 -0.5380 -0.9455 -0.5010
18596TIP3    H277204   4.868   2.026  11.565 -0.7059 -0.6423  4.1392
18597TIP3   OH277205   1.529   1.010  12.470 -0.6930  0.0515 -0.4953
18597TIP3    H177206   1.460   1.022  12.405 -0.6078  0.4792 -0.5066
18597TIP3    H277207   1.595   1.075  12.448 -0.3795 -0.2191 -0.3578
18598TIP3   OH277208   5.815   2.955  15.715  0.1266  0.5047  0.2020
18598TIP3    H177209   5.768   2.888  15.764  0.9101 -0.8201 -0.8081
18598TIP3    H277210   5.884   2.984  15.775  0.3072 -0.2145  0.3567
18599TIP3   OH277211   2.651   3.222   1.819  0.4663 -0.3904  0.1724
18599TIP3    H177212   2.634   3.310   1.785  0.2865 -0.9683 -1.2991
18599TIP3    H277213   2.618   3.225   1.909 -0.9002  0.6109 -0.3310
18600TIP3   OH277214   1.087   5.367   3.509 -0.5312 -0.6356  0.8627
18600TIP3    H177215   1.113   5.458   3.523 -0.2111 -0.5923  0.0391
18600TIP3    H277216   1.028   5.370   3.434 -0.5090 -1.1086  0.8204
18601TIP3   OH277217   0.243   3.786  15.294  0.2111 -0.9890 -0.0652
18601TIP3    H177218   0.297   3.840  15.237 -0.0165  0.1909  0.7984
18601TIP3    H277219   0.294   3.778  15.375 -1.6705  1.9049  1.5808
18602TIP3   OH277220   4.049   2.661   0.839  0.3402 -0.1105  0.1312
18602TIP3    H177221   4.077   2.608   0.914 -0.5708 -1.1875 -0.2642
18602TIP3    H277222   3.983   2.608   0.796  1.6490 -0.0346 -2.1166
18603TIP3   OH277223   1.624   1.383  14.396  0.1074  0.0233 -0.3849
18603TIP3    H177224   1.567   1.438  14.343 -1.2954 -0.1397  0.8785
18603TIP3    H277225   1.570   1.308  14.419  1.5705 -1.2629 -0.9878
18604TIP3   OH277226   4.684   3.025  16.380 -0.0300 -0.1567  0.0672
18604TIP3    H177227   4.648   2.948  16.337 -0.4270  1.0992 -1.9613
18604TIP3    H277228   4.633   3.099  16.345  1.0114  1.1324  1.1510
18605TIP3   OH277229   0.653   4.574   6.249 -0.8820 -0.2016  0.3678
18605TIP3    H177230   0.605   4.500   6.285 -0.8536 -0.9298 -1.0176
18605TIP3    H277231   0.616   4.586   6.161  1.0577 -0.4393 -0.5345
18606TIP3   OH277232   2.091   0.809   1.744  0.2670 -0.2775  0.3009
18606TIP3    H177233   2.028   0.881   1.736  0.7844  0.2296  0.7115
18606TIP3    H277234   2.053   0.738   1.692 -0.4116  0.1787  0.1594
18607TIP3   OH277235   2.962   1.012   5.001 -0.8884 -0.1767 -1.0198
18607TIP3    H177236   2.875   1.042   5.026  0.9322  4.2285  1.1446
18607TIP3    H277237   2.973   1.041   4.910 -0.7027  2.1802 -0.3029
18608TIP3   OH277238   4.561   3.842   3.589 -0.2071  0.5469  0.4626
18608TIP3    H177239   4.625   3.828   3.658  0.5143  0.9317 -0.1146
18608TIP3    H277240   4.565   3.762   3.536  2.9072  2.0958 -2.0237
18609TIP3   OH277241   3.809   0.719  13.071  0.0087  0.4776  0.5955
18609TIP3    H177242   3.891   0.677  13.047 -0.6181 -0.8616  0.7154
18609TIP3    H277243   3.776   0.758  12.990  0.1617 -0.0424  0.2835
18610TIP3   OH277244   6.669   4.967   3.786  0.1469  0.4084  0.0562
18610TIP3    H177245   6.728   4.987   3.859 -0.1641 -1.3233  0.8415
18610TIP3    H277246   6.589   4.935   3.829  0.0460 -0.8834 -1.0503
18611TIP3   OH277247   3.056   5.758  15.440 -0.2786  0.4920 -0.0654
18611TIP3    H177248   2.991   5.799  15.383  0.4094  1.8731  0.0906
18611TIP3    H277249   3.020   5.767  15.528 -0.3933  0.2355 -0.0860
18612TIP3   OH277250   2.476   1.082  16.585  0.0218 -0.4499  0.6431
18612TIP3    H177251   2.482   1.133  16.666 -0.1557 -0.6728  0.8006
18612TIP3    H277252   2.552   1.110  16.533  0.2214 -0.4158  0.9504
18613TIP3   OH277253   1.772   4.969  11.993 -0.1276 -0.3941 -0.5170
18613TIP3    H177254   1.708   4.947  12.061  0.4389  1.8188  0.8562
18613TIP3    H277255   1.853   4.928  12.022  0.1139  0.5507  0.1847
18614TIP3   OH277256   2.905   2.931  14.003 -0.5230  1.0412 -0.1141
18614TIP3    H177257   2.856   2.848  13.998  0.8628  0.2669 -1.6718
18614TIP3    H277258   2.840   2.998  13.982 -1.1967  0.1386 -1.0094
18615TIP3   OH277259   4.545   5.670  16.639 -0.2299  0.3362 -0.6997
18615TIP3    H177260   4.569   5.672  16.546  1.3289  0.2948 -0.3326
18615TIP3    H277261   4.452   5.690  16.640 -0.1251  1.0700 -2.2182
18616TIP3   OH277262   0.867   5.147   1.031 -0.2076 -0.2118 -0.3535
18616TIP3    H177263   0.956   5.136   0.997 -0.8236 -0.3095 -1.9931
18616TIP3    H277264   0.869   5.233   1.074  0.8263 -0.4706  0.1567
18617TIP3   OH277265   0.382   3.838   4.346  0.3321 -0.1826  0.0695
18617TIP3    H177266   0.413   3.926   4.322  2.4454 -0.6501  0.8361
18617TIP3    H277267   0.325   3.812   4.274  0.7822  1.2736 -0.8661
18618TIP3   OH277268   2.908   2.497   4.608 -0.3397 -0.3960 -0.3120
18618TIP3    H177269   2.980   2.499   4.670  0.0182 -0.2241 -0.7294
18618TIP3    H277270   2.842   2.556   4.646 -0.0250 -0.1042 -0.2159
18619TIP3   OH277271   4.605   5.298   4.551  0.9133 -0.4205  0.2926
18619TIP3    H177272   4.627   5.206   4.565  2.1210 -0.0851  0.7597
18619TIP3    H277273   4.681   5.346   4.584 -0.5330  0.8403  1.9476
18620TIP3   OH277274   0.328   0.148   5.607 -0.0957  0.7745 -0.1418
18620TIP3    H177275   0.293   0.066   5.573 -1.1066  2.1293 -2.7110
18620TIP3    H277276   0.422   0.143   5.591 -0.3314  0.6363 -1.6877
18621TIP3   OH277277   5.404   0.940  11.496 -0.1832 -0.1056 -0.0636
18621TIP3    H177278   5.372   0.989  11.572 -0.4687 -2.1051  1.1812
18621TIP3    H277279   5.384   0.849  11.516  0.6801 -0.8028 -2.1000
18622TIP3   OH277280   4.477   0.563  11.238 -0.0683  0.2170  0.5867
18622TIP3    H177281   4.419   0.561  11.313 -0.4235 -1.7102  0.3121
18622TIP3    H277282   4.480   0.655  11.212  0.2798  0.9770  3.0868
18623TIP3   OH277283   0.300   4.993   0.806  0.2160  0.5276 -0.2514
18623TIP3    H177284   0.326   4.966   0.718  0.1520 -0.2250 -0.0552
18623TIP3    H277285   0.206   4.974   0.809  0.2293  0.4998 -0.0066
18624TIP3   OH277286   5.164   1.643  12.594  0.0882  0.2875  0.4041
18624TIP3    H177287   5.108   1.663  12.668 -0.4638  1.0361 -0.1949
18624TIP3    H277288   5.237   1.704  12.602  1.2179 -1.1279  1.5566
18625TIP3   OH277289   3.581   5.686  17.160 -0.1917  0.3973 -0.1325
18625TIP3    H177290   3.507   5.742  17.184  0.5110  1.6627 -0.7913
18625TIP3    H277291   3.604   5.714  17.072  1.4895  0.4973  0.3121
18626TIP3   OH277292   1.908   2.010  14.556 -0.5887 -0.1963 -0.1520
18626TIP3    H177293   1.974   2.010  14.626 -1.6802 -0.9157  0.9179
18626TIP3    H277294   1.918   1.925  14.513 -2.1318 -1.1969  1.3514
18627TIP3   OH277295   3.614   3.157   0.130 -0.7012 -0.3631 -0.5905
18627TIP3    H177296   3.668   3.228   0.094  0.1742 -1.6154 -1.8894
18627TIP3    H277297   3.527   3.170   0.092 -0.6378  0.2226 -0.5307
18628TIP3   OH277298   6.493   0.469  14.449 -0.3417 -0.7368 -0.1682
18628TIP3    H177299   6.435   0.503  14.381 -0.3327  0.8878  0.5657
18628TIP3    H277300   6.504   0.543  14.509  2.0697 -1.1441 -0.0086
18629TIP3   OH277301   2.496   5.127  12.706  0.1082  0.8566  0.0985
18629TIP3    H177302   2.581   5.151  12.745 -0.2821  2.2931  0.1158
18629TIP3    H277303   2.437   5.119  12.781 -0.2394  1.8871 -0.0596
18630TIP3   OH277304   1.133   0.649  17.016 -0.2104 -0.3244  0.7283
18630TIP3    H177305   1.143   0.699  17.097 -0.6197  1.2454 -0.1451
18630TIP3    H277306   1.045   0.671  16.984 -0.6859 -2.1716  0.6495
18631TIP3   OH277307   2.650   2.407  17.199 -0.0148 -0.1338  0.0853
18631TIP3    H177308   2.724   2.369  17.151 -0.1979 -0.2561 -0.0995
18631TIP3    H277309   2.578   2.408  17.136  0.4721  2.2751 -0.5641
18632TIP3   OH277310   4.667   2.189   2.773 -0.0097  0.8658 -0.0470
18632TIP3    H177311   4.666   2.271   2.822  0.1950  2.0397 -1.9183
18632TIP3    H277312   4.759   2.163   2.771 -0.1816  0.0528  1.3363
18633TIP3   OH277313   1.550   4.397  13.797  0.2363  0.0191  0.5026
18633TIP3    H177314   1.539   4.401  13.892 -0.8677  1.2681  0.3495
18633TIP3    H277315   1.484   4.458  13.763  1.0363  0.0563 -1.0351
18634TIP3   OH277316   6.675   5.080  12.052 -0.0350 -0.0410 -0.0734
18634TIP3    H177317   6.685   5.106  11.960  0.0059  1.2771  0.2842
18634TIP3    H277318   6.759   5.103  12.093 -0.3796  0.2490  0.4843
18635TIP3   OH277319   6.067   3.337   5.860 -0.7286  0.6268  0.2830
18635TIP3    H177320   6.086   3.262   5.803 -2.5232 -0.0617  0.5212
18635TIP3    H277321   6.151   3.381   5.871  1.2349 -3.2062  2.8029
18636TIP3   OH277322   2.309   5.854   2.606 -0.2623 -0.4463  0.7889
18636TIP3    H177323   2.282   5.763   2.621  0.9100 -0.5518  2.6210
18636TIP3    H277324   2.373   5.871   2.676 -0.2207  1.6890  0.2809
18637TIP3   OH277325   1.215   6.610  15.092 -0.2118 -0.3472 -0.3032
18637TIP3    H177326   1.247   6.546  15.028 -0.4004  0.0759 -0.8323
18637TIP3    H277327   1.149   6.660  15.044  0.6029  0.8746 -0.1967
18638TIP3   OH277328   5.366   6.199  11.906 -0.2993  0.6915 -0.8718
18638TIP3    H177329   5.437   6.259  11.882 -1.0108  1.1864 -1.7918
18638TIP3    H277330   5.313   6.248  11.968 -0.9488  1.0752 -1.7164
18639TIP3   OH277331   4.012   4.622   4.824 -0.1926  0.0487  0.0841
18639TIP3    H177332   3.995   4.535   4.788  0.4213  0.4419 -1.2165
18639TIP3    H277333   3.952   4.680   4.776  0.9718  0.6544 -0.6939
18640TIP3   OH277334   4.066   5.239   0.049 -0.1653 -0.0382 -0.0936
18640TIP3    H177335   4.054   5.153   0.089  0.3955  0.2176  0.6527
18640TIP3    H277336   4.019   5.234  -0.034  1.4652 -1.7437 -0.9937
18641TIP3   OH277337   5.151   1.963  12.535  0.0956  0.0704  0.4720
18641TIP3    H177338   5.204   1.997  12.607  0.4834 -0.2781  0.3553
18641TIP3    H277339   5.198   1.988  12.456  1.5269 -2.4916  0.4074
18642TIP3   OH277340   3.633   0.028  16.959  0.1193 -0.2762  0.2144
18642TIP3    H177341   3.611  -0.054  17.003 -1.9293  0.1877  0.1576
18642TIP3    H277342   3.616   0.010  16.866 -1.6158  0.5400  0.3318
18643TIP3   OH277343   6.704   2.377   3.332  0.2851 -0.7454  0.4871
18643TIP3    H177344   6.800   2.379   3.329  0.2913 -1.6083 -0.2241
18643TIP3    H277345   6.679   2.327   3.254 -0.7298 -0.9340  0.9252
18644TIP3   OH277346   4.559   3.092   1.235  0.0775 -0.3998  0.3415
18644TIP3    H177347   4.515   3.035   1.173  0.1457 -0.1083  0.0244
18644TIP3    H277348   4.490   3.149   1.269 -0.0519 -0.8831  0.8994
18645TIP3   OH277349   3.992   1.495  10.970  0.0143 -0.4191  0.2498
18645TIP3    H177350   4.073   1.516  10.924  1.7265  1.4735  3.7427
18645TIP3    H277351   3.932   1.467  10.901  3.0632 -0.2424 -2.7221
18646TIP3   OH277352   2.109   0.310  14.674 -0.3397 -0.1120  0.1535
18646TIP3    H177353   2.023   0.270  14.661 -0.6478  0.5373  0.1322
18646TIP3    H277354   2.136   0.281  14.761 -0.2702 -0.8636 -0.1081
18647TIP3   OH277355   5.558   4.930   1.396 -0.0155  0.0145 -0.3508
18647TIP3    H177356   5.590   4.994   1.460  0.8638 -1.9458  1.3054
18647TIP3    H277357   5.573   4.971   1.311 -0.0500  2.2165  0.6211
18648TIP3   OH277358   3.006   0.233  15.081 -0.3938  0.0814 -0.6856
18648TIP3    H177359   3.063   0.310  15.080  1.3787 -1.1622 -0.0853
18648TIP3    H277360   3.059   0.164  15.120 -2.2135 -1.2593 -0.4232
18649TIP3   OH277361   1.834   5.612   5.464 -0.1392 -0.6915  0.5405
18649TIP3    H177362   1.791   5.676   5.407  0.7000 -0.1747  0.4829
18649TIP3    H277363   1.892   5.563   5.405  1.9086  0.8593  1.1548
18650TIP3   OH277364   1.513   6.704  10.903 -0.0790 -0.2208 -0.3712
18650TIP3    H177365   1.540   6.649  10.829  1.4010 -3.1206  2.1236
18650TIP3    H277366   1.423   6.677  10.921 -0.3640  0.3317 -0.8994
18651TIP3   OH277367   2.757   0.089  11.899  0.1226  0.6634  0.1643
18651TIP3    H177368   2.763   0.180  11.870  0.7020  0.4322 -0.4462
18651TIP3    H277369   2.791   0.037  11.826  0.8403  0.0176  0.9324
18652TIP3   OH277370   4.382   4.284   1.011  0.5173  0.1581 -0.3399
18652TIP3    H177371   4.390   4.228   0.933 -1.4786 -1.8472  0.7557
18652TIP3    H277372   4.456   4.257   1.066  0.0366 -0.8766 -0.1667
18653TIP3   OH277373   3.887   5.513   3.988  0.9502  0.4039 -0.0366
18653TIP3    H177374   3.810   5.485   3.938  2.2142 -2.1052 -0.7372
18653TIP3    H277375   3.875   5.607   3.999 -1.5760  0.3023 -1.2177
18654TIP3   OH277376   3.630   5.696  14.256 -0.2063 -0.3695  0.2347
18654TIP3    H177377   3.715   5.736  14.236 -0.7022  0.7819  0.3408
18654TIP3    H277378   3.573   5.723  14.184 -0.7770 -0.1575  0.7544
18655TIP3   OH277379   4.171   4.120  13.145  0.4412  0.5910 -0.2835
18655TIP3    H177380   4.210   4.043  13.186  2.8344  1.1464 -1.3382
18655TIP3    H277381   4.146   4.177  13.218  1.8003  0.2491  0.4824
18656TIP3   OH277382   3.471   0.091   5.005  0.0709 -0.2060  0.0045
18656TIP3    H177383   3.430   0.043   5.078  1.8646 -0.5979  0.8029
18656TIP3    H277384   3.476   0.026   4.934 -1.9371  0.2544 -0.6455
18657TIP3   OH277385   2.395   6.350   3.725 -0.2748 -0.4302  0.0143
18657TIP3    H177386   2.455   6.397   3.783  2.3700 -3.3480 -0.0841
18657TIP3    H277387   2.324   6.323   3.783 -0.0741  0.6577  0.8129
18658TIP3   OH277388   5.402   4.718  16.710  0.0197  0.1094 -0.0897
18658TIP3    H177389   5.372   4.669  16.787 -1.1592  0.5181 -0.2611
18658TIP3    H277390   5.497   4.719  16.717  0.2255 -3.2134 -0.6821
18659TIP3   OH277391   5.201   5.729   0.004  0.1494 -0.0613 -0.1204
18659TIP3    H177392   5.190   5.678  -0.076 -1.3754  0.5010 -0.2956
18659TIP3    H277393   5.261   5.800  -0.021 -0.4923  0.2386 -0.8399
18660TIP3   OH277394   2.417   1.505  10.832  0.5195  0.2744  0.7018
18660TIP3    H177395   2.356   1.440  10.795 -1.6464  2.2891  0.4928
18660TIP3    H277396   2.489   1.508  10.770 -0.4408 -0.3103 -0.4883
18661TIP3   OH277397   4.544   1.928  10.974  0.6956  0.0613 -0.0843
18661TIP3    H177398   4.465   1.979  10.992  1.0099  0.1206  1.1821
18661TIP3    H277399   4.514   1.855  10.921 -0.3862 -0.4520  1.1928
18662TIP3   OH277400   4.695   5.284   1.239 -1.2847 -0.0790 -0.0956
18662TIP3    H177401   4.653   5.228   1.304 -1.4615  1.3736  1.0896
18662TIP3    H277402   4.727   5.359   1.289  1.8787 -0.6145 -1.0800
18663TIP3   OH277403   2.541   2.337  14.691  0.3788  0.3596  0.1158
18663TIP3    H177404   2.566   2.408  14.751  1.4324 -0.4161  0.6208
18663TIP3    H277405   2.564   2.370  14.604 -0.2081  1.0860  0.2226
18664TIP3   OH277406   5.359   5.880  14.094 -0.3936 -0.0173  0.0898
18664TIP3    H177407   5.401   5.807  14.049 -0.2049 -0.0065  0.2459
18664TIP3    H277408   5.351   5.948  14.028  1.8719  0.8147  0.5920
18665TIP3   OH277409   5.210   5.265   2.988  0.2439  0.1009 -0.1348
18665TIP3    H177410   5.164   5.192   2.947  0.8955 -0.5012  0.1832
18665TIP3    H277411   5.303   5.244   2.977  0.4908  1.5450 -1.2430
18666TIP3   OH277412   0.725   5.780   4.531 -1.1725  0.7231 -0.4645
18666TIP3    H177413   0.631   5.777   4.513 -1.4049  0.4953  0.7130
18666TIP3    H277414   0.731   5.809   4.623 -0.1257  0.0066 -0.2919
18667TIP3   OH277415   2.604   4.267  13.111  0.6582  0.1501  0.0604
18667TIP3    H177416   2.635   4.354  13.085  1.3099 -0.4213 -1.1539
18667TIP3    H277417   2.664   4.206  13.068 -0.4629 -0.9285 -0.0321
18668TIP3   OH277418   4.650   3.006   5.588  0.1585 -0.7061  0.0146
18668TIP3    H177419   4.711   2.992   5.515  1.1621 -0.3973  0.7727
18668TIP3    H277420   4.630   2.918   5.620  0.8534 -0.7779  0.2674
18669TIP3   OH277421   3.134   3.523   2.773 -0.2669  0.4813 -0.3344
18669TIP3    H177422   3.153   3.479   2.856  0.5249  0.7662 -0.3629
18669TIP3    H277423   3.219   3.545   2.737 -0.6408  2.2633 -0.2122
18670TIP3   OH277424   6.475   5.571  11.575 -0.4483 -0.1294 -0.1648
18670TIP3    H177425   6.391   5.532  11.553 -0.8283  0.7271 -0.2849
18670TIP3    H277426   6.535   5.497  11.586 -1.2708 -0.7529  0.1473
18671TIP3   OH277427   2.435   5.327  15.743  0.4523 -0.1865 -0.5186
18671TIP3    H177428   2.521   5.362  15.720  0.7503 -0.6649 -0.1495
18671TIP3    H277429   2.450   5.273  15.821 -0.3765  0.6170  0.2206
18672TIP3   OH277430   2.543   1.275  11.890 -0.7949  0.1001  0.0063
18672TIP3    H177431   2.548   1.270  11.794  1.8100 -2.4067  0.1213
18672TIP3    H277432   2.578   1.362  11.911  1.8684 -0.5222 -1.3334
18673TIP3   OH277433   1.802   4.346  12.953 -0.4661  0.2919  0.3058
18673TIP3    H177434   1.832   4.258  12.977 -1.9348 -0.1466  0.6965
18673TIP3    H277435   1.881   4.399  12.948  0.6547 -1.4329 -1.6681
18674TIP3   OH277436   5.846   2.661  11.257 -0.0430  0.5636  0.2042
18674TIP3    H177437   5.883   2.615  11.182  0.3852  0.9525  0.1678
18674TIP3    H277438   5.801   2.594  11.308 -0.8698  0.3963 -0.7237
18675TIP3   OH277439   0.994   4.328   4.844 -0.0259  0.2104 -0.3282
18675TIP3    H177440   1.085   4.340   4.817 -0.0369 -0.1142 -0.5220
18675TIP3    H277441   0.996   4.328   4.939  0.1199  0.6267 -0.3316
18676TIP3   OH277442   5.596   5.701   0.487  0.1797 -0.3359 -0.0576
18676TIP3    H177443   5.610   5.686   0.580  0.4307  1.0225  0.1386
18676TIP3    H277444   5.505   5.728   0.480  0.4290  0.5472 -0.0587
18677TIP3   OH277445   2.567   5.298   0.346 -0.2959  0.0028 -0.2191
18677TIP3    H177446   2.642   5.303   0.406  0.4393 -0.4071 -1.0926
18677TIP3    H277447   2.543   5.205   0.346 -2.0167  0.3795  1.4901
18678TIP3   OH277448   1.412   2.160  11.820  0.8050  0.3816 -0.2100
18678TIP3    H177449   1.415   2.092  11.752 -1.2686 -0.5679  0.5699
18678TIP3    H277450   1.333   2.211  11.800  1.4733  1.5872  0.1352
18679TIP3   OH277451   5.505   4.204   1.596 -0.0455  0.0655  0.5179
18679TIP3    H177452   5.467   4.244   1.675  1.0549 -1.0036  1.6270
18679TIP3    H277453   5.486   4.111   1.605  1.7774 -0.3363  0.5129
18680TIP3   OH277454   0.417   2.230   3.399 -0.2131  0.1343  0.5669
18680TIP3    H177455   0.393   2.147   3.439 -0.2239  0.1183  0.5270
18680TIP3    H277456   0.362   2.295   3.443 -1.9630 -0.1629 -1.0553
18681TIP3   OH277457   3.467   2.271   0.970 -0.1147  0.6329 -0.1208
18681TIP3    H177458   3.426   2.193   1.006  0.7330 -0.1908 -0.8857
18681TIP3    H277459   3.419   2.344   1.009 -0.0718 -0.2254  1.6528
18682TIP3   OH277460   0.348   0.250   1.351  0.0318 -0.2887 -0.0945
18682TIP3    H177461   0.441   0.231   1.346 -0.0982 -0.8780 -0.4042
18682TIP3    H277462   0.329   0.253   1.445  0.5333  0.7410 -0.0163
18683TIP3   OH277463   1.078   1.781   1.831  0.4033 -0.4247 -0.2954
18683TIP3    H177464   1.101   1.863   1.874 -1.3794 -0.6222  1.1661
18683TIP3    H277465   1.129   1.714   1.877 -1.3140 -0.6054  1.4539
18684TIP3   OH277466   6.355   1.833  12.598  0.4815 -0.2661 -0.1591
18684TIP3    H177467   6.370   1.919  12.558 -0.3851  0.0305  0.1172
18684TIP3    H277468   6.262   1.834  12.620  1.1068  0.0726  2.9150
18685TIP3   OH277469   2.329   2.914  12.222  0.6339  0.3814 -0.0717
18685TIP3    H177470   2.308   2.951  12.137 -0.6419  1.7923  0.8023
18685TIP3    H277471   2.421   2.888  12.215  0.5457  0.4447 -1.8586
18686TIP3   OH277472   3.430   0.369  10.338  0.1290  0.5437 -0.4453
18686TIP3    H177473   3.341   0.334  10.331 -0.5079  0.8203  3.7660
18686TIP3    H277474   3.422   0.459  10.307 -0.7802  0.2368 -1.1520
18687TIP3   OH277475   2.939   1.277   4.478 -0.2736 -0.2478  0.2298
18687TIP3    H177476   2.894   1.213   4.534  1.0716  0.2811  1.9794
18687TIP3    H277477   2.897   1.360   4.499 -0.1554 -0.1337  0.0106
18688TIP3   OH277478   2.981   3.414  15.014 -0.4367  0.0069 -0.8533
18688TIP3    H177479   2.923   3.472  14.964 -1.2077  0.6574  0.7359
18688TIP3    H277480   3.046   3.473  15.052 -0.2519 -0.3880 -0.5543
18689TIP3   OH277481   2.638   2.079  15.216 -0.2731  0.1892  0.0011
18689TIP3    H177482   2.629   1.988  15.244 -0.8554  0.4923  0.8543
18689TIP3    H277483   2.709   2.113  15.269 -1.3922  0.7735  1.1854
18690TIP3   OH277484   2.167   4.496  14.996 -0.0515 -1.0945  0.0209
18690TIP3    H177485   2.222   4.418  14.987  2.8772  0.9757 -1.7218
18690TIP3    H277486   2.223   4.568  14.966 -3.0650  1.5242  0.2249
18691TIP3   OH277487   4.951   5.530   6.193 -0.4543 -0.3697  0.1411
18691TIP3    H177488   4.936   5.451   6.245  0.0824 -0.5073  0.0866
18691TIP3    H277489   4.951   5.500   6.102 -1.1940 -0.1586  0.0620
18692TIP3   OH277490   6.407   2.687  11.214 -0.3821  0.7580 -0.6489
18692TIP3    H177491   6.472   2.642  11.268 -1.7263 -0.2275  0.2169
18692TIP3    H277492   6.410   2.778  11.242 -1.2405  0.2246  1.3579
18693TIP3   OH277493   5.884   3.203   1.867 -0.8893  0.2916  0.0440
18693TIP3    H177494   5.824   3.271   1.836  1.6673  3.3870  1.3618
18693TIP3    H277495   5.915   3.236   1.952  1.3089 -2.0307  0.2377
18694TIP3   OH277496   4.380   3.062  16.363  0.0763 -0.7907  0.4277
18694TIP3    H177497   4.334   3.000  16.306  0.7913 -0.9741  0.0392
18694TIP3    H277498   4.416   3.128  16.304 -1.1211  0.3197  0.8815
18695TIP3   OH277499   3.676   0.366  13.051 -0.0542 -0.1095 -0.8133
18695TIP3    H177500   3.617   0.382  13.125 -0.9962 -2.2555 -1.0177
18695TIP3    H277501   3.658   0.438  12.990 -2.8947 -0.9206 -1.0966
18696TIP3   OH277502   1.023   0.095  13.339 -0.4447 -0.0021  0.2290
18696TIP3    H177503   0.989   0.184  13.353 -1.4305 -0.0722 -1.3749
18696TIP3    H277504   1.008   0.050  13.421 -3.1863  0.3474  0.0164
18697TIP3   OH277505   6.733   2.053   6.232 -0.2620 -0.1982  0.3880
18697TIP3    H177506   6.815   2.077   6.189  0.0460 -0.3244  0.8933
18697TIP3    H277507   6.685   2.136   6.239  0.5563  0.2011  1.6220
18698TIP3   OH277508   6.520   5.769  15.054  0.3601  0.6770 -0.1466
18698TIP3    H177509   6.510   5.819  15.135  1.2968 -1.1004  1.1186
18698TIP3    H277510   6.612   5.744  15.052  0.4458  1.0301 -2.0013
18699TIP3   OH277511   6.180   1.519   2.005  0.2718  0.3446  0.2820
18699TIP3    H177512   6.099   1.567   2.020  0.7500  0.6553  2.2026
18699TIP3    H277513   6.224   1.567   1.935 -1.5991 -0.4158 -1.4985
18700TIP3   OH277514   0.107   2.961   4.023  0.0308 -0.3145  0.0382
18700TIP3    H177515   0.046   2.962   3.948 -0.5069 -0.3003  0.4661
18700TIP3    H277516   0.125   3.054   4.040 -0.6717 -0.2622  0.5705
18701TIP3   OH277517   2.155   5.156  12.812 -0.1181  0.0037 -0.1296
18701TIP3    H177518   2.118   5.239  12.781  1.2211  0.6489 -0.0395
18701TIP3    H277519   2.232   5.181  12.863  0.1864 -1.2884  0.0774
18702TIP3   OH277520   0.490   3.760   5.418 -0.1640  0.0843  0.2070
18702TIP3    H177521   0.419   3.763   5.354  0.8023 -1.0508 -1.0003
18702TIP3    H277522   0.491   3.669   5.449  1.7323 -0.3939 -1.0496
18703TIP3   OH277523   5.876   3.242  15.154 -0.0691  0.1697  0.9403
18703TIP3    H177524   5.883   3.296  15.233  2.1504  0.1552  0.8097
18703TIP3    H277525   5.933   3.168  15.171 -1.0491 -0.8241  0.0514
18704TIP3   OH277526   0.806   6.219  10.621 -0.5139  0.0932 -0.0090
18704TIP3    H177527   0.807   6.272  10.541 -1.8470  0.3230  0.1048
18704TIP3    H277528   0.877   6.254  10.674 -0.2042  0.5505 -0.7101
18705TIP3   OH277529   4.678   4.463  10.893  0.0152 -0.6657 -0.1581
18705TIP3    H177530   4.736   4.454  10.817 -0.7837 -1.1705 -0.7181
18705TIP3    H277531   4.715   4.537  10.942  1.4811 -1.3612 -0.1732
18706TIP3   OH277532   3.546   6.480   0.686 -0.0966 -0.2312  0.0533
18706TIP3    H177533   3.558   6.387   0.705  1.4875  0.0823  0.7117
18706TIP3    H277534   3.578   6.491   0.596 -0.4189 -0.3416 -0.0764
18707TIP3   OH277535   5.497   1.911   2.207 -0.3351 -0.6590 -0.2157
18707TIP3    H177536   5.407   1.925   2.176  0.1501  0.4376 -1.1760
18707TIP3    H277537   5.549   1.900   2.128  0.5301 -0.3807  0.2951
18708TIP3   OH277538   2.388   4.535   1.894 -0.1312 -0.5357  0.6086
18708TIP3    H177539   2.381   4.627   1.867 -0.3221 -0.8432 -0.4035
18708TIP3    H277540   2.308   4.518   1.943  0.8377  0.4294  2.7158
18709TIP3   OH277541   6.598   6.564  16.928 -0.6243  0.8681 -0.6712
18709TIP3    H177542   6.559   6.517  17.002 -0.1010  0.1623 -0.8338
18709TIP3    H277543   6.671   6.509  16.900  0.0645  1.8216 -0.8186
18710TIP3   OH277544   2.342   3.491  12.436  0.4003 -0.9174  0.1200
18710TIP3    H177545   2.336   3.493  12.340  0.2745 -0.7776  0.1316
18710TIP3    H277546   2.328   3.399  12.458  0.1926 -0.9099  0.0197
18711TIP3   OH277547   1.843   1.470  12.452  0.5246  0.9330  0.2399
18711TIP3    H177548   1.824   1.561  12.476 -0.0679  0.7444  0.4835
18711TIP3    H277549   1.892   1.435  12.526 -1.5479  0.2652  1.3459
18712TIP3   OH277550   3.381   4.703   2.703  0.1376 -0.0483  0.0667
18712TIP3    H177551   3.465   4.666   2.730  0.0322 -0.3836 -0.0531
18712TIP3    H277552   3.336   4.722   2.785  2.0043  4.2453  0.3535
18713TIP3   OH277553   3.011   5.039  12.932  0.5631 -0.0567 -0.5527
18713TIP3    H177554   3.099   5.022  12.899  0.8819  2.1963 -1.0132
18713TIP3    H277555   2.976   5.106  12.874 -2.7144 -2.9366 -2.3233
18714TIP3   OH277556   3.788   2.945  16.546 -0.0428  0.2443  0.2146
18714TIP3    H177557   3.867   2.972  16.498  0.1688 -0.2185  0.2946
18714TIP3    H277558   3.718   2.949  16.481 -0.1409  1.5424  0.3589
18715TIP3   OH277559   0.828   4.208   1.345 -0.2317  0.4004  0.0421
18715TIP3    H177560   0.883   4.273   1.301 -1.4775  0.5223 -1.4481
18715TIP3    H277561   0.883   4.173   1.414  2.6650 -1.2417 -2.8136
18716TIP3   OH277562   1.299   0.914  12.810  0.7838  0.6909 -0.4373
18716TIP3    H177563   1.395   0.910  12.803  0.7578  1.8864 -1.8959
18716TIP3    H277564   1.268   0.852  12.745  0.5312 -0.4721  0.7468
18717TIP3   OH277565   5.879   1.557  10.736 -0.1814 -0.2937  0.1147
18717TIP3    H177566   5.799   1.505  10.723 -0.1532  0.1175 -2.2346
18717TIP3    H277567   5.950   1.495  10.724 -0.1190 -0.4726  1.2948
18718TIP3   OH277568   1.490   0.222   0.801  0.3235  0.0389  0.1330
18718TIP3    H177569   1.473   0.187   0.889  0.8279 -2.7039 -0.7653
18718TIP3    H277570   1.406   0.255   0.772 -0.9426 -2.8679  0.1283
18719TIP3   OH277571   0.751   5.580  13.191  0.0818  0.2864 -0.1739
18719TIP3    H177572   0.736   5.527  13.113  1.4337 -1.2206  0.5416
18719TIP3    H277573   0.663   5.607  13.220 -0.5775 -0.9303 -0.9899
18720TIP3   OH277574   4.647   5.022   4.541  0.3341  0.0770  0.4522
18720TIP3    H177575   4.599   4.940   4.548  0.0312  0.0496 -1.4188
18720TIP3    H277576   4.726   5.000   4.492 -0.4560  1.1322 -1.3906
18721TIP3   OH277577   6.298   4.998  12.529 -0.5665 -0.2328  0.0575
18721TIP3    H177578   6.290   5.013  12.435  0.2895  0.3831  0.0673
18721TIP3    H277579   6.221   4.946  12.552 -0.6737 -0.5746 -1.0174
18722TIP3   OH277580   3.314   1.033   0.131  0.4124  0.4361  0.3059
18722TIP3    H177581   3.350   0.955   0.088 -0.9765 -0.0742  0.0127
18722TIP3    H277582   3.233   1.002   0.172  0.9646  1.2247  2.1043
18723TIP3   OH277583   2.303   5.142   2.243  0.0434  0.1169  0.0239
18723TIP3    H177584   2.210   5.157   2.227 -0.1818 -0.6138  0.5874
18723TIP3    H277585   2.310   5.048   2.258  1.2709 -0.3227 -2.6060
18724TIP3   OH277586   1.111   2.819   5.751 -0.2712 -0.1612 -0.1265
18724TIP3    H177587   1.096   2.875   5.675  1.8122 -0.1786 -0.6178
18724TIP3    H277588   1.069   2.736   5.729 -0.2893  0.0612 -0.9548
18725TIP3   OH277589   6.554   0.849  12.970  0.4416  0.5744  0.1094
18725TIP3    H177590   6.513   0.800  12.899  2.8171  0.0681 -1.0148
18725TIP3    H277591   6.543   0.793  13.047  0.3594 -0.2368 -0.4798
18726TIP3   OH277592   6.246   3.500  15.711 -0.0973  0.1023  0.4370
18726TIP3    H177593   6.286   3.573  15.760  0.6623 -0.5096  0.7538
18726TIP3    H277594   6.216   3.540  15.630  0.7259  0.6931  0.4045
18727TIP3   OH277595   2.072   5.833   6.183 -0.6174 -0.1319  0.6535
18727TIP3    H177596   2.002   5.838   6.118  0.4715  1.4940 -0.4667
18727TIP3    H277597   2.095   5.740   6.186 -0.5279 -0.2398 -1.5213
18728TIP3   OH277598   4.282   2.192   2.035  0.0780  0.1152  0.2350
18728TIP3    H177599   4.364   2.199   1.986 -0.3419  1.5878 -0.2898
18728TIP3    H277600   4.310   2.177   2.125  0.9145  0.1114 -0.0156
18729TIP3   OH277601   2.423   1.811   3.526  0.3510 -0.2851 -0.2312
18729TIP3    H177602   2.414   1.788   3.619  1.3278  0.9459  0.1872
18729TIP3    H277603   2.374   1.892   3.516 -0.9941 -1.1619 -1.1547
18730TIP3   OH277604   4.034   3.471   4.348  0.2637  0.6458  0.1729
18730TIP3    H177605   4.027   3.449   4.441  0.2193 -0.1263 -0.0044
18730TIP3    H277606   3.994   3.557   4.341  1.4247  1.2976  1.0822
18731TIP3   OH277607   6.684   4.336  15.861 -0.1225 -0.0514 -0.0782
18731TIP3    H177608   6.739   4.326  15.939  0.3498  0.6105 -0.3135
18731TIP3    H277609   6.596   4.347  15.896 -0.1123 -1.0905  0.3089
18732TIP3   OH277610   1.316   4.553  13.767  0.2786  0.1531  0.3632
18732TIP3    H177611   1.341   4.609  13.694 -0.2822 -1.4362 -1.1257
18732TIP3    H277612   1.268   4.611  13.827 -0.2888  1.2697 -1.1106
18733TIP3   OH277613   4.219   0.938   6.206  0.6289 -0.1690  0.2872
18733TIP3    H177614   4.274   0.862   6.187  0.5775 -0.6091  1.7804
18733TIP3    H277615   4.239   0.960   6.297 -0.4426  0.6970  0.3351
18734TIP3   OH277616   5.381   3.575  11.385 -0.3670 -0.1311  0.2969
18734TIP3    H177617   5.454   3.636  11.387 -0.5312  0.0487  1.5391
18734TIP3    H277618   5.402   3.514  11.315  1.0957 -0.2405  0.8068
18735TIP3   OH277619   6.397   2.080   5.115 -0.2016  0.0885  0.6206
18735TIP3    H177620   6.429   2.008   5.169 -1.2956 -0.2793  0.8016
18735TIP3    H277621   6.334   2.040   5.055  0.4158  0.6243 -0.4229
18736TIP3   OH277622   3.954   3.791   4.888 -0.4131  0.6493 -0.1575
18736TIP3    H177623   3.975   3.882   4.868  1.3432  0.0259 -1.4283
18736TIP3    H277624   4.020   3.741   4.841  0.0217 -1.2160  2.2480
18737TIP3   OH277625   2.949   0.828  16.949  1.1505  0.3099 -0.4672
18737TIP3    H177626   2.951   0.843  17.044 -1.9370 -0.6505 -0.1604
18737TIP3    H277627   2.939   0.734  16.939 -0.2224  0.5428 -1.6578
18738TIP3   OH277628   6.130   5.096   5.129  0.3780 -0.4864  0.4287
18738TIP3    H177629   6.054   5.040   5.146  0.0636 -0.1941 -0.0011
18738TIP3    H277630   6.165   5.115   5.216 -1.9403  2.0490  0.9449
18739TIP3   OH277631   0.516   4.775   1.015 -0.2087  0.0384 -0.1970
18739TIP3    H177632   0.452   4.708   1.040  2.6055 -1.9185  2.5983
18739TIP3    H277633   0.539   4.755   0.925 -0.6121 -1.7773  0.0688
18740TIP3   OH277634   2.716   2.753  15.083 -0.2814 -0.6070 -0.6948
18740TIP3    H177635   2.744   2.829  15.032  0.2385 -0.7956 -0.6910
18740TIP3    H277636   2.625   2.738  15.055  0.1557 -1.0429 -1.9743
18741TIP3   OH277637   0.779   0.495  13.396  0.4941 -0.5651 -0.8132
18741TIP3    H177638   0.773   0.561  13.327 -1.9801 -0.5408 -0.6760
18741TIP3    H277639   0.697   0.445  13.388 -0.6534  0.3812  3.0317
18742TIP3   OH277640   5.206   3.585  12.628  0.6927  0.0880 -0.1894
18742TIP3    H177641   5.185   3.647  12.558  1.6511 -1.1921 -1.6704
18742TIP3    H277642   5.144   3.513  12.616  0.7564 -0.0640  0.3701
18743TIP3   OH277643   6.388   1.177   5.904 -0.2513  1.0903 -1.0350
18743TIP3    H177644   6.353   1.153   5.990  0.5227 -1.4104 -1.3309
18743TIP3    H277645   6.311   1.181   5.847 -0.6525  1.6644 -0.4614
18744TIP3   OH277646   0.801   6.424   2.870 -0.0465 -0.0905  0.2609
18744TIP3    H177647   0.758   6.384   2.795 -0.0924 -0.5309  0.5155
18744TIP3    H277648   0.737   6.486   2.904  1.2033  2.7045 -2.0835
18745TIP3   OH277649   1.724   0.348   0.734  0.0507  0.1179  0.3748
18745TIP3    H177650   1.641   0.321   0.774 -0.3119  0.4718 -0.1186
18745TIP3    H277651   1.717   0.443   0.725  0.4940  0.1458  0.2828
18746TIP3   OH277652   2.177   2.365  16.827  0.3601  0.3634  0.0316
18746TIP3    H177653   2.106   2.356  16.891  1.3842  2.0201  1.4873
18746TIP3    H277654   2.190   2.277  16.793 -2.0083 -0.0784  0.1292
18747TIP3   OH277655   1.836   4.815   4.566  0.2888 -0.3951 -0.0846
18747TIP3    H177656   1.866   4.769   4.487 -0.3609  1.4507 -1.5064
18747TIP3    H277657   1.916   4.850   4.605  0.5809 -0.9062 -0.2260
18748TIP3   OH277658   5.065   3.484   2.144 -0.0644 -0.3511 -0.4928
18748TIP3    H177659   5.005   3.461   2.074  0.0222 -0.9389 -0.3817
18748TIP3    H277660   5.034   3.434   2.220  0.2096 -0.2019 -0.2771
18749TIP3   OH277661   5.429   3.961   1.612 -0.4944 -0.2280 -0.1135
18749TIP3    H177662   5.427   3.907   1.533 -2.0167  0.5803 -0.6623
18749TIP3    H277663   5.340   3.995   1.621 -0.3270 -0.1730  1.8768
18750TIP3   OH277664   1.275   2.746  16.462  0.3215 -0.2387 -0.2094
18750TIP3    H177665   1.356   2.796  16.447  0.2779  0.3813  1.4265
18750TIP3    H277666   1.208   2.794  16.413  0.6336  0.2273 -0.1903
18751TIP3   OH277667   5.409   0.809  10.349 -0.1513 -0.0107 -0.2594
18751TIP3    H177668   5.353   0.799  10.272 -0.5864 -0.4683  0.1137
18751TIP3    H277669   5.493   0.838  10.313 -0.2248 -0.6202 -0.9449
18752TIP3   OH277670   5.407   4.679   3.859 -0.2261 -0.2991 -0.0543
18752TIP3    H177671   5.461   4.607   3.826 -0.1278 -0.1059 -0.3215
18752TIP3    H277672   5.348   4.701   3.787 -1.6005 -1.4023  0.7023
18753TIP3   OH277673   2.942   5.418   2.487 -0.4287  0.5980  0.0129
18753TIP3    H177674   3.033   5.397   2.508 -0.4520 -1.2901 -1.4967
18753TIP3    H277675   2.904   5.447   2.571  0.4367 -2.7926  1.7392
18754TIP3   OH277676   1.869   1.761  16.509 -0.5838  1.0035  0.0242
18754TIP3    H177677   1.781   1.735  16.480 -0.3628 -0.0622  0.2746
18754TIP3    H277678   1.887   1.842  16.461 -2.1742  1.9003  0.8437
18755TIP3   OH277679   4.134   3.726   5.256 -0.3386 -0.0761 -0.2569
18755TIP3    H177680   4.217   3.693   5.222  1.0648  2.5842  0.3563
18755TIP3    H277681   4.118   3.673   5.334  1.6920  0.4788  0.5857
18756TIP3   OH277682   6.145   0.709  13.837  0.0143 -0.8837 -0.4329
18756TIP3    H177683   6.099   0.791  13.822  1.0611 -0.0558  0.7217
18756TIP3    H277684   6.087   0.642  13.802 -0.9913  0.3202 -1.1215
18757TIP3   OH277685   0.445   1.426   4.895 -0.6649  0.4937  0.2017
18757TIP3    H177686   0.354   1.407   4.870 -0.7400  1.6345 -0.4609
18757TIP3    H277687   0.487   1.340   4.898 -1.4282  0.0512 -0.8614
18758TIP3   OH277688   4.410   5.849   0.554  0.1948  0.7426 -0.2493
18758TIP3    H177689   4.449   5.763   0.568  1.2280  1.4898  1.7972
18758TIP3    H277690   4.323   5.830   0.519  0.8756 -1.0766 -1.0917
18759TIP3   OH277691   1.969   2.516  14.991 -0.1393 -0.5447  0.4127
18759TIP3    H177692   1.909   2.581  14.953 -0.9426 -1.9058 -0.7331
18759TIP3    H277693   2.046   2.519  14.934  0.1584 -0.0508  0.8334
18760TIP3   OH277694   5.140   2.403   0.428 -0.0487 -0.1391  0.4048
18760TIP3    H177695   5.059   2.454   0.427  0.4451  0.7219  2.1796
18760TIP3    H277696   5.110   2.313   0.444 -0.7847 -0.2228 -1.1522
18761TIP3   OH277697   3.146   2.508   5.613 -0.2261  0.1997  0.5525
18761TIP3    H177698   3.087   2.583   5.623  1.1056  1.2626  0.6488
18761TIP3    H277699   3.226   2.534   5.658  0.2225 -1.3492  0.7053
18762TIP3   OH277700   2.184   0.070  10.786 -0.1216  0.0591 -0.4221
18762TIP3    H177701   2.270   0.049  10.751  0.2569  0.4253  0.2687
18762TIP3    H277702   2.135  -0.012  10.781  0.6080 -0.4171  0.1532
18763TIP3   OH277703   2.795   3.234  13.892 -0.3656  0.0751  0.4551
18763TIP3    H177704   2.824   3.266  13.807  1.0383  1.6599  1.4683
18763TIP3    H277705   2.699   3.231  13.886 -0.3672  1.5987 -0.6913
18764TIP3   OH277706   4.888   1.567   2.945  0.1092  0.2467 -0.0232
18764TIP3    H177707   4.885   1.486   2.996 -0.4203  1.2109  1.5633
18764TIP3    H277708   4.981   1.588   2.938  0.1769  0.2075  0.7343
18765TIP3   OH277709   6.265   6.356  16.773 -0.1094  0.3257  0.0444
18765TIP3    H177710   6.350   6.315  16.761  0.4616  1.7373 -1.0753
18765TIP3    H277711   6.272   6.403  16.856  0.2842  0.5960 -0.1390
18766TIP3   OH277712   5.252   4.103  11.730 -0.0962 -0.0220 -0.6884
18766TIP3    H177713   5.175   4.051  11.708 -0.3705  0.1709 -0.1850
18766TIP3    H277714   5.320   4.070  11.671 -0.6305 -0.0017 -1.3281
18767TIP3   OH277715   0.967   1.429   4.994  0.2762  0.1483  0.0403
18767TIP3    H177716   0.883   1.417   5.037 -0.1684 -1.0330 -1.0893
18767TIP3    H277717   0.978   1.350   4.940  1.3566  1.0005 -1.0540
18768TIP3   OH277718   1.001   0.838   2.323 -1.0572 -0.7108 -0.0556
18768TIP3    H177719   0.923   0.790   2.352 -2.0844  0.4233 -0.8253
18768TIP3    H277720   0.993   0.842   2.228 -0.9201  0.8173 -0.0276
18769TIP3   OH277721   5.636   5.610  11.767 -0.2673 -0.1260  0.7397
18769TIP3    H177722   5.718   5.564  11.748  0.6322  1.8284 -0.3871
18769TIP3    H277723   5.568   5.553  11.732  0.8117 -0.5758 -0.7280
18770TIP3   OH277724   5.626   2.772   5.867  0.4878  0.3342  0.5715
18770TIP3    H177725   5.574   2.840   5.910  1.2102  1.5896 -0.4556
18770TIP3    H277726   5.641   2.707   5.936 -0.4877  1.0554  1.5099
18771TIP3   OH277727   0.143   3.157  14.786 -0.1582  0.3929  0.2385
18771TIP3    H177728   0.075   3.223  14.803  0.6039  2.1408 -2.7626
18771TIP3    H277729   0.094   3.080  14.757 -1.0863 -0.6933  4.0726
18772TIP3   OH277730   0.582   6.739   1.664  0.8977  0.5066 -0.7173
18772TIP3    H177731   0.599   6.646   1.673  0.0513  0.2695 -1.4370
18772TIP3    H277732   0.657   6.782   1.706  0.9360 -0.4889  0.2510
18773TIP3   OH277733   2.207   3.233   4.823  0.1361  0.0058 -0.4712
18773TIP3    H177734   2.149   3.158   4.811 -0.3294 -0.0595  1.8142
18773TIP3    H277735   2.151   3.309   4.806 -0.0331 -0.1087 -0.4338
18774TIP3   OH277736   1.791   5.006   4.039 -0.2129  0.5059  0.1956
18774TIP3    H177737   1.741   4.998   3.958 -0.5881 -3.6959  0.6294
18774TIP3    H277738   1.727   5.032   4.104 -0.6690  0.5245 -0.2565
18775TIP3   OH277739   4.963   4.848  17.189 -0.4024 -0.0049  0.5712
18775TIP3    H177740   4.874   4.837  17.221  0.2466 -0.5389  2.2737
18775TIP3    H277741   4.979   4.943  17.194  0.1909 -0.1777  3.4204
18776TIP3   OH277742   0.129   2.447  12.402 -0.2277 -0.2134  0.1406
18776TIP3    H177743   0.202   2.388  12.420  0.1857  0.4958  0.8877
18776TIP3    H277744   0.163   2.507  12.335 -0.0091  0.2919  0.6902
18777TIP3   OH277745   0.488   0.430  16.388 -0.0812 -0.4287  0.2290
18777TIP3    H177746   0.401   0.464  16.410 -0.8449 -1.3854 -1.1459
18777TIP3    H277747   0.492   0.345  16.431  2.0510  1.3791  4.1420
18778TIP3   OH277748   3.388   1.440   2.271  0.0921  0.2015 -0.2343
18778TIP3    H177749   3.459   1.492   2.234  0.5858 -1.0714 -1.0997
18778TIP3    H277750   3.313   1.460   2.214  0.0667  0.5748 -0.0764
18779TIP3   OH277751   5.715   5.696   2.068 -0.2977  0.4045 -0.2945
18779TIP3    H177752   5.711   5.624   2.130 -1.5453  1.0401  0.4075
18779TIP3    H277753   5.807   5.723   2.066 -0.2845  0.5725  1.5185
18780TIP3   OH277754   0.705   4.637   2.214  0.2194  0.2728 -0.0954
18780TIP3    H177755   0.632   4.698   2.217 -1.2639 -1.3270 -1.5228
18780TIP3    H277756   0.773   4.678   2.268 -1.7872  1.6950  1.4978
18781TIP3   OH277757   5.062   4.930   5.607  0.1718  0.7237 -0.4399
18781TIP3    H177758   4.979   4.960   5.645 -0.3109 -1.6472  0.5657
18781TIP3    H277759   5.119   4.915   5.682  0.5663 -0.2715 -0.9166
18782TIP3   OH277760   5.116   3.674  12.134 -0.3749  0.7523  0.3476
18782TIP3    H177761   5.175   3.720  12.074 -1.5555  0.2031 -1.3048
18782TIP3    H277762   5.137   3.581  12.121  0.1331  0.6509  1.6750
18783TIP3   OH277763   1.885   0.259  14.987 -0.3369 -0.9213 -0.6471
18783TIP3    H177764   1.810   0.221  14.942 -2.1804  0.0120  1.4398
18783TIP3    H277765   1.908   0.336  14.935 -2.3845  0.1130 -0.1156
18784TIP3   OH277766   5.418   0.639  10.085 -0.0619  0.2482  0.7929
18784TIP3    H177767   5.473   0.575  10.131  0.1574  0.3300  0.6488
18784TIP3    H277768   5.336   0.640  10.134  0.3033  0.6178  1.4049
18785TIP3   OH277769   0.150   6.680  13.154 -0.5399  0.1400  0.5448
18785TIP3    H177770   0.163   6.767  13.117  1.6241 -0.7632 -1.0273
18785TIP3    H277771   0.152   6.694  13.249  0.5098  1.7429  0.3333
18786TIP3   OH277772   0.328   4.716   1.675  0.6082 -0.0260 -0.0987
18786TIP3    H177773   0.387   4.715   1.750 -1.7238 -0.0196  1.8628
18786TIP3    H277774   0.303   4.625   1.663  1.1532 -0.0636 -1.0877
18787TIP3   OH277775   5.826   0.833   2.277  0.3852 -0.4567  0.3785
18787TIP3    H177776   5.852   0.843   2.185 -0.2080 -0.8114  0.1708
18787TIP3    H277777   5.771   0.909   2.294  2.3060  0.8694  1.1186
18788TIP3   OH277778   2.061   2.038  12.007 -0.4686  0.4531  0.2894
18788TIP3    H177779   2.098   1.955  12.038 -0.2411  1.1299  1.9391
18788TIP3    H277780   2.033   2.083  12.087 -1.0320  1.7656 -0.6132
18789TIP3   OH277781   0.642   2.034  11.900  0.3215  0.4403 -0.8278
18789TIP3    H177782   0.624   2.095  11.972  0.2138  0.5323 -0.9323
18789TIP3    H277783   0.556   2.019  11.859  0.2253 -0.3312 -0.3632
18790TIP3   OH277784   0.424   4.490  12.228  0.5575  0.0420 -0.4064
18790TIP3    H177785   0.513   4.458  12.216  0.1455 -1.3208  0.0617
18790TIP3    H277786   0.435   4.582  12.252  1.9096 -0.4457  0.9681
18791TIP3   OH277787   1.599   3.913   3.364 -0.5210 -0.0454 -0.7985
18791TIP3    H177788   1.638   3.861   3.435 -1.0334  0.0465 -0.4401
18791TIP3    H277789   1.673   3.961   3.327 -0.3644  0.5360  0.2183
18792TIP3   OH277790   4.299   0.976  15.421 -0.1404 -0.3144 -0.0768
18792TIP3    H177791   4.315   0.889  15.456 -0.3643  0.0992  1.1059
18792TIP3    H277792   4.370   0.989  15.357  1.5610 -0.3263  1.6978
18793TIP3   OH277793   6.752   6.421   1.947  0.1023  0.1116 -0.3262
18793TIP3    H177794   6.810   6.471   1.891 -1.2107  2.1476  0.0309
18793TIP3    H277795   6.668   6.466   1.942 -0.7717 -1.2034  1.1892
18794TIP3   OH277796   6.414   2.654   1.906  0.8295 -0.1317 -0.2138
18794TIP3    H177797   6.339   2.625   1.957 -0.1052  0.5263 -1.1632
18794TIP3    H277798   6.472   2.578   1.902  0.9132 -0.2063  1.7611
18795TIP3   OH277799   4.098   6.690   3.548 -0.5289  0.1988  0.0854
18795TIP3    H177800   4.172   6.751   3.551  0.5191 -0.8493 -2.0018
18795TIP3    H277801   4.122   6.620   3.608  0.0209  0.0625 -0.2826
18796TIP3   OH277802   3.301   4.256   0.348 -0.6897  0.0161  0.2856
18796TIP3    H177803   3.308   4.310   0.270 -0.8192  0.8684  0.8464
18796TIP3    H277804   3.273   4.170   0.316 -1.3575  0.5289 -0.5386
18797TIP3   OH277805   5.638   1.120  12.350  0.6337 -0.2619 -0.0615
18797TIP3    H177806   5.712   1.090  12.403  1.0981  1.0140  0.0445
18797TIP3    H277807   5.670   1.198  12.305 -0.1832 -0.5376 -1.1937
18798TIP3   OH277808   5.042   3.977   2.092 -0.4681  0.1437 -0.4331
18798TIP3    H177809   4.965   3.953   2.041 -0.6226 -2.0974  0.7495
18798TIP3    H277810   5.010   4.039   2.158 -1.3962 -1.1251  0.3424
18799TIP3   OH277811   4.475   4.143   1.498 -0.1006  0.1840 -0.9970
18799TIP3    H177812   4.516   4.187   1.572 -0.4539 -0.5822 -0.3280
18799TIP3    H277813   4.469   4.210   1.430  1.7652  0.4401 -0.9373
18800TIP3   OH277814   3.016   1.229  15.412 -0.2185  0.1987  0.3300
18800TIP3    H177815   2.951   1.212  15.480  1.8668  0.2053  2.5021
18800TIP3    H277816   3.064   1.306  15.444  1.7294 -0.6366 -0.4186
18801TIP3   OH277817   6.781   3.267   5.245  0.0589  0.4975 -1.2480
18801TIP3    H177818   6.835   3.189   5.233 -1.6091 -0.5303 -2.5804
18801TIP3    H277819   6.716   3.241   5.310 -1.3362  0.2529 -2.6767
18802TIP3   OH277820   4.527   3.015   4.480  0.5750  0.2002 -0.2284
18802TIP3    H177821   4.535   3.103   4.443  1.1592  0.3210  0.1821
18802TIP3    H277822   4.612   2.998   4.522 -0.1768  0.2222  1.3886
18803TIP3   OH277823   0.714   5.284  16.275 -0.3976 -0.1500 -0.1634
18803TIP3    H177824   0.781   5.348  16.299 -1.6928  1.6251 -0.9754
18803TIP3    H277825   0.741   5.203  16.317  3.4500 -0.1696 -2.1958
18804TIP3   OH277826   5.288   6.519   5.894  0.6513 -0.0944 -0.3562
18804TIP3    H177827   5.282   6.573   5.972  1.5262 -0.5358  0.0259
18804TIP3    H277828   5.374   6.477   5.899  0.2332 -1.0742 -0.9294
18805TIP3   OH277829   4.206   4.075  17.158  0.0466  0.8614  0.0253
18805TIP3    H177830   4.244   4.157  17.190  0.0073 -0.3968  3.8466
18805TIP3    H277831   4.124   4.066  17.206 -1.6880  0.0841 -2.8291
18806TIP3   OH277832   6.511   1.291  11.785 -0.0897  0.1639  0.4646
18806TIP3    H177833   6.508   1.379  11.748 -2.1035 -1.1787 -3.0140
18806TIP3    H277834   6.582   1.248  11.737 -1.5958 -1.1232 -0.7086
18807TIP3   OH277835   3.334   6.266   2.060  0.0829  0.1569  0.4631
18807TIP3    H177836   3.254   6.244   2.012  0.8983 -0.4811 -0.6363
18807TIP3    H277837   3.323   6.359   2.083 -1.6989 -0.3270  1.8221
18808TIP3   OH277838   1.954   6.672  16.961  0.8592  0.2158 -0.2539
18808TIP3    H177839   1.950   6.694  16.868  1.7509 -1.9641 -0.8679
18808TIP3    H277840   1.863   6.658  16.986  0.7217 -0.9562 -1.2944
18809TIP3   OH277841   5.964   3.049   0.160 -0.2546  0.7979  0.4115
18809TIP3    H177842   6.010   2.996   0.225 -0.6189  1.6082  1.3416
18809TIP3    H277843   6.020   3.045   0.082  0.4208  0.2093  0.9108
18810TIP3   OH277844   0.526   5.394  16.475  0.4876  0.5241 -0.3408
18810TIP3    H177845   0.443   5.378  16.430 -0.2005 -0.2912  1.1287
18810TIP3    H277846   0.592   5.351  16.421 -0.2922 -0.3218 -0.6472
18811TIP3   OH277847   6.611   2.753  14.034  0.5565 -0.3926 -0.4439
18811TIP3    H177848   6.679   2.685  14.033 -0.1565 -1.1112 -0.5824
18811TIP3    H277849   6.598   2.775  13.942 -0.1624 -1.0296 -0.4975
18812TIP3   OH277850   1.759   1.893  13.391 -0.4288 -0.1864 -0.0001
18812TIP3    H177851   1.685   1.941  13.426  0.4665  0.7551  0.6469
18812TIP3    H277852   1.796   1.846  13.466 -0.4696 -0.7847 -0.3484
18813TIP3   OH277853   0.126   0.178   0.830  0.1866 -0.1473  0.0356
18813TIP3    H177854   0.069   0.186   0.906 -0.2458 -0.3556 -0.2645
18813TIP3    H277855   0.124   0.264   0.789  1.3511  0.3308  0.8996
18814TIP3   OH277856   5.172   6.448  13.259 -0.2362 -0.7328  0.3348
18814TIP3    H177857   5.171   6.466  13.353 -1.3167  1.6780 -0.0587
18814TIP3    H277858   5.250   6.494  13.226 -2.0199  1.9682 -0.4336
18815TIP3   OH277859   6.315   0.689  13.371  0.0562  0.0705  0.1941
18815TIP3    H177860   6.271   0.613  13.408 -0.6383 -0.1508 -1.0209
18815TIP3    H277861   6.342   0.740  13.447  0.5219 -1.3639  1.0331
18816TIP3   OH277862   5.002   3.575   4.437 -0.2615 -0.2535 -0.1344
18816TIP3    H177863   5.022   3.505   4.375  0.2940 -0.2016 -0.0227
18816TIP3    H277864   4.990   3.653   4.383  0.2811 -0.1961 -0.1790
18817TIP3   OH277865   0.476   5.101  15.854 -0.5549  0.3725  0.2752
18817TIP3    H177866   0.519   5.181  15.824  0.0745  0.0519  0.3153
18817TIP3    H277867   0.532   5.030  15.823 -0.3834 -0.0025  1.3926
18818TIP3   OH277868   2.848   4.740  15.482 -0.0940 -1.1640  0.2834
18818TIP3    H177869   2.862   4.798  15.557 -2.3372  1.8569 -1.3993
18818TIP3    H277870   2.923   4.682  15.483  1.0490  0.0884  3.6252
18819TIP3   OH277871   1.402   2.743  13.075  0.0079  0.2482  0.2080
18819TIP3    H177872   1.328   2.691  13.045  1.2200 -1.0156 -0.7712
18819TIP3    H277873   1.385   2.831  13.043 -0.9745 -0.0663 -0.1606
18820TIP3   OH277874   4.522   3.466   1.923 -0.7399 -0.3412  0.6209
18820TIP3    H177875   4.588   3.487   1.856  0.6128 -0.4182  1.8654
18820TIP3    H277876   4.491   3.551   1.954  1.4923 -0.1106  2.5503
18821TIP3   OH277877   3.334   6.635  17.151  0.1883 -0.3268  0.3019
18821TIP3    H177878   3.356   6.542  17.161  0.3349 -0.1456  1.9023
18821TIP3    H277879   3.275   6.654  17.225  1.4487  1.2347  0.9598
18822TIP3   OH277880   0.633   1.984   3.424  0.3148 -0.5423 -0.2045
18822TIP3    H177881   0.587   1.899   3.423 -0.3961 -0.1731  0.3530
18822TIP3    H277882   0.607   2.024   3.507  0.7580  0.1678 -0.4069
18823TIP3   OH277883   2.106   2.811   4.307 -0.4370  0.0306  0.0860
18823TIP3    H177884   2.036   2.754   4.338 -0.1174 -0.9327 -0.9488
18823TIP3    H277885   2.145   2.846   4.388  0.8810 -3.0282  0.9004
18824TIP3   OH277886   6.543   6.029   0.303 -0.3900  0.2813 -0.2863
18824TIP3    H177887   6.449   6.035   0.318 -0.5949 -1.5935 -0.6775
18824TIP3    H277888   6.562   5.936   0.299  1.2655  0.6173 -1.6112
18825TIP3   OH277889   6.712   2.582  14.798  0.1263  0.0158  0.1574
18825TIP3    H177890   6.712   2.605  14.891  1.1097  0.2395  0.1058
18825TIP3    H277891   6.786   2.629  14.761 -1.5778  1.7618 -1.2305
18826TIP3   OH277892   4.953   4.288  11.890  0.2924 -0.5289 -0.1202
18826TIP3    H177893   4.891   4.241  11.835  1.1513 -0.6706 -0.9855
18826TIP3    H277894   5.005   4.220  11.932  1.4569 -0.3796 -1.2805
18827TIP3   OH277895   2.717   2.745  14.681  0.2844  0.3439 -0.0117
18827TIP3    H177896   2.697   2.676  14.744 -0.0807  1.3714  1.0331
18827TIP3    H277897   2.676   2.823  14.718  2.2775  1.5353 -0.2142
18828TIP3   OH277898   0.273   5.148  15.500 -0.0894  0.1086 -0.5537
18828TIP3    H177899   0.313   5.062  15.488  1.3799  0.7480 -0.5613
18828TIP3    H277900   0.195   5.147  15.445  0.2505 -1.0012 -1.0402
18829TIP3   OH277901   3.064   0.082   4.428  0.0475  0.0807  0.1142
18829TIP3    H177902   3.091  -0.009   4.418  1.3437  0.6204 -1.7122
18829TIP3    H277903   2.987   0.091   4.372 -0.0053  0.1545  0.1965
18830TIP3   OH277904   0.341   3.131   0.491 -0.5220  0.3593 -0.3031
18830TIP3    H177905   0.380   3.216   0.471 -1.7765  0.8610 -0.6702
18830TIP3    H277906   0.265   3.125   0.434 -0.7351 -0.7967  0.0794
18831TIP3   OH277907   2.351   1.909   1.119  0.3550 -0.1461 -0.0817
18831TIP3    H177908   2.294   1.969   1.166  1.2860  0.7990 -0.1288
18831TIP3    H277909   2.293   1.838   1.091 -0.5916  0.2799  0.7387
18832TIP3   OH277910   0.305   3.901   0.873 -0.3064 -0.4217 -0.4180
18832TIP3    H177911   0.352   3.828   0.832 -1.2746 -1.0381 -0.4508
18832TIP3    H277912   0.350   3.913   0.957  0.4662 -0.4100 -0.8176
18833TIP3   OH277913   1.597   3.865  10.880 -0.2644  0.0618 -0.1323
18833TIP3    H177914   1.532   3.912  10.828 -0.3331 -1.2941 -1.3406
18833TIP3    H277915   1.623   3.792  10.824  1.2536 -0.2237  0.9121
18834TIP3   OH277916   5.061   5.676   5.042 -0.1836 -0.1628 -0.0911
18834TIP3    H177917   5.021   5.756   5.076  1.2616  0.3955  0.3812
18834TIP3    H277918   5.017   5.661   4.959 -0.3926  1.2143 -0.2622
18835TIP3   OH277919   1.024   3.534  12.676  0.1499 -0.1153  0.4488
18835TIP3    H177920   1.002   3.572  12.761  1.9916 -1.3560  1.5316
18835TIP3    H277921   1.116   3.512  12.682  0.3382 -0.2760 -1.8932
18836TIP3   OH277922   0.629   5.482   3.284 -0.3042 -0.2138  0.3898
18836TIP3    H177923   0.625   5.396   3.327  1.6746 -0.2841  0.5011
18836TIP3    H277924   0.542   5.493   3.245 -1.0923 -1.5845  1.6479
18837TIP3   OH277925   4.470   6.088   3.478 -0.0497  0.0328  0.6594
18837TIP3    H177926   4.552   6.098   3.428 -0.3207 -1.2185 -0.0857
18837TIP3    H277927   4.426   6.172   3.468  0.8064  0.4779  0.4527
18838TIP3   OH277928   4.898   5.064   2.160 -0.1445 -0.0810  0.1733
18838TIP3    H177929   4.872   5.127   2.093 -0.0316  0.0922  0.2889
18838TIP3    H277930   4.971   5.016   2.121  0.6361  0.7500  0.5616
18839TIP3   OH277931   3.683   4.329  16.829 -0.4116 -0.4504 -0.0642
18839TIP3    H177932   3.769   4.309  16.865 -0.4539 -0.3669  0.0875
18839TIP3    H277933   3.621   4.294  16.893 -0.5026  1.8424  1.2394
18840TIP3   OH277934   3.068   2.612  11.781 -0.0793 -0.1196  0.2379
18840TIP3    H177935   3.035   2.566  11.858 -3.0928  1.5227  0.0654
18840TIP3    H277936   3.153   2.647  11.808  0.6182 -2.5638  1.5346
18841TIP3   OH277937   3.429   6.057   4.913  0.0572  0.4163 -0.3154
18841TIP3    H177938   3.365   6.012   4.968 -0.7263  0.1251 -1.4331
18841TIP3    H277939   3.416   6.021   4.826  0.4269  1.7545 -0.9538
18842TIP3   OH277940   4.173   0.934  16.354 -0.5459  0.6091 -0.6366
18842TIP3    H177941   4.099   0.993  16.344  1.0659  2.6280 -1.6448
18842TIP3    H277942   4.166   0.873  16.281 -1.9933 -0.2280  0.1609
18843TIP3   OH277943   2.486   3.792  13.091  0.0623  0.0813 -0.3607
18843TIP3    H177944   2.465   3.709  13.133 -0.8403  0.6428  0.3311
18843TIP3    H277945   2.413   3.850  13.113  0.3383  0.8649 -1.4000
18844TIP3   OH277946   0.523   1.940   3.064 -0.3443 -0.3646  0.0181
18844TIP3    H177947   0.472   2.001   3.117 -0.1921  2.5396 -2.8829
18844TIP3    H277948   0.614   1.955   3.092 -0.5505 -2.4274  2.1604
18845TIP3   OH277949   5.011   3.238   5.240  0.2389 -0.0440 -0.5627
18845TIP3    H177950   4.940   3.260   5.179 -0.3281  1.0802  0.4307
18845TIP3    H277951   5.052   3.160   5.203 -2.5472 -1.7412 -0.3765
18846TIP3   OH277952   3.809   1.381   1.067  0.0995 -0.6794  0.4849
18846TIP3    H177953   3.746   1.388   1.139 -0.2477 -0.3212  0.1492
18846TIP3    H277954   3.853   1.298   1.083 -0.9687 -1.3037  0.3336
18847TIP3   OH277955   6.011   3.138   3.544 -0.0685  0.1100 -0.1626
18847TIP3    H177956   6.094   3.165   3.583 -0.9025  1.1746  0.9403
18847TIP3    H277957   5.970   3.082   3.610 -1.2823  1.5362  0.3347
18848TIP3   OH277958   2.771   5.462   5.590 -0.3220  0.0140 -0.0483
18848TIP3    H177959   2.742   5.550   5.567 -0.1702  0.2357  0.5768
18848TIP3    H277960   2.694   5.407   5.580 -0.7951  0.4752  0.9322
18849TIP3   OH277961   1.264   2.413   0.781  0.0812  0.2944  0.5652
18849TIP3    H177962   1.345   2.464   0.784  1.7280 -2.1020  0.0175
18849TIP3    H277963   1.277   2.343   0.845 -2.3743  0.8471  1.7798
18850TIP3   OH277964   5.047   3.148   0.960 -0.3759  0.2126  0.4864
18850TIP3    H177965   5.121   3.149   1.021 -1.1037  0.2799  1.4006
18850TIP3    H277966   5.047   3.060   0.924  1.0469  0.6512 -0.6880
18851TIP3   OH277967   5.347   2.015   3.573 -0.0651  0.1412 -0.2403
18851TIP3    H177968   5.361   2.058   3.657 -0.5388  0.9396 -0.5615
18851TIP3    H277969   5.254   1.992   3.573  0.2993 -1.4501  0.1751
18852TIP3   OH277970   5.791   2.011   3.248 -0.7184 -0.5745 -0.2729
18852TIP3    H177971   5.814   1.934   3.299  0.7047 -0.1871 -0.2951
18852TIP3    H277972   5.777   1.978   3.159 -0.0906 -0.7970 -0.2886
18853TIP3   OH277973   5.656   4.438   3.506  0.3118 -0.6972 -0.1727
18853TIP3    H177974   5.712   4.456   3.431  0.8052 -2.0199 -0.1458
18853TIP3    H277975   5.671   4.346   3.526 -0.4016 -0.5718  1.0656
18854TIP3   OH277976   0.875   3.363  16.215  0.5662  0.9999  0.4045
18854TIP3    H177977   0.845   3.283  16.171  0.1375  1.5103 -0.2441
18854TIP3    H277978   0.922   3.331  16.292 -1.1383  0.1670  1.1393
18855TIP3   OH277979   0.789   5.681  13.718 -0.4073  0.0774 -0.5411
18855TIP3    H177980   0.835   5.621  13.777 -2.5633 -1.8444 -0.7274
18855TIP3    H277981   0.811   5.650  13.630  0.4904  1.1864 -0.7412
18856TIP3   OH277982   0.740   6.062   0.487 -0.5711  0.2783 -0.0572
18856TIP3    H177983   0.766   6.122   0.556  0.2772 -1.2093  0.9683
18856TIP3    H277984   0.821   6.047   0.436 -0.7889  0.0745 -0.3504
18857TIP3   OH277985   4.612   3.352   4.326  0.0572  0.4030  0.2800
18857TIP3    H177986   4.602   3.397   4.242 -0.0323  1.2235  0.7113
18857TIP3    H277987   4.548   3.395   4.383 -0.2198 -0.4698  0.6384
18858TIP3   OH277988   4.322   4.025   6.208 -0.2414 -0.4879  0.7222
18858TIP3    H177989   4.239   4.057   6.241  0.3484  1.2495  0.5886
18858TIP3    H277990   4.388   4.066   6.263  0.6471  0.5764 -1.0570
18859TIP3   OH277991   1.093   5.975   5.427 -0.2336 -0.2652 -0.4554
18859TIP3    H177992   1.087   6.047   5.490 -0.6000  1.3330 -2.2078
18859TIP3    H277993   1.186   5.970   5.404  0.1604 -1.8811  1.2663
18860TIP3   OH277994   2.312   4.141   3.287 -0.1093  0.1835 -0.0663
18860TIP3    H177995   2.248   4.209   3.267 -1.2876 -0.6095  0.8267
18860TIP3    H277996   2.271   4.060   3.256  1.5013 -0.1123 -1.6347
18861TIP3   OH277997   4.299   4.697   2.000 -0.3215  0.7614 -0.8196
18861TIP3    H177998   4.299   4.737   1.913  0.4360 -2.4914 -2.4818
18861TIP3    H277999   4.215   4.651   2.006 -1.0344  2.1642  0.8813
18862TIP3   OH278000   4.282   0.073  12.114  0.0237  0.3112 -0.0888
18862TIP3    H178001   4.195   0.091  12.150 -0.0631 -1.0279  0.3917
18862TIP3    H278002   4.326   0.158  12.117 -0.5244  0.5866  1.7092
18863TIP3   OH278003   3.759   5.061   0.573 -0.2903  0.1934  0.1636
18863TIP3    H178004   3.813   5.103   0.506  1.9757 -0.6653  1.3609
18863TIP3    H278005   3.784   4.969   0.570  0.9683  0.3510  3.1000
18864TIP3   OH278006   4.340   1.248   1.174 -0.5811  0.0821 -0.2384
18864TIP3    H178007   4.246   1.243   1.158 -0.4966 -0.0709 -0.7075
18864TIP3    H278008   4.378   1.189   1.109 -0.1344  0.4595 -0.3216
18865TIP3   OH278009   3.881   1.490  10.711 -0.6063  0.3700 -0.4857
18865TIP3    H178010   3.803   1.531  10.674  0.1241  1.8133 -0.5216
18865TIP3    H278011   3.948   1.502  10.644 -0.4048 -1.0962 -0.5689
18866TIP3   OH278012   1.765   4.804  12.508  0.1714  0.3822 -0.3011
18866TIP3    H178013   1.744   4.868  12.575  0.7306  1.8985 -1.5084
18866TIP3    H278014   1.834   4.750  12.546 -1.7728 -0.9703  1.5417
18867TIP3   OH278015   6.726   5.265   4.523 -0.2001 -0.3249 -0.0439
18867TIP3    H178016   6.775   5.194   4.562 -1.2465 -0.0066  1.9902
18867TIP3    H278017   6.641   5.264   4.568 -0.2852  2.1307  0.0239
18868TIP3   OH278018   6.378   1.837   5.957  0.3624  0.0947 -0.5079
18868TIP3    H178019   6.450   1.780   5.929  0.4385 -0.0491 -0.0242
18868TIP3    H278020   6.408   1.873   6.041 -0.9724 -1.5455  0.7332
18869TIP3   OH278021   4.288   2.287   4.206 -0.8830 -0.1909 -0.0900
18869TIP3    H178022   4.301   2.195   4.228 -0.3263 -0.3464 -1.0599
18869TIP3    H278023   4.194   2.294   4.186 -0.6893 -0.8223 -1.2612
18870TIP3   OH278024   3.351   0.092   0.797 -0.6696 -0.4755  0.5213
18870TIP3    H178025   3.309   0.144   0.866 -3.1414 -1.5019 -0.1031
18870TIP3    H278026   3.427   0.052   0.840 -0.4451  1.2254  1.8057
18871TIP3   OH278027   6.584   1.769  16.425 -0.3378 -0.0100  0.7188
18871TIP3    H178028   6.631   1.850  16.442 -1.1542  0.6096  0.1285
18871TIP3    H278029   6.498   1.782  16.466  0.4180 -1.7072  3.1371
18872TIP3   OH278030   5.805   2.896  16.869 -0.0672  0.2064  0.3302
18872TIP3    H178031   5.850   2.854  16.942 -0.3232  1.9975  1.5866
18872TIP3    H278032   5.876   2.925  16.811  0.1823 -0.4036  0.3234
18873TIP3   OH278033   6.233   3.017   5.538  0.6141 -0.0188  0.1361
18873TIP3    H178034   6.284   3.090   5.502  1.7206 -0.4046  0.8675
18873TIP3    H278035   6.152   3.017   5.487  1.9994 -0.4030 -2.2104
18874TIP3   OH278036   0.516   4.987   5.697  0.0962 -0.1284 -0.5704
18874TIP3    H178037   0.482   5.006   5.610  0.5057 -1.7991 -1.1307
18874TIP3    H278038   0.611   4.994   5.688  0.0992  0.7512  0.0257
18875TIP3   OH278039   4.166   4.567  15.715  0.1509  0.1153  0.0838
18875TIP3    H178040   4.117   4.548  15.795  0.8573  1.4541  0.8770
18875TIP3    H278041   4.217   4.488  15.698 -0.7187 -0.5283  0.4164
18876TIP3   OH278042   4.137   3.987   5.157  0.2409  0.5669 -0.0873
18876TIP3    H178043   4.135   3.892   5.170 -1.4993  0.4239 -1.1083
18876TIP3    H278044   4.113   4.023   5.242 -2.5562 -0.0732 -0.5157
18877TIP3   OH278045   2.975   0.981   5.338 -0.0377 -0.6387 -0.2137
18877TIP3    H178046   2.950   1.071   5.360 -0.8440 -0.3617 -2.0572
18877TIP3    H278047   3.048   0.991   5.277  0.4915 -1.2806  0.3023
18878TIP3   OH278048   3.741   4.772   5.369 -0.1332 -0.0613 -0.6618
18878TIP3    H178049   3.716   4.854   5.326 -0.0686  0.1393 -0.3229
18878TIP3    H278050   3.822   4.745   5.326  1.5476  1.6473  1.2365
18879TIP3   OH278051   3.557   1.449  10.539  0.0419  0.1042 -0.5348
18879TIP3    H178052   3.507   1.526  10.513 -0.1809 -0.3107 -1.3629
18879TIP3    H278053   3.631   1.445  10.479  0.9406  0.5531  0.5089
18880TIP3   OH278054   0.346   5.402   3.545  0.6758 -0.7285 -0.2185
18880TIP3    H178055   0.321   5.468   3.481  0.1235  0.7547  1.4538
18880TIP3    H278056   0.433   5.429   3.575  0.1662 -0.3217  0.9666
18881TIP3   OH278057   3.828   5.848  14.593 -0.0442 -0.1123  0.2505
18881TIP3    H178058   3.734   5.864  14.587  0.2938  1.4537 -1.8886
18881TIP3    H278059   3.840   5.760  14.557 -0.6853 -0.3586  0.6296
18882TIP3   OH278060   0.663   0.236   1.570  0.6122  0.1442  0.0167
18882TIP3    H178061   0.677   0.316   1.520  0.6764 -0.5159 -1.0620
18882TIP3    H278062   0.583   0.252   1.621 -0.3711  0.2729 -1.5127
18883TIP3   OH278063   3.547   0.152   0.150  0.6231  0.4343 -0.3235
18883TIP3    H178064   3.536   0.245   0.172  0.6086  0.2377  0.5584
18883TIP3    H278065   3.640   0.143   0.132  0.4625  0.8181 -1.4569
18884TIP3   OH278066   5.883   6.768   3.943  0.0450 -0.1915 -0.0721
18884TIP3    H178067   5.848   6.826   4.010 -0.1560  1.4181 -1.5107
18884TIP3    H278068   5.811   6.707   3.924  0.3064 -1.0693  1.5378
18885TIP3   OH278069   6.322   2.189  16.983 -0.3206  0.0025 -0.0432
18885TIP3    H178070   6.288   2.173  17.071  0.0377 -2.4548 -0.3002
18885TIP3    H278071   6.265   2.138  16.925 -0.5632  1.5810 -1.2855
18886TIP3   OH278072   2.648   5.600   0.100 -0.3843 -0.5896  0.1565
18886TIP3    H178073   2.705   5.670   0.068 -1.2112  0.6140  1.2094
18886TIP3    H278074   2.707   5.525   0.112  1.1500  0.7736  1.7965
18887TIP3   OH278075   5.725   5.793  12.388  0.4509  0.2824  0.5775
18887TIP3    H178076   5.670   5.831  12.320  0.7547 -0.0638  0.1289
18887TIP3    H278077   5.664   5.754  12.450  0.1578  0.9490  0.7156
18888TIP3   OH278078   3.508   4.740  13.623  0.0248  0.1712  0.9747
18888TIP3    H178079   3.569   4.803  13.585 -0.2586 -0.3413 -0.4008
18888TIP3    H278080   3.515   4.753  13.717 -0.6983  2.8876  0.7369
18889TIP3   OH278081   5.899   3.829   1.514 -0.1842  0.2850  0.0878
18889TIP3    H178082   5.810   3.796   1.526 -0.0608  0.2827  1.0665
18889TIP3    H278083   5.955   3.755   1.536  0.0664  0.3439 -0.3474
18890TIP3   OH278084   2.400   4.092   1.320 -0.6689  0.5772 -0.3425
18890TIP3    H178085   2.465   4.098   1.391 -0.5473  0.8141 -0.4714
18890TIP3    H278086   2.453   4.088   1.240 -0.8107  1.2270 -0.4792
18891TIP3   OH278087   5.170   6.264   5.458 -0.3801 -0.1759 -0.2838
18891TIP3    H178088   5.171   6.181   5.410  1.1116  0.4570 -1.4287
18891TIP3    H278089   5.085   6.265   5.502  0.2164 -3.0869  1.1827
18892TIP3   OH278090   6.558   3.170   4.066  0.1865  0.1632 -0.0208
18892TIP3    H178091   6.596   3.140   4.149  0.1884 -1.1514 -0.4701
18892TIP3    H278092   6.590   3.107   4.001 -0.7047  0.5243 -0.8317
18893TIP3   OH278093   4.659   2.873  12.270 -0.3621 -0.7944  0.6031
18893TIP3    H178094   4.619   2.941  12.325 -0.2506 -2.1811  2.4887
18893TIP3    H278095   4.742   2.911  12.241 -1.4545  0.8426 -0.5945
18894TIP3   OH278096   3.414   1.068  12.966 -0.5918  0.3256 -0.2374
18894TIP3    H178097   3.342   1.051  13.026 -0.6213 -1.6216 -0.7465
18894TIP3    H278098   3.459   0.984  12.959  1.1416  1.2583 -0.7036
18895TIP3   OH278099   6.478   0.597   1.083 -0.8230 -1.0673  0.6605
18895TIP3    H178100   6.423   0.675   1.079  0.9868  0.3550  1.6539
18895TIP3    H278101   6.464   0.562   1.171 -0.2008 -0.6960  0.9197
18896TIP3   OH278102   6.108   5.300  12.830  0.0252  0.0484  0.1726
18896TIP3    H178103   6.144   5.373  12.780 -0.1138 -0.7636 -1.1736
18896TIP3    H278104   6.028   5.276  12.783 -1.9958  1.3380  2.6535
18897TIP3   OH278105   1.261   0.613  14.801 -0.0078 -0.4985 -0.2584
18897TIP3    H178106   1.249   0.666  14.880  1.4411  1.5948 -1.3524
18897TIP3    H278107   1.353   0.589  14.803 -0.0259 -0.6570 -1.1867
18898TIP3   OH278108   2.254   3.783  14.880  0.3230 -0.0763 -0.1573
18898TIP3    H178109   2.327   3.784  14.942 -0.3270 -0.2092  0.6338
18898TIP3    H278110   2.177   3.771  14.935 -0.5357  2.3375 -0.7275
18899TIP3   OH278111   5.885   3.928   3.865 -0.0109  0.2101  0.3957
18899TIP3    H178112   5.920   3.934   3.776  0.5811  2.1496  0.7062
18899TIP3    H278113   5.830   3.850   3.864  0.9378 -0.4902 -1.3229
18900TIP3   OH278114   4.544   5.716  13.735  0.1736 -0.4605  0.3207
18900TIP3    H178115   4.616   5.764  13.694 -0.7551  1.1321  0.4992
18900TIP3    H278116   4.467   5.740  13.683 -0.6709 -0.0466  1.7318
18901TIP3   OH278117   0.819   1.520  16.967  0.0192  0.3572  0.1303
18901TIP3    H178118   0.827   1.564  16.882 -0.2404  1.8534  0.8682
18901TIP3    H278119   0.882   1.448  16.962 -1.8726 -1.2919 -2.3536
18902TIP3   OH278120   3.608   2.037   3.605 -0.4655 -0.2552  0.0363
18902TIP3    H178121   3.553   1.960   3.590  1.0285 -1.5180  0.7645
18902TIP3    H278122   3.611   2.046   3.700  1.4618 -0.9310  0.0877
18903TIP3   OH278123   2.503   2.842  12.712 -0.3021  0.4851 -0.4102
18903TIP3    H178124   2.470   2.794  12.637  0.4123 -1.1223  0.2613
18903TIP3    H278125   2.505   2.778  12.784  0.7569  1.4703  0.4945
18904TIP3   OH278126   1.827   0.637   3.965  0.2326 -0.7917  0.0807
18904TIP3    H178127   1.854   0.625   3.874 -0.2485 -1.7242  0.0470
18904TIP3    H278128   1.838   0.730   3.981 -1.0517 -0.3525 -1.3690
18905TIP3   OH278129   0.188   6.159  11.673 -0.8688 -0.3471 -0.1985
18905TIP3    H178130   0.156   6.191  11.757 -0.7968  1.9119 -0.9647
18905TIP3    H278131   0.111   6.160  11.616 -0.5608 -0.1233 -0.6192
18906TIP3   OH278132   1.994   5.210   2.238 -0.3716  0.0393  0.3512
18906TIP3    H178133   1.986   5.290   2.291 -2.0408  0.2752 -0.2126
18906TIP3    H278134   1.942   5.145   2.285 -1.7729  0.2166 -0.8682
18907TIP3   OH278135   1.299   6.592  16.551  0.5353 -0.0287  0.3313
18907TIP3    H178136   1.258   6.541  16.621  1.5378 -0.1804  0.8282
18907TIP3    H278137   1.231   6.653  16.522  0.0466 -0.1138  1.2830
18908TIP3   OH278138   2.427   3.387  13.797  0.5939 -0.1934  0.0563
18908TIP3    H178139   2.430   3.427  13.884 -1.4201  0.0537  0.0470
18908TIP3    H278140   2.453   3.296  13.811  3.5474  0.5710  0.3366
18909TIP3   OH278141   0.701   1.567  15.494 -0.4921  0.1639  0.5573
18909TIP3    H178142   0.741   1.645  15.456  0.6576 -1.0445 -0.8590
18909TIP3    H278143   0.630   1.545  15.434 -0.1580 -0.4382  0.3732
18910TIP3   OH278144   4.867   3.813   1.846 -0.6118  0.5397  0.5349
18910TIP3    H178145   4.831   3.794   1.759  0.9626  0.0662 -0.0462
18910TIP3    H278146   4.829   3.746   1.902  0.0339 -0.5458 -0.2584
18911TIP3   OH278147   3.887   5.931  16.832  0.0445 -0.2210 -0.0734
18911TIP3    H178148   3.842   5.965  16.755  0.8149 -0.2647 -0.5533
18911TIP3    H278149   3.851   5.981  16.905  0.1955  0.7073 -0.6094
18912TIP3   OH278150   0.706   4.905  13.492  0.4853  0.3525 -0.4524
18912TIP3    H178151   0.724   4.864  13.576 -1.0255 -0.4395 -0.4878
18912TIP3    H278152   0.787   4.953  13.471  0.6665  1.1112  1.7394
18913TIP3   OH278153   0.547   3.419  14.843  0.0016  0.1113  0.3701
18913TIP3    H178154   0.497   3.353  14.795  1.2906 -0.3190 -0.4610
18913TIP3    H278155   0.629   3.374  14.865  0.2176  0.9284  1.2649
18914TIP3   OH278156   2.433   6.169  16.358 -0.3435  0.1815  0.2257
18914TIP3    H178157   2.360   6.212  16.402  0.0164 -0.2117  1.2559
18914TIP3    H278158   2.475   6.239  16.308 -3.3226 -0.2045 -3.1726
18915TIP3   OH278159   3.094   2.373   0.757 -0.4585 -0.6999  0.0721
18915TIP3    H178160   3.094   2.399   0.665 -2.6394 -1.6249 -0.2626
18915TIP3    H278161   3.181   2.336   0.771  0.7161  1.4981 -0.9529
18916TIP3   OH278162   4.275   6.283  12.616 -0.0020  0.0379  0.2307
18916TIP3    H178163   4.213   6.226  12.662 -0.5403  0.1831 -0.3065
18916TIP3    H278164   4.302   6.233  12.539  1.5762 -0.5627  1.1354
18917TIP3   OH278165   0.551   1.880  12.826  0.0037 -0.1504 -0.3784
18917TIP3    H178166   0.591   1.965  12.804  0.2724 -0.3043 -0.4897
18917TIP3    H278167   0.539   1.837  12.741  1.3124 -0.8689 -0.2271
18918TIP3   OH278168   0.786   5.630   5.943 -0.0701  0.3780 -0.2926
18918TIP3    H178169   0.755   5.560   5.885 -0.1414  0.0758  0.1098
18918TIP3    H278170   0.714   5.694   5.943 -0.8072 -0.4183  0.8020
18919TIP3   OH278171   4.892   2.320  16.342  0.1891  0.0663  0.0263
18919TIP3    H178172   4.814   2.311  16.287 -0.1420  1.6707  0.1795
18919TIP3    H278173   4.963   2.283  16.290 -0.3634  0.2801 -0.8996
18920TIP3   OH278174   3.180   5.874   4.336  0.2650 -0.2631 -0.0383
18920TIP3    H178175   3.198   5.952   4.388  1.6787 -0.6356  0.0638
18920TIP3    H278176   3.252   5.814   4.355 -1.8901 -2.5626  1.6588
18921TIP3   OH278177   5.339   3.084  17.200 -0.3584  0.0845  0.1355
18921TIP3    H178178   5.265   3.145  17.190 -1.0746 -0.9535 -1.0854
18921TIP3    H278179   5.403   3.113  17.135  0.3328  0.9298  1.1368
18922TIP3   OH278180   5.686   0.357  15.824 -0.8550  0.4423 -0.2262
18922TIP3    H178181   5.716   0.269  15.847 -2.0822 -0.2382 -1.1475
18922TIP3    H278182   5.693   0.406  15.906 -0.0069 -0.4599  0.2675
18923TIP3   OH278183   2.993   1.413  14.381 -0.6239  0.3525  0.1434
18923TIP3    H178184   2.928   1.465  14.333 -0.5864 -0.0788 -0.3803
18923TIP3    H278185   2.991   1.450  14.470 -1.8147  0.1403  0.2251
18924TIP3   OH278186   3.452   3.775   0.584 -0.4836 -0.0758  0.6206
18924TIP3    H178187   3.394   3.820   0.646 -0.4297 -0.7429  1.1654
18924TIP3    H278188   3.539   3.809   0.603 -0.7632  1.7233 -0.8965
18925TIP3   OH278189   2.315   2.604   0.276  0.5649 -0.5123 -0.0756
18925TIP3    H178190   2.269   2.528   0.239  1.1870 -1.6082  1.2813
18925TIP3    H278191   2.407   2.580   0.273  0.6118 -1.1704  3.0537
18926TIP3   OH278192   0.684   5.927  13.068  0.5948 -0.8464  0.6264
18926TIP3    H178193   0.745   5.998  13.048  0.2691 -1.1378 -1.6109
18926TIP3    H278194   0.737   5.847  13.060  0.0422 -1.0827 -1.0773
18927TIP3   OH278195   4.069   4.021   5.423  0.4219 -0.1427 -0.2285
18927TIP3    H178196   4.029   3.952   5.477  1.4093  0.0986  0.8583
18927TIP3    H278197   4.146   4.047   5.472  1.9473 -0.5913 -2.2601
18928TIP3   OH278198   0.636   0.164  15.796  0.5191 -0.0972 -0.3770
18928TIP3    H178199   0.667   0.112  15.722  1.1608  0.7188 -0.6927
18928TIP3    H278200   0.579   0.230  15.757  0.4570  0.0198 -0.0892
18929TIP3   OH278201   5.097   2.364  14.751  0.4727  1.0809  0.2959
18929TIP3    H178202   5.003   2.368  14.735  0.3147  0.1300  0.8868
18929TIP3    H278203   5.129   2.453  14.733 -0.5205  1.3918  0.0290
18930TIP3   OH278204   0.900   2.226   6.063  0.2591  0.1294  0.5178
18930TIP3    H178205   0.963   2.293   6.036  1.1596 -0.8780  0.0415
18930TIP3    H278206   0.901   2.229   6.159  2.1500 -0.8227  0.5788
18931TIP3   OH278207   0.566   1.563   4.295  0.0651  0.1549  0.6377
18931TIP3    H178208   0.642   1.589   4.243 -0.1354 -0.7557 -0.1312
18931TIP3    H278209   0.493   1.610   4.257  0.0909  0.3072  0.7763
18932TIP3   OH278210   3.432   4.170  14.579 -0.0958  0.1232  0.1756
18932TIP3    H178211   3.392   4.193  14.495  1.4335 -0.6222 -0.8109
18932TIP3    H278212   3.402   4.238  14.639 -3.7340 -0.9921 -0.1417
18933TIP3   OH278213   1.147   3.329   2.675 -0.5432 -0.0463  0.0835
18933TIP3    H178214   1.125   3.266   2.744  0.0926 -0.3915 -0.0227
18933TIP3    H278215   1.150   3.413   2.720 -1.2227 -0.1082  0.2625
18934TIP3   OH278216   4.006   5.062  13.221  0.8694  0.4660  0.3132
18934TIP3    H178217   3.987   5.139  13.274 -1.2640  2.1505 -2.6003
18934TIP3    H278218   3.919   5.028  13.196  1.6029  0.9486 -3.5151
18935TIP3   OH278219   4.509   5.554   5.842 -0.5351 -0.0278  0.6482
18935TIP3    H178220   4.585   5.524   5.792 -0.2119  1.1608  0.3777
18935TIP3    H278221   4.546   5.606   5.913 -1.0381 -0.9355  1.6019
18936TIP3   OH278222   1.938   1.617  13.867 -1.0257  0.0558  0.0110
18936TIP3    H178223   1.904   1.528  13.853  1.2105 -1.2540  2.1281
18936TIP3    H278224   1.870   1.661  13.917 -1.1646 -1.3179  1.1036
18937TIP3   OH278225   6.213   4.561  17.182  0.5635  0.0912 -0.3137
18937TIP3    H178226   6.262   4.484  17.151 -0.6870 -1.0325  0.4409
18937TIP3    H278227   6.171   4.533  17.262 -1.0410  1.1497 -0.7400
18938TIP3   OH278228   5.970   6.553  15.022 -0.1256 -0.0753  0.2893
18938TIP3    H178229   5.957   6.616  14.951  0.0976 -0.1488  0.1814
18938TIP3    H278230   5.891   6.498  15.020 -0.6393  0.6216  0.8217
18939TIP3   OH278231   4.112   1.839   4.377  0.0836  0.2974 -0.7284
18939TIP3    H178232   4.040   1.867   4.433  0.5563  1.3635 -0.6347
18939TIP3    H278233   4.099   1.886   4.295  0.1758 -0.2009 -1.0373
18940TIP3   OH278234   4.805   1.857  17.216  0.2586 -0.4851 -0.7564
18940TIP3    H178235   4.786   1.783  17.274  0.8689  0.3789  0.5897
18940TIP3    H278236   4.894   1.884  17.239 -0.0440  0.8297 -1.0436
18941TIP3   OH278237   2.438   5.639  13.043  0.5312 -0.4420  0.4630
18941TIP3    H178238   2.384   5.717  13.032  0.0921 -0.6603  1.0347
18941TIP3    H278239   2.524   5.672  13.071  0.6070 -0.1145 -0.1422
18942TIP3   OH278240   2.162   0.978  14.988  0.4308  0.6276  1.0769
18942TIP3    H178241   2.128   0.904  15.039 -1.0478  1.1569  0.9026
18942TIP3    H278242   2.090   1.040  14.984  0.5748  0.7437 -1.3904
18943TIP3   OH278243   5.818   2.889   5.262 -0.4206 -0.1765 -0.0542
18943TIP3    H178244   5.855   2.811   5.220 -4.0065 -2.2038  0.0705
18943TIP3    H278245   5.787   2.943   5.189 -1.2033 -0.7087 -0.1266
18944TIP3   OH278246   4.108   0.642  15.563 -0.4727 -0.4896  0.2747
18944TIP3    H178247   4.058   0.574  15.519 -0.7112 -1.4836  1.9814
18944TIP3    H278248   4.199   0.624  15.540 -0.6403 -0.5536 -0.3583
18945TIP3   OH278249   1.851   5.373  14.899  0.2342  0.5772  0.0558
18945TIP3    H178250   1.940   5.341  14.912 -0.3177 -0.7332  0.8225
18945TIP3    H278251   1.818   5.322  14.825 -0.3629 -0.0320  0.7252
18946TIP3   OH278252   3.035   6.564   5.336  0.5227 -0.5359 -0.3541
18946TIP3    H178253   3.046   6.512   5.257 -1.4837 -0.8307 -0.4874
18946TIP3    H278254   3.101   6.530   5.396  2.9453  0.5368 -2.2470
18947TIP3   OH278255   6.186   1.001   2.114  0.3224  0.1713 -0.3794
18947TIP3    H178256   6.243   1.077   2.102  0.7936  0.0075  0.6779
18947TIP3    H278257   6.099   1.031   2.087  0.3745  1.2987  0.6103
18948TIP3   OH278258   3.917   5.896   4.858 -0.2343 -0.7215  0.0398
18948TIP3    H178259   3.985   5.940   4.910 -0.1778 -1.4837  0.6187
18948TIP3    H278260   3.962   5.823   4.816 -0.3183 -0.2101 -0.9668
18949TIP3   OH278261   0.698   1.365  12.655 -0.1702 -0.5866 -0.2528
18949TIP3    H178262   0.690   1.338  12.746 -2.5185 -2.0085 -0.8120
18949TIP3    H278263   0.777   1.420  12.654 -1.1115  1.1127  2.9854
18950TIP3   OH278264   3.703   1.751  12.399 -0.4149 -0.4984  0.2975
18950TIP3    H178265   3.733   1.778  12.313  2.4631  0.3846  1.4403
18950TIP3    H278266   3.646   1.822  12.428  0.8066  0.5864  0.1559
18951TIP3   OH278267   6.138   1.877   1.820 -0.0917 -0.3898 -0.0121
18951TIP3    H178268   6.186   1.795   1.814  0.4800 -0.2284  1.6308
18951TIP3    H278269   6.177   1.934   1.754  1.2283 -0.6476  0.5120
18952TIP3   OH278270   6.436   4.842   3.875  0.3588  0.1140  0.1365
18952TIP3    H178271   6.412   4.863   3.785 -1.2138 -0.5896  0.3669
18952TIP3    H278272   6.418   4.923   3.924 -2.5431 -0.6265  0.4537
18953TIP3   OH278273   4.936   6.486  13.151  0.5807  0.3214 -0.0739
18953TIP3    H178274   4.947   6.491  13.057  2.7481  4.0567  0.1571
18953TIP3    H278275   5.022   6.461  13.184  0.1176  0.0183  0.9487
18954TIP3   OH278276   3.469   0.318   4.454 -0.0539 -0.1610 -0.5150
18954TIP3    H178277   3.378   0.289   4.442 -0.3355 -0.1362  1.2880
18954TIP3    H278278   3.468   0.366   4.537  1.4999  0.3786 -0.7711
18955TIP3   OH278279   1.809   4.146   2.891  0.1944  0.2106 -0.3424
18955TIP3    H178280   1.816   4.084   2.818 -1.2915 -0.4176  0.0109
18955TIP3    H278281   1.786   4.229   2.849  0.1763  0.0481 -0.6601
18956TIP3   OH278282   1.324   0.666  15.304 -0.3979  0.2996 -0.3605
18956TIP3    H178283   1.269   0.600  15.263 -2.3226  0.0606  2.3115
18956TIP3    H278284   1.322   0.740  15.243 -2.5251 -0.2359 -1.0245
18957TIP3   OH278285   6.272   6.293   2.838 -0.2817 -0.4467  0.3700
18957TIP3    H178286   6.237   6.212   2.875  0.1698 -0.1398  1.5083
18957TIP3    H278287   6.254   6.286   2.744 -0.8465 -1.5572  0.5426
18958TIP3   OH278288   0.627   1.708   0.841  0.1354  0.4084 -1.2096
18958TIP3    H178289   0.671   1.779   0.794  3.6938 -1.0144 -0.3945
18958TIP3    H278290   0.629   1.634   0.781 -0.3011  0.0458 -0.7873
18959TIP3   OH278291   3.794   6.521   1.629 -0.1025 -0.0386 -0.2152
18959TIP3    H178292   3.832   6.567   1.554 -1.8686  0.2681 -0.9627
18959TIP3    H278293   3.700   6.526   1.615 -0.5823  1.1399  2.6720
18960TIP3   OH278294   4.049   6.182  17.149 -0.2808 -0.0228  0.0658
18960TIP3    H178295   4.092   6.103  17.116 -0.0791 -0.9271  2.3402
18960TIP3    H278296   3.956   6.161  17.147 -0.3864  0.4462 -1.1102
18961TIP3   OH278297   5.571   2.739  12.223 -0.7996 -0.2044 -0.4878
18961TIP3    H178298   5.662   2.761  12.203  0.0018 -2.2588  0.6543
18961TIP3    H278299   5.573   2.701  12.310 -2.5981 -1.2489 -0.8381
18962TIP3   OH278300   4.753   2.909   4.576 -0.2071  0.3085  0.0791
18962TIP3    H178301   4.694   2.839   4.603  0.5167 -0.2407  0.2293
18962TIP3    H278302   4.840   2.880   4.602  0.4097  0.1825 -1.9250
18963TIP3   OH278303   6.202   4.720   1.292 -0.1367 -0.5461 -0.1146
18963TIP3    H178304   6.255   4.749   1.366 -0.2779 -2.0864  0.6228
18963TIP3    H278305   6.192   4.799   1.238  1.6997  0.1230  0.4383
18964TIP3   OH278306   5.806   5.323   3.619 -0.0545  0.3932  0.0195
18964TIP3    H178307   5.770   5.278   3.695 -1.1518  0.3069 -0.5292
18964TIP3    H278308   5.764   5.409   3.619  1.0104  0.9336  0.2957
18965TIP3   OH278309   3.676   0.558   4.189 -0.2348  0.7012  0.0432
18965TIP3    H178310   3.656   0.627   4.253 -0.9254  0.0053  0.5933
18965TIP3    H278311   3.706   0.484   4.242 -0.6531  0.1700 -0.4516
18966TIP3   OH278312   6.665   6.497  16.146 -0.1820 -0.5832 -0.4898
18966TIP3    H178313   6.599   6.446  16.193  0.1068 -1.7123 -1.2840
18966TIP3    H278314   6.726   6.526  16.215 -1.3040  0.2260  0.2092
18967TIP3   OH278315   3.048   2.231   2.304 -0.3007 -0.2282 -1.2087
18967TIP3    H178316   3.044   2.305   2.364  1.4234 -3.1013  2.8844
18967TIP3    H278317   3.139   2.202   2.307 -1.1129 -3.1471 -1.6670
18968TIP3   OH278318   6.074   6.676  15.237  0.0085  0.3222  0.0596
18968TIP3    H178319   6.131   6.741  15.195  3.9869 -3.1593 -0.5712
18968TIP3    H278320   6.032   6.631  15.164  1.0246 -0.7993  0.1262
18969TIP3   OH278321   6.249   5.654   2.698 -0.1491  0.3107  0.0239
18969TIP3    H178322   6.209   5.672   2.613  2.6034  2.2366 -0.9829
18969TIP3    H278323   6.212   5.719   2.757 -0.5303  0.2862 -0.1840
18970TIP3   OH278324   0.382   2.963  13.022  0.0905 -0.4033 -0.2779
18970TIP3    H178325   0.396   3.023  12.949  0.9311 -1.3932 -0.9567
18970TIP3    H278326   0.350   2.882  12.981  0.8141 -1.0542  0.4067
18971TIP3   OH278327   2.699   5.902   3.300 -0.7641  0.0590  0.7493
18971TIP3    H178328   2.770   5.943   3.350 -1.4141  1.1461  0.8163
18971TIP3    H278329   2.678   5.967   3.233 -0.6217 -0.9354 -0.2865
18972TIP3   OH278330   1.529   0.977   1.105 -0.1073  0.4656  0.2271
18972TIP3    H178331   1.535   1.006   1.196 -3.4796 -1.5379  1.2651
18972TIP3    H278332   1.549   0.884   1.108  0.5865  0.5389 -1.2792
18973TIP3   OH278333   5.805   0.455  10.922  0.1708 -0.2953  0.8393
18973TIP3    H178334   5.777   0.520  10.858  0.0532 -0.5771  0.6019
18973TIP3    H278335   5.815   0.504  11.004  2.6156  0.5893  0.1156
18974TIP3   OH278336   0.974   1.171  14.859 -0.6343  0.7875 -0.1548
18974TIP3    H178337   1.002   1.169  14.951 -0.5235  1.7446 -0.1526
18974TIP3    H278338   0.881   1.193  14.864 -0.3882  1.9337 -0.2894
18975TIP3   OH278339   2.788   5.685  16.978 -0.3848  0.4537 -0.8682
18975TIP3    H178340   2.769   5.739  16.901 -2.1050  0.3651 -0.5317
18975TIP3    H278341   2.723   5.712  17.043 -0.9516 -1.6477 -0.4986
18976TIP3   OH278342   6.486   4.197   4.892  0.1882  0.2982 -0.3807
18976TIP3    H178343   6.512   4.110   4.923  1.2331  0.1132 -1.6847
18976TIP3    H278344   6.569   4.245   4.884 -0.3750  1.4215  0.2962
18977TIP3   OH278345   6.052   4.195  11.391  0.5148  0.7180 -0.4617
18977TIP3    H178346   5.963   4.209  11.358 -0.8618 -0.2814  2.4863
18977TIP3    H278347   6.100   4.275  11.367 -1.3864  1.6150 -1.4642
18978TIP3   OH278348   0.652   1.325  12.934  0.2675 -0.7297  0.1077
18978TIP3    H178349   0.577   1.369  12.975  0.5838 -0.4341  0.3748
18978TIP3    H278350   0.636   1.232  12.948 -0.4189 -0.7094 -0.4756
18979TIP3   OH278351   2.724   4.377  16.913  0.1956  0.3897 -0.3414
18979TIP3    H178352   2.697   4.468  16.928 -1.3624  0.0750 -1.0972
18979TIP3    H278353   2.689   4.329  16.988  0.2993  0.2741 -0.3667
18980TIP3   OH278354   1.772   4.040  12.404 -0.2142 -0.1391  0.4958
18980TIP3    H178355   1.699   3.978  12.393  0.0809 -0.5296  0.6888
18980TIP3    H278356   1.730   4.123  12.425 -0.6728 -0.0191 -0.7858
18981TIP3   OH278357   3.588   0.312   4.839 -0.4713 -0.0908  0.2343
18981TIP3    H178358   3.517   0.371   4.863  0.9783  1.4447  0.9466
18981TIP3    H278359   3.598   0.255   4.915 -0.5032  0.1372  0.4110
18982TIP3   OH278360   3.894   2.956  12.380 -0.2616  0.0361 -0.6641
18982TIP3    H178361   3.906   3.046  12.412 -2.8736  0.1876  0.1097
18982TIP3    H278362   3.828   2.964  12.311  0.4742 -1.1520 -1.5381
18983TIP3   OH278363   6.275   0.967   5.219  0.4543  0.2751  0.4473
18983TIP3    H178364   6.239   1.026   5.284  0.0516  1.5296 -0.8479
18983TIP3    H278365   6.338   0.913   5.267  0.5792  1.5263  1.7525
18984TIP3   OH278366   5.930   5.543  11.472  0.1424  0.4625  0.3919
18984TIP3    H178367   5.855   5.483  11.477  1.7837 -1.7278  0.4978
18984TIP3    H278368   5.940   5.577  11.561 -0.4543  0.4043  0.4841
18985TIP3   OH278369   3.736   0.853  16.105  0.1555 -0.1511 -0.0213
18985TIP3    H178370   3.733   0.817  16.193  1.3929 -1.8852 -0.6263
18985TIP3    H278371   3.645   0.853  16.075 -0.3426  0.9481  1.4031
18986TIP3   OH278372   1.253   3.380  12.975  0.5801 -0.5749  0.1704
18986TIP3    H178373   1.297   3.348  13.053  1.3823  1.2941  0.5393
18986TIP3    H278374   1.324   3.413  12.920 -0.2645  2.6888  0.8549
18987TIP3   OH278375   0.043   0.559   2.189 -0.2374 -0.6146 -0.7239
18987TIP3    H178376   0.121   0.581   2.240 -1.3886  0.8603  0.4901
18987TIP3    H278377   0.000   0.489   2.239 -1.4699  0.9650  0.5675
18988TIP3   OH278378   1.597   4.833  11.716  0.2856  0.3348 -0.5200
18988TIP3    H178379   1.592   4.910  11.773 -1.5926  0.4146 -0.7463
18988TIP3    H278380   1.623   4.762  11.775 -1.4776  0.4508  0.4520
18989TIP3   OH278381   4.906   5.484   5.916 -0.2396  0.6515  0.1196
18989TIP3    H178382   4.877   5.558   5.862 -0.6553  0.6603  0.3492
18989TIP3    H278383   4.998   5.473   5.894 -0.7855 -0.4166 -1.8618
18990TIP3   OH278384   3.609   1.488  15.519  0.1600  0.9887 -0.0755
18990TIP3    H178385   3.689   1.438  15.504  0.3435  1.4529 -0.7135
18990TIP3    H278386   3.570   1.497  15.432 -1.1850 -0.1961  0.3802
18991TIP3   OH278387   6.777   1.235  11.970 -0.2299 -0.0954  0.2158
18991TIP3    H178388   6.759   1.249  12.063 -0.3108  0.5778  0.1000
18991TIP3    H278389   6.721   1.160  11.946 -2.0901  1.2532  0.1277
18992TIP3   OH278390   2.831   6.018   2.533 -0.4091  0.7904 -0.1611
18992TIP3    H178391   2.905   5.958   2.539 -1.0018  0.1441  1.9891
18992TIP3    H278392   2.770   5.976   2.473 -0.5426 -0.5254  0.8390
18993TIP3   OH278393   6.069   6.459  16.520  0.1880 -0.6043  0.3584
18993TIP3    H178394   6.157   6.444  16.485 -0.1001  1.8645 -1.6865
18993TIP3    H278395   6.083   6.519  16.593  0.1135  2.9624 -2.2852
18994TIP3   OH278396   0.363   5.719   1.080 -0.1939 -0.7033 -0.4213
18994TIP3    H178397   0.284   5.682   1.119 -0.2945 -0.7824 -0.6934
18994TIP3    H278398   0.367   5.679   0.993 -0.5230  0.2363 -0.8832
18995TIP3   OH278399   1.372   1.385  15.018  0.0533  0.0069  0.1173
18995TIP3    H178400   1.458   1.342  15.018 -0.0007 -0.1543 -1.5136
18995TIP3    H278401   1.310   1.315  15.000 -0.1774  0.5196 -1.1391
18996TIP3   OH278402   2.638   5.938  16.317  0.0948 -0.7706  0.8680
18996TIP3    H178403   2.688   5.977  16.388  1.0599 -1.5513  0.6387
18996TIP3    H278404   2.550   5.974  16.327  0.6493  0.5024  1.3807
18997TIP3   OH278405   5.784   3.817  15.222  0.8720 -0.3566  0.1971
18997TIP3    H178406   5.757   3.786  15.136 -1.5971 -1.9703  1.4354
18997TIP3    H278407   5.747   3.906  15.228  0.0729 -0.6654 -0.0171
18998TIP3   OH278408   3.508   2.547   3.592 -0.3097 -0.3043 -0.2393
18998TIP3    H178409   3.567   2.556   3.518  0.7476  2.0370  0.8151
18998TIP3    H278410   3.522   2.457   3.623  0.8858 -0.5697 -1.4680
18999TIP3   OH278411   6.497   2.729  14.421 -0.9171  0.3127 -0.0319
18999TIP3    H178412   6.487   2.771  14.335  1.1226  0.7882 -0.0907
18999TIP3    H278413   6.521   2.801  14.480  0.3226 -0.4013  0.3627
19000TIP3   OH278414   5.750   0.786  15.058 -0.2582  0.3445  0.3006
19000TIP3    H178415   5.792   0.752  15.137 -2.1293 -0.1943  1.1052
19000TIP3    H278416   5.690   0.717  15.030  0.4137  0.4842 -1.6785
19001TIP3   OH278417   0.876   2.720  15.303 -0.0644  0.2203 -0.4164
19001TIP3    H178418   0.854   2.634  15.339 -2.1847 -0.4945 -3.1133
19001TIP3    H278419   0.878   2.778  15.380 -1.0029 -1.7815  1.2196
19002TIP3   OH278420   2.682   0.087  12.779 -0.5949  0.2245 -0.0922
19002TIP3    H178421   2.713  -0.003  12.776 -1.7025 -0.1980  0.6109
19002TIP3    H278422   2.739   0.131  12.842  0.2974  0.1761 -0.8435
19003TIP3   OH278423   6.626   6.237  12.516  0.2552  0.0207  0.2914
19003TIP3    H178424   6.713   6.199  12.506  0.2112  0.1612 -0.7386
19003TIP3    H278425   6.640   6.316  12.569  0.5021 -0.8162  1.5121
19004TIP3   OH278426   4.117   6.088  11.109 -0.3699  0.0178 -0.0933
19004TIP3    H178427   4.081   6.177  11.114 -1.8313 -0.4604 -1.1443
19004TIP3    H278428   4.208   6.100  11.083  0.4118  1.2966  2.8678
19005TIP3   OH278429   4.878   0.141  17.134  0.1699  0.0522 -0.1981
19005TIP3    H178430   4.929   0.212  17.173  1.9783 -1.7165  0.8585
19005TIP3    H278431   4.810   0.122  17.199  1.6081 -1.1818  1.0270
19006TIP3   OH278432   5.929   4.337  11.159  0.4701  0.3048 -0.1446
19006TIP3    H178433   5.933   4.341  11.064  2.8446  0.8008 -0.0797
19006TIP3    H278434   6.010   4.379  11.189 -0.2520  0.2564  2.1014
19007TIP3   OH278435   4.254   4.862  16.534 -0.3565 -0.2197 -0.5227
19007TIP3    H178436   4.266   4.936  16.592  1.7537  0.1425 -1.2989
19007TIP3    H278437   4.314   4.879  16.461 -2.6067 -0.8176 -2.6504
19008TIP3   OH278438   0.265   2.905  14.000 -0.2968 -0.2709  0.1200
19008TIP3    H178439   0.239   2.829  14.053 -0.8183 -0.5501 -0.5329
19008TIP3    H278440   0.215   2.897  13.919  1.2363 -0.3975 -0.8598
19009TIP3   OH278441   2.559   0.033   3.063 -0.6359  0.1569  0.1457
19009TIP3    H178442   2.606   0.010   3.143 -0.1098  0.1143 -0.1779
19009TIP3    H278443   2.470   0.001   3.078 -0.7326  0.7967  1.0081
19010TIP3   OH278444   3.603   5.860  15.166 -0.4796 -0.2126 -0.5176
19010TIP3    H178445   3.547   5.881  15.091 -0.4388  0.2795 -0.4125
19010TIP3    H278446   3.684   5.908  15.150 -0.2583 -0.5562 -0.4398
19011TIP3   OH278447   1.069   4.356   2.484 -0.0249 -0.3768 -0.1580
19011TIP3    H178448   1.159   4.340   2.456  0.2580 -0.8137  0.9143
19011TIP3    H278449   1.066   4.321   2.573 -0.9843  0.5263  0.1847
19012TIP3   OH278450   6.530   4.532   5.201 -0.5065 -0.8432  0.1371
19012TIP3    H178451   6.602   4.590   5.228 -1.1732  1.2069 -2.1661
19012TIP3    H278452   6.478   4.521   5.280 -0.8051  2.4985  0.5667
19013TIP3   OH278453   0.494   2.825   1.508  0.1309 -0.0580  0.5963
19013TIP3    H178454   0.401   2.806   1.505 -0.3667  2.2182 -1.1088
19013TIP3    H278455   0.506   2.876   1.588 -0.2537  0.2866  0.4380
19014TIP3   OH278456   2.568   0.142  11.586 -0.2263 -0.5880 -0.1010
19014TIP3    H178457   2.627   0.195  11.642 -2.0984  3.0319 -1.2235
19014TIP3    H278458   2.615   0.133  11.504 -0.7812  1.6135 -0.7278
19015TIP3   OH278459   5.550   3.865   0.963  0.2371 -0.4477 -0.2742
19015TIP3    H178460   5.531   3.772   0.973 -0.1520 -0.2738  0.6322
19015TIP3    H278461   5.504   3.908   1.035  1.7790  0.2654  0.3524
19016TIP3   OH278462   4.090   2.667  11.235 -0.9868  0.2963  0.1305
19016TIP3    H178463   4.054   2.677  11.324 -0.1509 -0.0292  0.5107
19016TIP3    H278464   4.185   2.670  11.247 -0.7762 -1.9887 -0.4491
19017TIP3   OH278465   1.737   5.497  15.905 -0.1266  0.0174  0.2136
19017TIP3    H178466   1.805   5.433  15.882 -0.2635  0.3002 -1.0449
19017TIP3    H278467   1.750   5.569  15.843 -2.2794 -0.4272 -0.8460
19018TIP3   OH278468   5.656   4.469  15.205 -0.1455  0.2263 -0.0563
19018TIP3    H178469   5.715   4.541  15.182 -0.5417  1.2583  1.9565
19018TIP3    H278470   5.705   4.390  15.181 -0.5926  1.0468 -4.4872
19019TIP3   OH278471   2.778   4.059   5.782 -0.1890  0.0348  0.1727
19019TIP3    H178472   2.742   4.002   5.850 -3.1257  0.1861 -1.1019
19019TIP3    H278473   2.776   4.146   5.822 -0.3098 -0.1044  0.4750
19020TIP3   OH278474   1.587   0.019   2.027 -0.3743  0.5577  0.3750
19020TIP3    H178475   1.581   0.065   2.110 -2.4404  0.0404  0.5572
19020TIP3    H278476   1.558   0.083   1.962 -1.9279 -0.0189  0.4688
19021TIP3   OH278477   4.644   3.936   0.455  0.0868 -0.0221  0.0190
19021TIP3    H178478   4.573   3.943   0.518 -0.1170 -1.0990 -0.0586
19021TIP3    H278479   4.694   3.860   0.484  0.7944  0.3096 -0.3263
19022TIP3   OH278480   1.558   1.643   2.186 -0.3801  0.8434 -0.2736
19022TIP3    H178481   1.505   1.591   2.246  0.8535  1.9497  1.8934
19022TIP3    H278482   1.500   1.715   2.158 -0.6714  0.8812  0.4115
19023TIP3   OH278483   0.216   5.695   2.775 -0.2021 -0.2329  0.1517
19023TIP3    H178484   0.181   5.755   2.709  1.4569  0.5939 -0.0035
19023TIP3    H278485   0.139   5.671   2.828 -1.0115  1.4926 -0.1858
19024TIP3   OH278486   4.467   6.407  14.686  0.1746  0.6520  1.0511
19024TIP3    H178487   4.388   6.461  14.679 -1.5957 -1.8810  0.3328
19024TIP3    H278488   4.436   6.317  14.681  3.2139 -0.4658 -0.4097
19025TIP3   OH278489   4.774   0.013   3.726 -0.6379  0.2377  0.8768
19025TIP3    H178490   4.862  -0.017   3.749 -0.2963 -0.2415 -0.8386
19025TIP3    H278491   4.789   0.082   3.661 -1.4578 -2.3239 -2.2880
19026TIP3   OH278492   3.077   6.340   2.336  0.0690 -0.5813 -0.6049
19026TIP3    H178493   3.067   6.255   2.292 -0.6381 -1.2759  0.8293
19026TIP3    H278494   2.997   6.388   2.314  0.7449 -0.0297 -1.9196
19027TIP3   OH278495   3.291   6.190   5.547  0.0468 -0.0072  0.6653
19027TIP3    H178496   3.301   6.133   5.470 -0.2497 -0.0409  0.6513
19027TIP3    H278497   3.319   6.136   5.621 -2.3603 -0.9604  0.9505
19028TIP3   OH278498   4.568   6.230   1.289 -0.0821  0.7148 -0.4377
19028TIP3    H178499   4.609   6.291   1.227  0.9938  1.1061  0.6193
19028TIP3    H278500   4.560   6.148   1.240 -1.5592  1.6716 -1.8830
19029TIP3   OH278501   2.732   2.783   3.686 -0.1122 -0.0321 -0.1527
19029TIP3    H178502   2.766   2.772   3.775  0.5665  0.0783 -0.3937
19029TIP3    H278503   2.650   2.832   3.698  1.8943  3.5616  0.1777
19030TIP3   OH278504   5.259   1.849  12.040  0.3548 -0.3134 -0.7831
19030TIP3    H178505   5.172   1.870  12.074  0.6581 -0.5525  0.1712
19030TIP3    H278506   5.243   1.787  11.969 -0.3338  0.6254 -1.4661
19031TIP3   OH278507   5.324   3.947  12.308 -0.1285 -0.1108  0.3040
19031TIP3    H178508   5.416   3.935  12.286  0.1144  0.8834  0.7523
19031TIP3    H278509   5.287   3.991  12.232 -0.2484 -0.5053  0.1263
19032TIP3   OH278510   0.630   6.668  14.447 -0.7069 -0.1640  0.2557
19032TIP3    H178511   0.714   6.705  14.423 -1.1083  1.1141  0.7566
19032TIP3    H278512   0.583   6.659  14.364 -0.4442  0.0447  0.0818
19033TIP3   OH278513   3.226   2.553  16.165  0.3100 -0.2097 -0.1395
19033TIP3    H178514   3.165   2.626  16.153 -1.1326 -1.4194 -0.4963
19033TIP3    H278515   3.170   2.478  16.186  1.8175 -1.0456  1.1097
19034TIP3   OH278516   0.731   1.970   0.804  0.5478  0.2367 -0.0948
19034TIP3    H178517   0.697   2.008   0.723 -1.5440 -1.2618  0.0118
19034TIP3    H278518   0.661   1.983   0.867  0.0124 -2.9960  0.1441
19035TIP3   OH278519   5.921   6.032   1.831 -0.0654 -0.0830  0.0987
19035TIP3    H178520   5.841   6.085   1.828 -0.4176 -0.5598  0.9379
19035TIP3    H278521   5.989   6.094   1.857  0.1360  0.6398 -1.9457
19036TIP3   OH278522   1.007   5.935  11.907 -0.1319 -0.9892  0.2893
19036TIP3    H178523   0.926   5.933  11.857  0.2429 -2.7497 -0.3220
19036TIP3    H278524   0.995   6.005  11.971 -0.8789  0.8834 -1.8120
19037TIP3   OH278525   4.227   6.181   0.593 -0.3406  0.0134 -0.6503
19037TIP3    H178526   4.184   6.253   0.547 -2.4193 -0.0749  0.9626
19037TIP3    H278527   4.179   6.103   0.564 -0.4574 -0.2546  0.2414
19038TIP3   OH278528   0.984   2.815   4.513 -0.4059  0.2614  0.2678
19038TIP3    H178529   0.950   2.726   4.516 -0.1054  0.1368  0.0302
19038TIP3    H278530   0.907   2.871   4.525 -0.7124 -0.0113 -0.3963
19039TIP3   OH278531   3.556   4.692   1.516 -0.1268  0.6713  0.4249
19039TIP3    H178532   3.633   4.711   1.570  0.8348  0.3086 -0.7875
19039TIP3    H278533   3.578   4.611   1.470 -0.9268  0.9615 -0.5037
19040TIP3   OH278534   2.373   1.007  12.342 -0.1611 -0.8511  0.4108
19040TIP3    H178535   2.447   1.057  12.308  0.1844 -0.4718  1.6526
19040TIP3    H278536   2.297   1.039  12.293  0.0337  0.9983  1.2173
19041TIP3   OH278537   0.840   3.182   2.069  0.1448  0.0523 -0.7692
19041TIP3    H178538   0.870   3.197   1.979 -0.3431  0.0701 -0.9310
19041TIP3    H278539   0.920   3.186   2.122  0.3208  0.9855 -1.0833
19042TIP3   OH278540   0.506   4.433  16.421 -0.2658 -0.4887  0.3514
19042TIP3    H178541   0.427   4.438  16.474 -0.2669  0.3514  0.2904
19042TIP3    H278542   0.577   4.425  16.485 -0.1192  2.0939  0.6443
19043TIP3   OH278543   5.099   6.098  14.643  0.1248 -0.3987  0.3662
19043TIP3    H178544   5.054   6.166  14.594 -1.1499 -1.8561 -0.5828
19043TIP3    H278545   5.097   6.128  14.734 -1.2985  0.3764  0.1111
19044TIP3   OH278546   5.223   1.593   6.008  0.3138 -0.5018  0.2036
19044TIP3    H178547   5.130   1.602   5.987  0.0374  1.1840  1.8614
19044TIP3    H278548   5.228   1.516   6.065  0.0106 -0.8215 -0.1934
19045TIP3   OH278549   0.960   4.677   1.831  0.0412 -0.6258  0.5702
19045TIP3    H178550   0.986   4.766   1.806 -1.9660  0.1800  1.1654
19045TIP3    H278551   1.040   4.625   1.821  1.1851  1.1692 -0.1022
19046TIP3   OH278552   3.653   4.687   2.705 -0.0739 -0.2809  0.1386
19046TIP3    H178553   3.708   4.650   2.636  2.4134 -1.2134  2.4643
19046TIP3    H278554   3.706   4.756   2.744 -1.6746  0.6566  0.7505
19047TIP3   OH278555   5.482   1.269   5.229  0.2132 -0.0635 -0.0982
19047TIP3    H178556   5.571   1.239   5.209  0.7729  0.5022  1.4071
19047TIP3    H278557   5.441   1.194   5.273 -0.2534 -0.5070 -1.2499
19048TIP3   OH278558   5.265   1.671   0.326 -0.1699 -0.2696 -0.0595
19048TIP3    H178559   5.350   1.628   0.338 -0.0348 -0.6287 -1.9228
19048TIP3    H278560   5.235   1.641   0.240 -2.1169 -0.0049  0.4696
19049TIP3   OH278561   0.485   3.900   1.095  0.2486  0.2504  0.6407
19049TIP3    H178562   0.463   3.816   1.136  2.5298 -1.1187 -0.6797
19049TIP3    H278563   0.476   3.964   1.166  0.7493 -1.4828  2.3910
19050TIP3   OH278564   6.215   2.308   6.836 -0.1844  0.4421  0.7883
19050TIP3    H178565   6.196   2.402   6.841  0.2572  0.5045  1.4720
19050TIP3    H278566   6.308   2.304   6.816  0.0640  0.1628  1.9259
19051TIP3   OH278567   2.289   0.953  16.350  0.1997 -0.3235  0.1693
19051TIP3    H178568   2.360   0.991  16.402 -1.0370  0.1547  1.5746
19051TIP3    H278569   2.273   0.867  16.389 -0.9263  0.1544  0.7959
19052TIP3   OH278570   4.760   0.843  16.143 -0.1834  0.5820  0.7865
19052TIP3    H178571   4.841   0.803  16.176 -1.5088 -2.5258  0.6581
19052TIP3    H278572   4.756   0.928  16.186  2.9645  0.7359  1.0177
19053TIP3   OH278573   0.859   5.198  17.123 -0.3485  0.7779  0.3070
19053TIP3    H178574   0.813   5.249  17.190 -0.3767  0.4001  0.5832
19053TIP3    H278575   0.819   5.111  17.128  0.5801  0.3598  0.7499
19054TIP3   OH278576   1.950   5.029   0.945 -0.5451  0.7654 -0.4785
19054TIP3    H178577   1.925   4.966   1.013 -0.6141  0.5115 -0.7385
19054TIP3    H278578   2.016   5.084   0.987  0.9996 -0.7410 -0.8650
19055TIP3   OH278579   1.860   3.011  12.481  0.4360  0.0848  0.4073
19055TIP3    H178580   1.778   3.045  12.446 -0.8492 -0.9512  2.2594
19055TIP3    H278581   1.905   2.974  12.405 -0.9748  0.3178 -0.5839
19056TIP3   OH278582   6.171   0.206  14.212  0.3101 -0.0297  0.4167
19056TIP3    H178583   6.100   0.142  14.207  0.3429 -0.1109  0.9880
19056TIP3    H278584   6.239   0.171  14.155 -0.9029  1.0830 -1.8540
19057TIP3   OH278585   2.002   2.802   2.433 -0.0073  0.1854 -0.1582
19057TIP3    H178586   2.005   2.708   2.452 -1.2330  0.3067  0.7475
19057TIP3    H278587   2.093   2.826   2.416  0.1446 -1.5279 -2.3402
19058TIP3   OH278588   2.249   4.396   0.557 -0.1704 -0.1570 -0.3814
19058TIP3    H178589   2.224   4.445   0.478 -0.0228  0.1504 -0.2383
19058TIP3    H278590   2.207   4.443   0.629  2.3279  1.5872  0.1094
19059TIP3   OH278591   1.740   5.999   4.387 -0.5881 -0.1153 -0.1413
19059TIP3    H178592   1.769   6.088   4.407 -2.0528  0.3489  0.0475
19059TIP3    H278593   1.661   6.011   4.335  0.1669 -1.3179 -1.6693
19060TIP3   OH278594   0.798   2.739   3.219 -0.5166  0.3598  0.2780
19060TIP3    H178595   0.754   2.669   3.172 -0.9268 -0.0787  1.2938
19060TIP3    H278596   0.745   2.754   3.297 -0.1670  1.4643  0.3305
19061TIP3   OH278597   2.810   6.286   1.145  0.2458 -0.0478 -0.2377
19061TIP3    H178598   2.885   6.258   1.197 -1.8650  0.0565  3.1517
19061TIP3    H278599   2.803   6.380   1.161 -1.3536 -0.2866  0.6426
19062TIP3   OH278600   5.346   5.313   3.457  0.6075 -0.9875 -0.6651
19062TIP3    H178601   5.320   5.399   3.490 -1.8323 -2.5173  1.8198
19062TIP3    H278602   5.266   5.276   3.422  1.9640 -1.7121 -3.2099
19063TIP3   OH278603   5.523   0.084  10.787  0.1845 -0.1225 -0.1597
19063TIP3    H178604   5.466   0.110  10.859 -0.9778 -0.2845 -0.9995
19063TIP3    H278605   5.486   0.001  10.755  3.4891 -2.8022  2.1327
19064TIP3   OH278606   0.369   3.940  15.120  0.3036 -0.2392  0.2721
19064TIP3    H178607   0.410   3.867  15.073  1.1032  1.1583 -1.3599
19064TIP3    H278608   0.370   4.012  15.056 -1.0635  1.0032  1.5818
19065TIP3   OH278609   5.660   4.548  11.415  0.0815 -0.0978 -0.2803
19065TIP3    H178610   5.627   4.521  11.330 -1.2349 -0.8179  0.4292
19065TIP3    H278611   5.708   4.472  11.448  0.5983  0.1823 -0.3581
19066TIP3   OH278612   2.667   5.067   1.478 -0.0112 -0.1717 -0.2753
19066TIP3    H178613   2.682   5.160   1.499  2.1943 -0.7100  0.8201
19066TIP3    H278614   2.754   5.034   1.456 -0.5664 -2.2791  0.5312
19067TIP3   OH278615   5.814   0.978   3.574  0.9728 -0.0448  0.4632
19067TIP3    H178616   5.906   0.989   3.596  1.3939 -0.8984 -0.7572
19067TIP3    H278617   5.778   1.067   3.575  1.5713  0.2029  1.8498
19068TIP3   OH278618   2.298   1.115   6.185 -0.2432 -0.0002  0.6263
19068TIP3    H178619   2.267   1.036   6.141  1.0284 -0.7389  0.9988
19068TIP3    H278620   2.233   1.132   6.253 -0.3738 -0.9150  0.7460
19069TIP3   OH278621   4.014   5.356  16.418 -0.1620  0.1692 -0.1247
19069TIP3    H178622   3.977   5.345  16.506  2.4529  0.6613  1.1291
19069TIP3    H278623   3.940   5.383  16.364 -1.6053  1.2634  2.2308
19070TIP3   OH278624   5.449   2.877   3.870  0.5049  0.2605 -0.2972
19070TIP3    H178625   5.388   2.935   3.916  0.1398  0.6590 -1.2427
19070TIP3    H278626   5.501   2.837   3.939 -0.1364  0.7064  0.4652
19071TIP3   OH278627   2.557   3.692   1.055 -0.2994  0.8227 -0.0375
19071TIP3    H178628   2.512   3.615   1.090  4.1989 -1.9387  0.4945
19071TIP3    H278629   2.602   3.730   1.130  0.0144  2.1046 -0.8451
19072TIP3   OH278630   4.736   1.067  11.791 -0.7931  0.5173  0.3098
19072TIP3    H178631   4.642   1.051  11.798 -0.7520 -0.7665 -1.5256
19072TIP3    H278632   4.754   1.068  11.697  1.2424 -0.6231  0.6358
19073TIP3   OH278633   3.912   4.138   1.500 -0.3180  0.3682  0.0832
19073TIP3    H178634   3.869   4.214   1.539  1.1014  0.9125  0.6818
19073TIP3    H278635   3.988   4.175   1.454  0.5933 -0.6869  0.6811
19074TIP3   OH278636   3.810   6.288   4.863 -0.0490  0.2442  0.0369
19074TIP3    H178637   3.731   6.341   4.871 -0.6506 -0.3190 -1.6343
19074TIP3    H278638   3.790   6.226   4.793  1.2946 -0.9874  0.6830
19075TIP3   OH278639   3.018   3.846   6.615  0.5660 -0.0407  0.0340
19075TIP3    H178640   2.946   3.797   6.573  1.3717 -1.9150  0.7247
19075TIP3    H278641   2.976   3.891   6.688  0.0038 -0.7691  0.1745
19076TIP3   OH278642   6.653   4.221  12.061  0.4056  0.6834 -0.4042
19076TIP3    H178643   6.733   4.174  12.038 -0.7677 -0.7250 -1.8434
19076TIP3    H278644   6.590   4.153  12.085 -0.9781  1.5605 -1.3248
19077TIP3   OH278645   0.654   6.388   2.662  0.0300 -0.4229 -0.0226
19077TIP3    H178646   0.629   6.410   2.573  0.8800 -1.0791 -0.4438
19077TIP3    H278647   0.672   6.294   2.659  1.4811 -0.1986  0.4719
19078TIP3   OH278648   5.976   2.899   1.626  0.0032 -0.6713  0.4166
19078TIP3    H178649   5.895   2.869   1.667 -0.4134 -0.1416 -0.0011
19078TIP3    H278650   5.982   2.992   1.650  0.2118 -0.5795  0.0249
19079TIP3   OH278651   5.631   0.362  11.801 -0.2102 -0.0340  0.3884
19079TIP3    H178652   5.579   0.325  11.730  0.7394 -1.7484  0.5325
19079TIP3    H278653   5.701   0.410  11.757  0.5218 -1.3034  0.1284
19080TIP3   OH278654   1.339   5.876  15.434 -0.4347 -0.2330 -1.0147
19080TIP3    H178655   1.407   5.939  15.409 -1.1524  0.7468 -0.5932
19080TIP3    H278656   1.337   5.813  15.362  1.4708 -0.7664 -0.6410
19081TIP3   OH278657   4.634   3.373   4.021 -0.2456 -0.0947  1.2539
19081TIP3    H178658   4.688   3.294   4.018 -1.2556 -0.8224 -1.9770
19081TIP3    H278659   4.696   3.444   4.034  1.7603 -0.8654 -2.5433
19082TIP3   OH278660   5.829   3.535   1.323  0.0731 -0.1837 -0.0997
19082TIP3    H178661   5.923   3.543   1.336  0.0341 -0.7406  0.5341
19082TIP3    H278662   5.818   3.457   1.269  0.0006  0.1617 -0.5949
19083TIP3   OH278663   5.192   1.906   0.645 -0.0066  0.0685 -0.4969
19083TIP3    H178664   5.100   1.881   0.642 -0.6049  2.0548 -0.1298
19083TIP3    H278665   5.225   1.869   0.727 -0.3888 -0.8826 -0.7668
19084TIP3   OH278666   3.483   1.778   5.990 -0.1224  0.0967  0.3802
19084TIP3    H178667   3.490   1.694   5.946 -1.5569 -1.1404  2.3438
19084TIP3    H278668   3.538   1.770   6.068  0.6977  1.4565 -0.0177
19085TIP3   OH278669   0.619   6.005  14.527  0.0833  0.1858 -0.0524
19085TIP3    H178670   0.675   5.986  14.452 -1.3037  0.2541 -1.1483
19085TIP3    H278671   0.669   5.973  14.602  0.7776 -1.4841 -1.1512
19086TIP3   OH278672   1.949   1.284   5.636  0.1669 -0.1814  0.6279
19086TIP3    H178673   2.030   1.300   5.587 -0.7430 -0.2526 -0.9643
19086TIP3    H278674   1.926   1.193   5.615 -1.6310  0.5850 -0.9928
19087TIP3   OH278675   1.674   2.956  12.124 -0.2693 -0.1968  0.0771
19087TIP3    H178676   1.749   2.897  12.131 -0.3920 -0.4810 -0.8386
19087TIP3    H278677   1.616   2.929  12.195 -0.3100 -1.1718 -0.3130
19088TIP3   OH278678   3.854   3.697   1.158  0.2106  0.3153 -0.3534
19088TIP3    H178679   3.825   3.756   1.227  0.5292 -0.2868  0.3016
19088TIP3    H278680   3.818   3.611   1.183 -3.0797  0.7092 -2.9352
19089TIP3   OH278681   6.079   2.276   1.295 -0.1560 -0.5236  0.0936
19089TIP3    H178682   6.087   2.215   1.221  0.5648 -1.9738  1.3099
19089TIP3    H278683   6.100   2.223   1.372  0.9054  1.3720  1.1841
19090TIP3   OH278684   6.543   4.979  14.504  0.0992  0.0460  0.5309
19090TIP3    H178685   6.474   4.974  14.438 -0.4900  0.2351  1.1265
19090TIP3    H278686   6.584   4.892  14.501 -0.5421 -0.2645  0.5817
19091TIP3   OH278687   3.651   2.731  14.942  0.0855 -0.4773  0.3952
19091TIP3    H178688   3.740   2.697  14.953  0.3909 -0.0454 -0.6355
19091TIP3    H278689   3.656   2.787  14.865 -1.4132 -1.6195 -0.5810
19092TIP3   OH278690   6.079   6.778   0.235  0.4198 -0.1110  0.4915
19092TIP3    H178691   6.120   6.702   0.192  0.1659  0.4811 -0.8441
19092TIP3    H278692   6.151   6.818   0.284  0.5612 -1.1990  1.2185
19093TIP3   OH278693   4.677   5.647  15.882  0.3643  0.2303  0.1472
19093TIP3    H178694   4.603   5.705  15.867  0.6569  0.7572  0.6812
19093TIP3    H278695   4.743   5.675  15.818  0.1572 -0.1529 -0.2392
19094TIP3   OH278696   6.081   6.343  14.590 -0.9093 -0.3846 -0.3298
19094TIP3    H178697   6.037   6.426  14.571  2.1066  1.2253 -0.8496
19094TIP3    H278698   6.046   6.282  14.526 -3.2050  0.4226  0.0662
19095TIP3   OH278699   0.526   2.503  14.006 -0.0420 -0.5332  0.1197
19095TIP3    H178700   0.432   2.510  13.991 -0.2802 -0.9496  1.3352
19095TIP3    H278701   0.564   2.572  13.951 -1.3489  2.0713  2.2330
19096TIP3   OH278702   1.777   1.088   0.541  0.8180  0.5953 -0.6154
19096TIP3    H178703   1.729   1.077   0.459 -0.3118  1.3442 -0.0812
19096TIP3    H278704   1.797   0.999   0.570  0.3677  0.3008 -1.2065
19097TIP3   OH278705   3.977   3.635  16.213  0.2894  0.0035 -0.0798
19097TIP3    H178706   4.070   3.654  16.226  0.3900  0.0474 -0.8177
19097TIP3    H278707   3.936   3.659  16.296  0.9368 -0.0210  0.2547
19098TIP3   OH278708   4.202   4.160  15.502  0.1919  0.3363  0.0098
19098TIP3    H178709   4.238   4.222  15.565  0.3317 -1.0156  1.3118
19098TIP3    H278710   4.251   4.079  15.518  0.9726  0.2124 -2.5616
19099TIP3   OH278711   0.838   0.773  11.002  0.0958 -0.0406 -0.3733
19099TIP3    H178712   0.860   0.780  10.909 -1.8313  0.4681 -0.8556
19099TIP3    H278713   0.850   0.680  11.022 -1.4030 -0.5865 -1.7278
19100TIP3   OH278714   1.112   1.831  16.242  0.1134  0.5044  0.2224
19100TIP3    H178715   1.045   1.812  16.176  1.1565 -2.5027 -0.1051
19100TIP3    H278716   1.194   1.807  16.200  1.6945  4.8245  0.3214
19101TIP3   OH278717   1.191   2.325   4.092 -0.0210 -0.0903  0.1106
19101TIP3    H178718   1.234   2.401   4.055  0.7805 -1.5032 -2.0607
19101TIP3    H278719   1.106   2.358   4.123  0.5971  1.7882 -0.0760
19102TIP3   OH278720   2.821   5.726  12.392  0.0575 -0.1004  0.6781
19102TIP3    H178721   2.753   5.663  12.370  1.2400 -0.8927 -0.9076
19102TIP3    H278722   2.806   5.800  12.333  0.4865 -0.2231  0.4112
19103TIP3   OH278723   4.509   5.592  12.061  0.7531  0.2797  0.6643
19103TIP3    H178724   4.583   5.652  12.049 -0.7395  1.8799 -1.1089
19103TIP3    H278725   4.461   5.627  12.136  0.5750  0.5556  0.4210
19104TIP3   OH278726   6.752   5.901   5.737  0.1905  0.6393 -0.6568
19104TIP3    H178727   6.797   5.897   5.821  0.1579  0.8205 -0.6301
19104TIP3    H278728   6.701   5.820   5.733  0.7980  0.2575 -0.8495
19105TIP3   OH278729   2.618   1.973  16.503  0.2074 -0.1423  0.1012
19105TIP3    H178730   2.548   2.035  16.522  0.1731 -0.3172  0.5787
19105TIP3    H278731   2.690   1.999  16.561  0.2563 -0.4315  0.1757
19106TIP3   OH278732   5.079   6.501  12.597  0.1888  0.2983 -0.7650
19106TIP3    H178733   5.129   6.528  12.519  1.2536  0.7675  0.0483
19106TIP3    H278734   4.989   6.527  12.578  0.8506  2.7531 -0.8139
19107TIP3   OH278735   4.772   5.105  10.953  0.6100 -0.7209  0.0387
19107TIP3    H178736   4.712   5.031  10.965 -1.9062  0.9921 -1.0203
19107TIP3    H278737   4.733   5.176  11.006  1.9443  0.3500 -0.3647
19108TIP3   OH278738   3.121   3.069   4.012 -0.6585 -0.0491 -0.1280
19108TIP3    H178739   3.116   3.007   4.085 -0.2731  0.2240  0.1291
19108TIP3    H278740   3.181   3.137   4.041  0.5942 -0.6449 -1.2243
19109TIP3   OH278741   5.216   2.675  12.816  0.1028  0.6782  0.5624
19109TIP3    H178742   5.297   2.657  12.767  0.5095 -1.6919  2.0023
19109TIP3    H278743   5.246   2.714  12.898 -0.1208 -0.9284  1.4333
19110TIP3   OH278744   1.443   0.905  16.561 -0.1393  0.4338  0.1104
19110TIP3    H178745   1.454   0.979  16.621  1.2283  0.2797  0.0620
19110TIP3    H278746   1.467   0.828  16.611  1.6692  0.3650 -0.7768
19111TIP3   OH278747   5.820   5.631  10.554  0.7513 -0.4678 -1.0417
19111TIP3    H178748   5.844   5.622  10.462  0.6753 -0.3870 -1.0703
19111TIP3    H278749   5.813   5.726  10.568 -0.1448 -0.5049 -1.1926
19112TIP3   OH278750   5.497   6.100   0.988 -0.0112 -0.0174  0.1719
19112TIP3    H178751   5.533   6.096   1.076  0.9786 -0.6749 -0.2371
19112TIP3    H278752   5.504   6.192   0.964  2.0452 -0.1932 -0.1078
19113TIP3   OH278753   1.412   3.973  11.657  0.6075  0.0569 -0.0824
19113TIP3    H178754   1.478   4.016  11.602  0.0460 -1.2137 -1.8589
19113TIP3    H278755   1.368   4.045  11.702  2.3608  1.0138  0.2064
19114TIP3   OH278756   3.226   0.072  12.735 -0.8177 -0.3059 -0.1355
19114TIP3    H178757   3.149   0.106  12.782 -2.6309 -1.8045 -1.8349
19114TIP3    H278758   3.201   0.077  12.643  1.1504 -0.8833 -0.7341
19115TIP3   OH278759   5.647   4.417   2.654 -0.4086 -0.1071 -0.3746
19115TIP3    H178760   5.564   4.405   2.700 -0.2960 -0.5481 -0.2823
19115TIP3    H278761   5.645   4.353   2.583  0.2120 -0.6974  0.1335
19116TIP3   OH278762   4.934   2.045   3.306 -0.3520 -0.0606  0.3948
19116TIP3    H178763   4.965   1.975   3.249 -1.7187  0.0937 -0.5942
19116TIP3    H278764   4.997   2.116   3.293  0.3196 -0.6455  0.4135
19117TIP3   OH278765   2.828   0.446   4.999  0.4057 -0.1838  0.1417
19117TIP3    H178766   2.825   0.463   4.905 -0.7622 -0.7172  0.0596
19117TIP3    H278767   2.771   0.512   5.038  3.3702  2.1669  0.8917
19118TIP3   OH278768   1.857   2.021   3.137 -0.0696 -0.1717 -0.0621
19118TIP3    H178769   1.901   1.987   3.060  1.1700  2.1186 -0.4561
19118TIP3    H278770   1.876   1.958   3.206  0.5466 -1.2052 -1.1491
19119TIP3   OH278771   4.298   5.693  16.802  0.0602 -0.0841  0.6457
19119TIP3    H178772   4.240   5.638  16.749 -1.4114  1.9215  0.0417
19119TIP3    H278773   4.240   5.735  16.865  1.1104  0.8469  1.0270
19120TIP3   OH278774   0.188   6.588  11.055  0.5932  0.2592 -0.5393
19120TIP3    H178775   0.116   6.648  11.040  0.3535 -0.0622 -0.6933
19120TIP3    H278776   0.151   6.518  11.110  1.0615  0.6331  0.2742
19121TIP3   OH278777   0.493   3.690  14.855  0.1018 -0.2407  0.1404
19121TIP3    H178778   0.535   3.713  14.772 -0.2687  0.1825  0.0656
19121TIP3    H278779   0.514   3.598  14.868  1.7721  0.1647  0.5305
19122TIP3   OH278780   5.958   1.662   2.122 -0.6010  0.3516  0.6552
19122TIP3    H178781   5.891   1.666   2.054 -0.1234  0.4519  0.1785
19122TIP3    H278782   5.911   1.680   2.203 -0.9913  1.3563  0.2214
19123TIP3   OH278783   6.122   3.646  12.803 -0.4238  0.5867  0.0722
19123TIP3    H178784   6.191   3.586  12.832 -0.4600  1.4201  2.0329
19123TIP3    H278785   6.169   3.723  12.772 -0.4292  0.1631 -1.0466
19124TIP3   OH278786   0.613   0.617   5.218 -0.2027 -0.3355  0.1245
19124TIP3    H178787   0.575   0.546   5.166 -2.4562  0.2634  0.8367
19124TIP3    H278788   0.540   0.677   5.232  1.0018  0.8110  1.7674
19125TIP3   OH278789   0.442   5.436   4.304  0.1200  0.5520 -0.2144
19125TIP3    H178790   0.367   5.380   4.324 -0.6025  1.6196  0.1285
19125TIP3    H278791   0.432   5.459   4.212  0.1376  0.5326 -0.2214
19126TIP3   OH278792   6.026   3.104  11.988  0.6173  0.2250 -0.2176
19126TIP3    H178793   6.066   3.041  12.048  0.9281  1.1855  0.6225
19126TIP3    H278794   6.084   3.106  11.912  1.7386  0.9529  0.6144
19127TIP3   OH278795   3.029   0.902  10.356  0.2929  0.1619 -0.2339
19127TIP3    H178796   3.019   0.871  10.446  0.6865  2.0711  0.5162
19127TIP3    H278797   2.996   0.831  10.302 -0.6268 -0.7378  1.4488
19128TIP3   OH278798   4.222   1.428  16.130  0.0293 -0.3683 -0.0713
19128TIP3    H178799   4.134   1.390  16.123 -0.1548 -0.6738  2.8355
19128TIP3    H278800   4.225   1.494  16.061 -1.5924 -1.9622 -1.7679
19129TIP3   OH278801   6.647   0.805  12.609  0.2547  0.1907 -0.5599
19129TIP3    H178802   6.642   0.735  12.544  3.9723 -1.4209  0.6396
19129TIP3    H278803   6.716   0.862  12.578 -0.0021  1.1133  0.4875
19130TIP3   OH278804   0.930   2.149   4.838  0.7830  0.1613  0.1037
19130TIP3    H178805   0.926   2.135   4.744  0.5986  2.0837 -0.2156
19130TIP3    H278806   0.909   2.064   4.876 -2.3745  0.0700 -1.5748
19131TIP3   OH278807   6.218   1.399  10.897  0.1923  0.2268  0.2465
19131TIP3    H178808   6.132   1.369  10.865 -0.0852  0.4721  0.7566
19131TIP3    H278809   6.242   1.471  10.838  0.3990 -0.3287 -0.3615
19132TIP3   OH278810   3.617   1.890   2.315  0.0064  0.1690  0.0564
19132TIP3    H178811   3.547   1.871   2.252  0.6265 -1.1048 -0.3021
19132TIP3    H278812   3.582   1.861   2.399  0.1484 -0.6646 -0.1555
19133TIP3   OH278813   5.285   4.036   4.058  0.7392  0.8117 -0.1595
19133TIP3    H178814   5.366   4.050   4.107 -0.2524  1.9232  1.2226
19133TIP3    H278815   5.235   4.116   4.069  0.7171  1.4415 -3.6274
19134TIP3   OH278816   6.378   0.764  11.365 -0.2036  0.1260 -0.3313
19134TIP3    H178817   6.307   0.816  11.401 -2.0686 -1.3442 -1.6851
19134TIP3    H278818   6.397   0.700  11.434 -0.7785  0.0144 -0.2684
19135TIP3   OH278819   5.429   4.378   3.220  0.0461 -0.5184  0.0300
19135TIP3    H178820   5.480   4.299   3.203 -0.0105 -0.1920 -1.9007
19135TIP3    H278821   5.490   4.438   3.263  0.4741 -1.1183  0.2741
19136TIP3   OH278822   4.456   3.540   2.860  0.2256  0.4333 -0.0135
19136TIP3    H178823   4.418   3.609   2.915 -0.1847 -0.1085  0.3819
19136TIP3    H278824   4.402   3.539   2.782  1.7543  2.3170 -1.2134
19137TIP3   OH278825   0.745   0.499   2.101  0.2909 -0.2239  0.6687
19137TIP3    H178826   0.815   0.510   2.036  1.2301  0.2576  1.7330
19137TIP3    H278827   0.786   0.520   2.185 -1.2735  0.6681  1.2623
19138TIP3   OH278828   4.441   6.742  13.764 -0.1164  0.5628  0.0217
19138TIP3    H178829   4.509   6.724  13.699 -0.9047  0.4482 -0.8024
19138TIP3    H278830   4.421   6.657  13.802 -0.6429  0.3898 -0.6158
19139TIP3   OH278831   6.385   2.763  13.018 -0.3827 -0.0392 -0.0043
19139TIP3    H178832   6.422   2.801  12.938  0.7338  1.2630  1.0688
19139TIP3    H278833   6.291   2.777  13.010 -0.3170 -0.1310 -1.1678
19140TIP3   OH278834   3.970   3.044   3.917  0.3415  0.4845 -0.3109
19140TIP3    H178835   3.902   2.980   3.896 -1.3011  1.6333  1.1542
19140TIP3    H278836   3.974   3.044   4.013  2.1637  0.7372 -0.3561
19141TIP3   OH278837   1.574   5.778  14.847  0.4742 -0.6355  0.6229
19141TIP3    H178838   1.486   5.741  14.839  0.8821 -1.2782 -1.6572
19141TIP3    H278839   1.623   5.711  14.895 -0.0984 -0.5744  1.3100
19142TIP3   OH278840   5.146   1.768   5.302 -0.5882 -0.0107 -0.4860
19142TIP3    H178841   5.169   1.788   5.392  0.0587  0.9448 -0.8519
19142TIP3    H278842   5.050   1.770   5.301 -0.5857  1.4039 -0.1114
19143TIP3   OH278843   1.643   0.591  11.509 -0.3646  0.6093 -0.2695
19143TIP3    H178844   1.730   0.560  11.482 -0.1878  0.0439  0.8396
19143TIP3    H278845   1.595   0.510  11.529 -1.2793  0.9017 -1.2146
19144TIP3   OH278846   0.463   2.533   5.342  0.4248 -0.6512  0.6153
19144TIP3    H178847   0.487   2.521   5.434 -0.5437 -1.9093  0.7211
19144TIP3    H278848   0.531   2.487   5.293  0.5399 -0.5937  0.7187
19145TIP3   OH278849   2.198   0.758  15.339  0.9699 -0.6259  0.0074
19145TIP3    H178850   2.148   0.839  15.331  1.1954 -0.5238 -0.4193
19145TIP3    H278851   2.284   0.786  15.371  0.6839 -0.8287  1.0126
19146TIP3   OH278852   6.248   4.047  15.795  0.1691  0.3356  0.2209
19146TIP3    H178853   6.212   3.975  15.743  0.2837  1.2613 -1.2035
19146TIP3    H278854   6.266   4.116  15.731 -0.0533  1.6810  1.5562
19147TIP3   OH278855   5.357   4.104  10.574 -0.4840 -0.1369  0.4181
19147TIP3    H178856   5.348   4.199  10.563 -1.2163 -0.3139 -0.6626
19147TIP3    H278857   5.450   4.087  10.564 -0.6060  0.2261 -1.7161
19148TIP3   OH278858   0.660   5.000   4.038  0.8530 -0.0765 -0.0514
19148TIP3    H178859   0.688   5.090   4.057 -0.3501  0.3586 -0.3020
19148TIP3    H278860   0.576   4.991   4.083  1.4501 -1.4420  0.8676
19149TIP3   OH278861   4.486   0.857  15.670 -0.0503 -0.3057  0.1640
19149TIP3    H178862   4.437   0.779  15.698 -0.6325 -0.3759 -1.0117
19149TIP3    H278863   4.569   0.852  15.718 -0.8242 -0.6609  1.5122
19150TIP3   OH278864   5.425   1.254  15.159 -0.1374 -0.0936  0.4761
19150TIP3    H178865   5.496   1.227  15.100 -2.8401  0.2335 -3.2675
19150TIP3    H278866   5.448   1.344  15.183  0.8708 -0.0807 -0.4217
19151TIP3   OH278867   0.795   2.802  17.128 -0.2967 -0.2831 -0.1010
19151TIP3    H178868   0.854   2.818  17.055  0.5762  0.7451  0.7890
19151TIP3    H278869   0.834   2.851  17.201  0.1933 -3.1729  1.7119
19152TIP3   OH278870   3.838   1.607   6.014  0.0463  0.6545 -0.0289
19152TIP3    H178871   3.801   1.638   6.096 -2.0273  0.6186 -0.8973
19152TIP3    H278872   3.830   1.682   5.955  3.1958  1.3121  0.2043
19153TIP3   OH278873   1.491   3.115  15.097 -0.4349  0.4004 -0.0373
19153TIP3    H178874   1.485   3.175  15.171 -0.8590  1.9473 -1.2581
19153TIP3    H278875   1.407   3.069  15.096  0.0797 -0.6123  1.1973
19154TIP3   OH278876   1.339   2.064   0.043  0.4771 -0.8000 -0.6806
19154TIP3    H178877   1.261   2.023   0.080 -0.4532  0.3585 -1.3150
19154TIP3    H278878   1.378   2.110   0.117  0.5057 -1.2730 -0.3921
19155TIP3   OH278879   4.975   2.600   0.159 -0.7723  0.0780  0.0766
19155TIP3    H178880   4.965   2.516   0.114 -0.3805 -0.0687  0.2635
19155TIP3    H278881   4.931   2.587   0.244  0.5698 -0.4258  0.7186
19156TIP3   OH278882   0.827   4.668  11.044 -0.3678 -0.0886  0.5565
19156TIP3    H178883   0.758   4.727  11.016  1.1936  0.3941 -2.7704
19156TIP3    H278884   0.797   4.581  11.019 -0.7840 -0.1914  1.3866
19157TIP3   OH278885   2.917   0.634  16.058 -0.1034  0.6981 -0.3901
19157TIP3    H178886   2.848   0.621  16.124 -0.4940 -0.9112 -1.0726
19157TIP3    H278887   2.913   0.556  16.003  2.2871  0.5492 -0.4537
19158TIP3   OH278888   2.474   1.237   2.712 -0.1345 -0.3824  0.0090
19158TIP3    H178889   2.420   1.259   2.636  0.5470  2.3300  0.1794
19158TIP3    H278890   2.415   1.191   2.771 -0.7575 -2.3336 -1.9715
19159TIP3   OH278891   2.740   1.730  13.229 -0.2631 -0.3921 -0.7086
19159TIP3    H178892   2.656   1.742  13.274  0.4486 -1.3971  1.0137
19159TIP3    H278893   2.800   1.790  13.275 -0.0362  0.4272 -2.0173
19160TIP3   OH278894   2.610   3.454  16.710 -0.3828  0.2480 -0.1776
19160TIP3    H178895   2.613   3.395  16.785 -2.0798 -1.2528 -1.2010
19160TIP3    H278896   2.616   3.396  16.633  0.8806  1.6927 -1.2274
19161TIP3   OH278897   1.976   3.838  12.483  0.3208  0.2299  0.1170
19161TIP3    H178898   1.910   3.769  12.487  0.9592 -0.3333  2.2437
19161TIP3    H278899   1.938   3.903  12.424  0.8361 -2.9625 -4.2621
19162TIP3   OH278900   0.503   1.418  17.089  0.1203  0.4784  0.4130
19162TIP3    H178901   0.475   1.349  17.149 -0.7413  1.3834  1.0771
19162TIP3    H278902   0.439   1.415  17.018 -0.4454  1.1602  0.8826
19163TIP3   OH278903   0.798   2.591   3.593 -0.5929 -0.1593  0.5387
19163TIP3    H178904   0.892   2.576   3.605 -0.1241  0.6054 -1.6421
19163TIP3    H278905   0.792   2.684   3.570 -1.6221 -0.6404 -1.3608
19164TIP3   OH278906   2.395   0.865  13.747  0.0714 -0.1782  0.0655
19164TIP3    H178907   2.308   0.828  13.759 -0.0646 -0.8147 -2.3589
19164TIP3    H278908   2.380   0.947  13.700  0.7858 -0.7350 -1.1970
19165TIP3   OH278909   1.699   0.590  16.356  0.6714  0.2834 -0.1477
19165TIP3    H178910   1.605   0.573  16.345  0.3811  1.2533  0.7281
19165TIP3    H278911   1.741   0.512  16.320 -0.3405  1.0602 -3.4264
19166TIP3   OH278912   5.835   5.116  13.545 -0.4080 -0.5185  0.0235
19166TIP3    H178913   5.785   5.198  13.539  1.8653  0.9290 -0.3433
19166TIP3    H278914   5.871   5.103  13.457  0.8001 -0.8649  0.5500
19167TIP3   OH278915   3.937   5.762   0.885  0.6647  0.5780 -0.2694
19167TIP3    H178916   3.928   5.766   0.981  2.2410 -0.0406 -0.0652
19167TIP3    H278917   4.003   5.828   0.865 -0.5348  1.5663 -1.0980
19168TIP3   OH278918   5.950   3.832   0.113  0.7561  0.3561 -0.3522
19168TIP3    H178919   5.946   3.776   0.190 -1.2173 -0.1311 -0.7443
19168TIP3    H278920   6.024   3.799   0.062  0.0507 -1.4943 -0.2391
19169TIP3   OH278921   4.177   1.637  16.933 -0.2641 -0.1736 -0.0768
19169TIP3    H178922   4.097   1.677  16.968 -1.1660 -2.2032  0.3017
19169TIP3    H278923   4.247   1.673  16.988 -1.2178 -0.2562  1.2418
19170TIP3   OH278924   6.760   3.794  15.263  0.4188 -0.2806  0.1515
19170TIP3    H178925   6.737   3.702  15.269  0.9789 -0.3388  1.9616
19170TIP3    H278926   6.853   3.797  15.287  0.4146  0.7422  0.0799
19171TIP3   OH278927   5.345   4.942  16.549  0.2124 -0.5434  0.0494
19171TIP3    H178928   5.353   4.857  16.593 -0.9332 -0.1688  1.0465
19171TIP3    H278929   5.256   4.970  16.569  0.8015  1.2219  0.3103
19172TIP3   OH278930   0.152   5.560  13.116 -0.0672 -0.6007  0.1202
19172TIP3    H178931   0.145   5.517  13.201  0.7343 -2.5273 -0.7209
19172TIP3    H278932   0.075   5.531  13.067  0.2242 -0.6876 -0.2970
19173TIP3   OH278933   4.819   4.068   4.019 -0.0278 -0.1373  0.5058
19173TIP3    H178934   4.863   4.007   3.959  1.4152  0.6274  0.7287
19173TIP3    H278935   4.879   4.076   4.093 -0.4536  1.0900  0.7471
19174TIP3   OH278936   0.446   6.369   3.702  0.0655 -0.4134 -0.1032
19174TIP3    H178937   0.471   6.287   3.658 -0.5733 -0.2564 -0.7667
19174TIP3    H278938   0.383   6.342   3.769  0.6776 -0.5934  0.4086
19175TIP3   OH278939   4.047   1.532  13.574 -0.0726 -0.4422 -0.2896
19175TIP3    H178940   4.110   1.574  13.517 -0.8284  1.5419  0.2514
19175TIP3    H278941   4.099   1.497  13.646  0.4703  0.9376  0.0227
19176TIP3   OH278942   0.361   0.504  11.446 -0.4624 -0.2632 -0.1926
19176TIP3    H178943   0.353   0.415  11.411 -3.0888  0.1207 -0.7612
19176TIP3    H278944   0.421   0.549  11.386 -1.2797 -0.9013 -1.5213
19177TIP3   OH278945   4.241   0.188   1.206 -1.2066 -0.1585 -0.1057
19177TIP3    H178946   4.267   0.251   1.140 -0.5797  0.5430  0.7752
19177TIP3    H278947   4.207   0.113   1.157  0.3074 -0.1404 -1.2542
19178TIP3   OH278948   0.722   3.713   2.685 -0.2361 -0.0981  0.5691
19178TIP3    H178949   0.667   3.694   2.761  0.9758  2.1318  2.1285
19178TIP3    H278950   0.808   3.676   2.707  0.3811  1.3766  0.7740
19179TIP3   OH278951   6.680   2.512   4.515  0.2882 -0.7375  0.8042
19179TIP3    H178952   6.665   2.562   4.435  0.5130 -0.0180  1.2003
19179TIP3    H278953   6.630   2.431   4.503  2.3657 -1.8525 -1.1732
19180TIP3   OH278954   0.305   2.267   5.410  0.1378  0.0363  0.3921
19180TIP3    H178955   0.247   2.284   5.335  0.0310  0.0702  0.4820
19180TIP3    H278956   0.348   2.351   5.426  1.0334 -0.2602 -0.3663
19181TIP3   OH278957   4.886   5.724   4.193 -0.6970 -0.1644  0.5406
19181TIP3    H178958   4.822   5.715   4.123 -0.6618 -1.0900  0.6194
19181TIP3    H278959   4.941   5.646   4.186 -0.7270 -0.2998  1.6215
19182TIP3   OH278960   0.304   4.418  15.185  0.3425  0.1850  0.6785
19182TIP3    H178961   0.291   4.323  15.196 -2.3042  0.3161 -0.5310
19182TIP3    H278962   0.280   4.434  15.093 -0.1766  2.1422  1.1195
19183TIP3   OH278963   2.664   3.004   2.585 -0.7777  0.1020  0.1552
19183TIP3    H178964   2.591   3.060   2.558 -1.8482 -1.1955  0.2510
19183TIP3    H278965   2.683   3.031   2.675 -1.0631  0.5156  0.0959
19184TIP3   OH278966   2.478   5.416  12.169 -0.1476  0.2489  0.1593
19184TIP3    H178967   2.440   5.343  12.217  0.8123 -0.2928  0.1123
19184TIP3    H278968   2.476   5.387  12.077  0.5956  0.1162  0.1845
19185TIP3   OH278969   1.407   2.656   3.269 -0.2570  0.1298  0.0079
19185TIP3    H178970   1.469   2.608   3.214  0.5143 -2.4605  2.8044
19185TIP3    H278971   1.325   2.608   3.259 -1.0854  1.7575 -1.4243
19186TIP3   OH278972   5.317   5.812  16.455  0.2191 -0.1948  0.4464
19186TIP3    H178973   5.277   5.847  16.375  0.3392  1.4279  1.0805
19186TIP3    H278974   5.284   5.722  16.460 -1.7988  0.4614 -0.1166
19187TIP3   OH278975   0.676   3.539  15.463  0.0264  0.3680 -0.3383
19187TIP3    H178976   0.697   3.492  15.382  0.1746  0.6732 -0.4768
19187TIP3    H278977   0.672   3.471  15.530  0.4960  0.1895 -0.4906
19188TIP3   OH278978   5.102   4.590   1.114 -0.4129 -0.2346  0.0194
19188TIP3    H178979   5.031   4.567   1.174 -0.1681  2.0437  1.2887
19188TIP3    H278980   5.100   4.686   1.109  1.7476 -0.1741 -0.9501
19189TIP3   OH278981   3.113   0.747   1.334  0.2893  0.5506  0.3113
19189TIP3    H178982   3.169   0.680   1.375  0.2990 -0.5724 -1.4288
19189TIP3    H278983   3.065   0.786   1.407  2.2592  0.5390  1.6985
19190TIP3   OH278984   2.427   0.057   3.476  0.0446 -0.7272  0.1272
19190TIP3    H178985   2.405  -0.008   3.544  1.8492  1.1979  2.7598
19190TIP3    H278986   2.392   0.140   3.511 -0.8121  0.0437 -2.3750
19191TIP3   OH278987   4.695   5.888   0.959 -0.3030 -0.2320 -0.6315
19191TIP3    H178988   4.739   5.937   1.029 -0.6268  0.2294 -0.7413
19191TIP3    H278989   4.631   5.834   1.005 -1.2891  0.8927 -0.6287
19192TIP3   OH278990   0.982   5.107   4.662 -0.5832  0.0869 -0.5676
19192TIP3    H178991   0.978   5.084   4.570  3.2392 -1.3480 -0.5391
19192TIP3    H278992   0.961   5.201   4.664  0.9631  0.5997 -3.1826
19193TIP3   OH278993   4.747   3.252   6.282  0.6394  0.2035 -0.1264
19193TIP3    H178994   4.685   3.292   6.343 -0.0398 -1.5039  0.3551
19193TIP3    H278995   4.833   3.282   6.313  0.2599 -0.0110  1.2333
19194TIP3   OH278996   6.400   4.337   2.981 -0.2233 -0.0565  0.4066
19194TIP3    H178997   6.331   4.318   3.045  0.1099 -2.5869  0.1501
19194TIP3    H278998   6.479   4.351   3.033  0.0950 -2.3370  0.6446
19195TIP3   OH278999   1.008   1.268   1.766  0.7541  0.2315  0.3996
19195TIP3    H179000   0.993   1.178   1.737 -0.9033  0.6373 -0.0891
19195TIP3    H279001   0.942   1.283   1.834  2.6867  0.2676  2.3945
19196TIP3   OH279002   2.516   4.911  12.130 -0.4113 -0.0670  0.2824
19196TIP3    H179003   2.553   4.971  12.194 -2.8777  1.1654  0.6858
19196TIP3    H279004   2.457   4.855  12.180  0.5033 -1.6922 -0.3742
19197TIP3   OH279005   1.715   4.196  13.404  0.1498 -0.0926 -0.1188
19197TIP3    H179006   1.748   4.128  13.463  1.9426  1.3759  0.6822
19197TIP3    H279007   1.693   4.150  13.324 -0.8790 -1.9230  1.1411
19198TIP3   OH279008   6.153   3.667   4.818  0.6442 -0.1638  0.7086
19198TIP3    H179009   6.193   3.632   4.897 -0.7773 -0.8605  1.1601
19198TIP3    H279010   6.112   3.591   4.776 -1.0843  0.6350  0.8447
19199TIP3   OH279011   6.474   3.967  13.299  0.0432  0.6312  0.3046
19199TIP3    H179012   6.412   3.933  13.364  0.2184 -0.2529  0.0217
19199TIP3    H279013   6.431   3.952  13.215  1.2283 -1.3839 -0.0063
19200TIP3   OH279014   0.710   4.717   2.985 -0.2380  0.0887  0.5855
19200TIP3    H179015   0.801   4.721   3.014 -0.2163 -0.6999  0.6287
19200TIP3    H279016   0.707   4.644   2.923 -0.4241  1.3323 -0.9250
19201TIP3   OH279017   3.458   1.181   2.123 -0.6281 -0.9676 -0.5195
19201TIP3    H179018   3.548   1.203   2.148 -1.1093  0.8873 -0.2267
19201TIP3    H279019   3.408   1.258   2.148 -2.5146 -2.4139  0.3941
19202TIP3   OH279020   3.411   4.746  11.536 -0.2911 -0.4562 -0.5889
19202TIP3    H179021   3.429   4.716  11.447  1.0286  0.2786 -0.5842
19202TIP3    H279022   3.497   4.769  11.572 -1.0119  1.0841  0.2141
19203TIP3   OH279023   1.836   1.548  17.102  0.3271 -0.2423 -0.0748
19203TIP3    H179024   1.792   1.542  17.017 -0.1661 -6.2402  0.1955
19203TIP3    H279025   1.922   1.508  17.087  1.2117  0.8227  1.8261
19204TIP3   OH279026   4.831   1.953   3.720  0.3656  0.2711  0.3659
19204TIP3    H179027   4.860   1.979   3.808 -1.2176  3.1614  0.1555
19204TIP3    H279028   4.736   1.941   3.729  0.4681 -1.6658 -0.5279
19205TIP3   OH279029   4.370   3.226  17.134  0.4498 -0.3371 -0.1776
19205TIP3    H179030   4.378   3.146  17.186 -1.6332 -1.1990 -1.0677
19205TIP3    H279031   4.280   3.256  17.150  0.9139  1.3672 -0.5300
19206TIP3   OH279032   3.439   1.672   5.661 -0.3648 -0.1579 -0.3293
19206TIP3    H179033   3.504   1.614   5.620  1.8332  1.0456  1.2259
19206TIP3    H279034   3.358   1.652   5.615  0.7204 -2.9074 -1.3152
19207TIP3   OH279035   3.147   4.444   0.157 -0.0841  0.4079 -0.4862
19207TIP3    H179036   3.152   4.537   0.179  1.8243  0.4567 -0.9732
19207TIP3    H279037   3.075   4.410   0.211 -1.0048  2.2134 -0.5322
19208TIP3   OH279038   1.543   3.531  12.468 -0.4876 -0.1343 -0.2959
19208TIP3    H179039   1.457   3.566  12.442 -1.1632 -0.7559  1.0140
19208TIP3    H279040   1.549   3.447  12.421 -1.2609 -0.7797  0.7235
19209TIP3   OH279041   1.616   5.010  15.874 -0.1111 -0.4470 -0.2243
19209TIP3    H179042   1.597   5.098  15.904  3.0573 -0.0305  0.9554
19209TIP3    H279043   1.544   4.957  15.908 -2.9473  1.7788 -2.2900
19210TIP3   OH279044   3.793   5.622   1.327 -0.1324 -0.2821  0.5585
19210TIP3    H179045   3.822   5.575   1.248 -2.1385 -1.6923  0.5737
19210TIP3    H279046   3.766   5.553   1.387 -1.6212  0.8270  1.2374
19211TIP3   OH279047   6.689   2.081   3.892 -0.0325  0.0173  0.3995
19211TIP3    H179048   6.651   2.108   3.976  0.1935 -0.4925  0.6740
19211TIP3    H279049   6.624   2.106   3.827 -0.0889  0.6638  0.7010
19212TIP3   OH279050   1.454   3.096  14.807  0.2454 -0.2548 -0.5301
19212TIP3    H179051   1.362   3.080  14.827  0.6042 -2.2056 -0.2665
19212TIP3    H279052   1.485   3.150  14.879 -0.6679  0.3947 -0.6020
19213TIP3   OH279053   3.517   0.991  15.387  0.0364 -0.8542  0.1774
19213TIP3    H179054   3.492   0.921  15.448 -0.4880  0.7535  1.8895
19213TIP3    H279055   3.434   1.021  15.351  0.1996 -0.6407 -0.0167
19214TIP3   OH279056   2.210   4.097   4.643  0.3804 -0.5146  0.1645
19214TIP3    H179057   2.122   4.120   4.671 -0.2937 -0.5827 -1.7358
19214TIP3    H279058   2.206   4.003   4.624  0.8012 -0.4757 -0.1420
19215TIP3   OH279059   5.449   3.205  11.929 -0.2248 -0.1037 -0.1936
19215TIP3    H179060   5.392   3.273  11.893 -0.3623  0.6517  1.3857
19215TIP3    H279061   5.391   3.131  11.945 -0.5988  0.3289  0.5081
19216TIP3   OH279062   5.205   2.973   0.420  0.0573 -0.3793  0.1383
19216TIP3    H179063   5.153   2.915   0.476  1.1171 -1.2250  0.2729
19216TIP3    H279064   5.231   3.045   0.478  0.2069 -0.6770  0.4455
19217TIP3   OH279065   1.969   0.867   1.360  0.3146 -0.5935  1.2798
19217TIP3    H179066   1.942   0.944   1.410  0.0361  0.0113  0.2081
19217TIP3    H279067   1.975   0.797   1.426  0.4079  0.2925  2.2341
19218TIP3   OH279068   6.559   0.140  12.325 -0.1002  0.2804 -0.2208
19218TIP3    H179069   6.646   0.157  12.359  1.4053 -1.7080 -2.6705
19218TIP3    H279070   6.509   0.107  12.400  1.5169  0.6413  1.0583
19219TIP3   OH279071   6.679   2.941  12.184  0.8601 -0.4936  0.0627
19219TIP3    H179072   6.638   2.991  12.113 -1.0329 -1.7077  0.2162
19219TIP3    H279073   6.639   2.976  12.263 -0.0851 -1.7859  0.2061
19220TIP3   OH279074   4.451   0.937  13.791  0.5557  0.2933  0.6019
19220TIP3    H179075   4.467   0.876  13.863  0.0342  0.7783  1.1409
19220TIP3    H279076   4.417   0.883  13.721  1.2832 -0.2226  0.6287
19221TIP3   OH279077   0.765   4.211   4.487 -0.3184 -0.1733  0.0820
19221TIP3    H179078   0.725   4.229   4.402 -0.7738 -1.5882 -0.0245
19221TIP3    H279079   0.829   4.281   4.499 -1.4874  1.0665 -0.6077
19222TIP3   OH279080   6.221   4.106   3.338 -0.3746  0.2317  0.2843
19222TIP3    H179081   6.226   4.149   3.424  3.5040  0.8566 -0.0717
19222TIP3    H279082   6.302   4.055   3.332 -1.5379 -1.5444 -2.2087
19223TIP3   OH279083   5.133   0.484   6.331  0.2091  0.1565 -0.9205
19223TIP3    H179084   5.161   0.511   6.243 -0.7873 -1.9701 -1.9733
19223TIP3    H279085   5.206   0.431   6.363 -0.2662 -0.7733 -1.3468
19224TIP3   OH279086   3.090   0.221   6.449 -0.6772  0.4764 -0.1728
19224TIP3    H179087   3.150   0.279   6.401  0.6866  1.0041  2.0413
19224TIP3    H279088   3.026   0.280   6.489 -0.2450  0.3214  0.7706
19225TIP3   OH279089   6.052   3.166   0.801 -0.4114 -1.0468  0.1431
19225TIP3    H179090   6.083   3.096   0.744 -0.1662 -0.1165 -0.8828
19225TIP3    H279091   6.102   3.243   0.774  0.7374 -0.8652  2.5263
19226TIP3   OH279092   0.230   2.744   0.509 -0.2988 -0.3442 -0.0853
19226TIP3    H179093   0.227   2.738   0.414 -0.4584  0.4906 -0.1382
19226TIP3    H279094   0.139   2.758   0.535 -0.3183 -0.9806  0.2306
19227TIP3   OH279095   2.906   0.480   3.926  0.0514  0.0986 -0.9789
19227TIP3    H179096   2.977   0.484   3.991 -0.6799 -0.1640 -0.1332
19227TIP3    H279097   2.907   0.566   3.884 -0.4522  0.8562  0.4814
19228TIP3   OH279098   4.656   5.391  11.676 -0.2531 -0.2810 -0.5042
19228TIP3    H179099   4.612   5.470  11.644  1.6934  1.3761  0.6824
19228TIP3    H279100   4.645   5.394  11.771  2.6401  0.4183 -0.1100
19229TIP3   OH279101   2.966   2.479  16.497  0.1408  0.4826 -0.4229
19229TIP3    H179102   2.910   2.544  16.457 -1.0659  0.2947  0.8632
19229TIP3    H279103   2.998   2.425  16.424 -0.9705  0.8924 -1.2272
19230TIP3   OH279104   4.169   1.910  13.933 -0.3528 -0.2002  0.2040
19230TIP3    H179105   4.145   1.818  13.918 -1.2485 -0.2648  1.7818
19230TIP3    H279106   4.229   1.931  13.862 -1.1603 -1.6079 -0.9551
19231TIP3   OH279107   6.712   1.990   5.647  0.0667  0.3625  0.2377
19231TIP3    H179108   6.799   1.969   5.614  0.3249  1.8613 -0.1027
19231TIP3    H279109   6.657   1.918   5.616  1.2172 -0.7830  0.7504
19232TIP3   OH279110   3.940   2.538   3.486 -0.2889 -0.6081 -0.2530
19232TIP3    H179111   3.907   2.554   3.398  1.1197  0.9024 -0.5503
19232TIP3    H279112   3.898   2.604   3.541  0.3901 -0.2109 -0.1957
19233TIP3   OH279113   4.481   0.583   4.882 -0.0410 -0.0561  0.0479
19233TIP3    H179114   4.494   0.629   4.799  0.1754  0.9849  0.6360
19233TIP3    H279115   4.461   0.493   4.857  0.8130  0.0545 -1.1102
19234TIP3   OH279116   2.943   4.998   1.434  0.0458  0.5523  1.0135
19234TIP3    H179117   3.032   5.014   1.465  1.1958 -0.8411 -1.2740
19234TIP3    H279118   2.944   4.907   1.403 -1.2919  1.3305 -1.6360
19235TIP3   OH279119   5.576   5.685  11.253 -0.0318 -0.1976  1.0592
19235TIP3    H179120   5.491   5.720  11.283  0.2132  1.1253  0.2865
19235TIP3    H279121   5.555   5.598  11.219 -1.9902  1.7080 -3.2725
19236TIP3   OH279122   4.534   6.107   0.583 -0.1339  0.3228  0.2435
19236TIP3    H179123   4.512   6.017   0.559  0.6515  0.4918 -1.2245
19236TIP3    H279124   4.451   6.153   0.584 -0.3670 -0.0568 -0.6649
19237TIP3   OH279125   3.418   0.118  14.512 -0.4224 -0.3669  0.1159
19237TIP3    H179126   3.456   0.181  14.451  1.6133 -0.7161  0.9397
19237TIP3    H279127   3.406   0.039  14.461  0.4894 -0.4039 -0.0581
19238TIP3   OH279128   5.021   3.353   5.498 -0.1242  0.2226  0.3462
19238TIP3    H179129   4.935   3.331   5.534  0.4244 -1.3104  0.7869
19238TIP3    H279130   5.025   3.308   5.414 -0.3424  1.5906 -0.4257
19239TIP3   OH279131   0.304   6.603  10.802 -1.0213  0.5143  0.8658
19239TIP3    H179132   0.254   6.619  10.882 -0.1720  2.3305  1.0864
19239TIP3    H279133   0.380   6.661  10.810  0.5801 -1.3600  0.0631
19240TIP3   OH279134   0.591   4.047  14.415 -0.1534  0.2045  0.2350
19240TIP3    H179135   0.538   4.125  14.395  0.3784  0.0151 -2.1480
19240TIP3    H279136   0.553   3.978  14.362  2.9164  0.2700 -2.3633
19241TIP3   OH279137   1.531   4.528  15.527 -0.5746 -0.2226 -0.0558
19241TIP3    H179138   1.581   4.567  15.456 -1.9253 -1.1406 -1.5679
19241TIP3    H279139   1.570   4.442  15.540 -0.3715 -0.0824  0.3013
19242TIP3   OH279140   2.525   3.393  15.940 -0.0399 -0.5780  0.3603
19242TIP3    H179141   2.500   3.356  16.024  0.6843 -0.2638  0.7263
19242TIP3    H279142   2.506   3.324  15.876  0.8068 -1.3983  0.9656
19243TIP3   OH279143   2.104   4.909   5.128  0.5951  0.4793 -0.6229
19243TIP3    H179144   2.134   4.836   5.074  0.0858  1.7124 -2.6442
19243TIP3    H279145   2.017   4.931   5.095  0.5230  1.6957  0.2744
19244TIP3   OH279146   6.130   3.742  16.049 -0.1261  0.0487 -0.2869
19244TIP3    H179147   6.076   3.821  16.049 -1.1781 -0.6289  0.3757
19244TIP3    H279148   6.069   3.672  16.024  1.1503 -0.3614 -2.6044
19245TIP3   OH279149   4.460   0.820   2.611  0.0938  0.2806  0.1086
19245TIP3    H179150   4.512   0.874   2.551  0.2838 -0.6979 -0.6360
19245TIP3    H279151   4.500   0.734   2.607 -2.4558 -0.9714 -1.7379
19246TIP3   OH279152   1.541   1.031   3.179  0.3755  0.1768  0.2350
19246TIP3    H179153   1.571   1.122   3.175  1.9192 -0.3107  0.1824
19246TIP3    H279154   1.578   0.990   3.101 -2.0093 -0.0543 -0.8675
19247TIP3   OH279155   2.226   1.549   0.038 -0.2774  0.5925 -0.1923
19247TIP3    H179156   2.199   1.558   0.129 -1.2809  0.1518 -0.4376
19247TIP3    H279157   2.189   1.626  -0.005  0.2699  0.8452 -0.2185
19248TIP3   OH279158   0.568   4.779   0.486 -0.1858 -0.2784 -0.6867
19248TIP3    H179159   0.598   4.844   0.422  0.1696 -0.2220 -0.4695
19248TIP3    H279160   0.636   4.711   0.484  0.4435  0.3004  0.4875
19249TIP3   OH279161   2.130   4.266   5.245  0.0584  0.8800 -0.2939
19249TIP3    H179162   2.047   4.295   5.282  0.8073  1.2933  1.1437
19249TIP3    H279163   2.161   4.341   5.195  1.2011  2.0895  2.0605
19250TIP3   OH279164   2.945   3.833  14.510 -0.2617  0.1319  0.2755
19250TIP3    H179165   2.912   3.851  14.598 -0.4942  1.0740  0.0049
19250TIP3    H279166   2.884   3.879  14.452  0.9740  1.1242 -0.2772
19251TIP3   OH279167   5.736   3.666   3.887  0.3511  0.1310  0.5638
19251TIP3    H179168   5.735   3.690   3.980  2.5637  3.3698 -0.0736
19251TIP3    H279169   5.790   3.588   3.884 -0.2789 -0.4044  2.0365
19252TIP3   OH279170   5.346   1.985   4.880  0.2864  0.9319 -0.8114
19252TIP3    H179171   5.270   1.964   4.935  0.0466 -0.4111 -1.6050
19252TIP3    H279172   5.407   1.913   4.897  1.4636  2.0510 -0.1000
19253TIP3   OH279173   5.705   2.976  15.027 -0.1524  0.1119 -0.1772
19253TIP3    H179174   5.658   2.934  14.955 -0.1238 -2.2276  1.0673
19253TIP3    H279175   5.639   2.987  15.095  0.5011 -0.8844  0.6554
19254TIP3   OH279176   1.823   3.828  16.324 -0.1319 -0.3542 -0.5061
19254TIP3    H179177   1.827   3.913  16.280 -0.7799  0.2528  0.5700
19254TIP3    H279178   1.740   3.790  16.293  0.1672 -0.6167 -1.0031
19255TIP3   OH279179   0.608   5.044   0.630 -0.5653  0.0225 -0.6052
19255TIP3    H179180   0.627   4.966   0.683 -1.7143  1.1329  1.6268
19255TIP3    H279181   0.589   5.010   0.543  0.9249 -1.9871 -0.2247
19256TIP3   OH279182   5.064   3.376   5.766  0.6565  0.3645 -0.1390
19256TIP3    H179183   5.056   3.345   5.857 -0.3536  1.7911  0.2796
19256TIP3    H279184   4.994   3.331   5.719  1.1428 -0.3307 -0.2169
19257TIP3   OH279185   2.900   5.190   6.450  0.3321 -0.3373 -0.1359
19257TIP3    H179186   2.985   5.217   6.416  0.2191  0.7058  0.3516
19257TIP3    H279187   2.912   5.100   6.479  1.5707  0.1396  0.9006
19258TIP3   OH279188   1.972   6.572  11.480 -0.1555 -0.4035 -0.1455
19258TIP3    H179189   1.988   6.666  11.471  2.0585 -0.6736  0.6035
19258TIP3    H279190   1.965   6.541  11.389  2.0322  0.0514 -0.5133
19259TIP3   OH279191   2.533   6.252   5.203  0.2244  0.1649 -0.6520
19259TIP3    H179192   2.502   6.161   5.210  0.6513  0.1484  2.3322
19259TIP3    H279193   2.457   6.305   5.227  0.7427  0.3998  0.5827
19260TIP3   OH279194   5.782   4.755  14.476  0.2084 -0.0519 -0.0960
19260TIP3    H179195   5.873   4.777  14.461 -0.4863  1.0749 -3.8395
19260TIP3    H279196   5.772   4.667  14.438 -0.8380  1.2593 -3.2005
19261TIP3   OH279197   3.492   4.536  11.814 -0.4484 -0.0836 -0.1403
19261TIP3    H179198   3.412   4.586  11.829  0.1781  0.8429  0.2314
19261TIP3    H279199   3.538   4.540  11.898  0.1620 -0.2722 -0.4636
19262TIP3   OH279200   2.816   6.103  16.121 -0.6731  0.2617 -0.0213
19262TIP3    H179201   2.889   6.069  16.172 -0.2569  1.4248  0.1836
19262TIP3    H279202   2.745   6.042  16.137 -0.1084 -0.2057  0.7536
19263TIP3   OH279203   3.517   6.760  15.379 -0.3492  0.1027  0.3302
19263TIP3    H179204   3.548   6.671  15.365 -2.0737 -0.6211  0.8324
19263TIP3    H279205   3.568   6.793  15.453  0.0404 -0.5979  0.3752
19264TIP3   OH279206   1.023   1.774   2.578  0.7550  0.3173  0.2780
19264TIP3    H179207   1.058   1.792   2.665 -2.0711  0.7823  1.4286
19264TIP3    H279208   0.982   1.857   2.551  0.1396 -0.3016 -0.7500
19265TIP3   OH279209   6.383   0.302  15.389  0.5303 -0.5061  0.2194
19265TIP3    H179210   6.360   0.299  15.296 -0.7859 -0.6627  0.5189
19265TIP3    H279211   6.456   0.241  15.398  0.8790 -0.2530 -0.7547
19266TIP3   OH279212   5.390   1.415   4.292 -0.0800  0.3089  0.0780
19266TIP3    H179213   5.425   1.333   4.327  0.0065  0.1546 -0.3711
19266TIP3    H279214   5.463   1.456   4.246  0.1562  1.1280  1.1423
19267TIP3   OH279215   1.962   6.234   4.789 -0.1147 -0.2254  0.3183
19267TIP3    H179216   1.915   6.265   4.711  1.8182 -1.7227 -1.5641
19267TIP3    H279217   1.896   6.186   4.839 -0.9092 -1.2677 -1.6179
19268TIP3   OH279218   6.489   4.763   5.549 -0.1530 -0.1909 -0.4201
19268TIP3    H179219   6.446   4.678   5.552  2.1176 -1.4958 -2.0165
19268TIP3    H279220   6.507   4.778   5.456 -0.2927  1.9469 -0.1523
19269TIP3   OH279221   3.869   5.973  15.080  0.1879 -0.2203 -0.9946
19269TIP3    H179222   3.913   6.047  15.122  3.0944 -2.4008  0.0653
19269TIP3    H279223   3.880   5.990  14.986 -0.5245  1.3765 -0.8303
19270TIP3   OH279224   0.130   5.817  12.196 -0.2802  0.3343  0.2131
19270TIP3    H179225   0.134   5.845  12.105 -1.0804  0.1285  0.1079
19270TIP3    H279226   0.040   5.787  12.208 -0.0210 -0.1976  0.9084
19271TIP3   OH279227   4.772   0.835   3.877 -0.1582 -0.4366  0.0122
19271TIP3    H179228   4.704   0.886   3.920 -0.3925 -1.6178  1.1036
19271TIP3    H279229   4.745   0.830   3.786 -2.5271 -2.4032  0.7399
19272TIP3   OH279230   4.464   2.494  15.963  0.6404 -0.0943 -0.1060
19272TIP3    H179231   4.444   2.561  15.898 -0.6953 -1.0418 -0.7224
19272TIP3    H279232   4.442   2.534  16.047  1.5436  0.8314 -0.2890
19273TIP3   OH279233   4.023   0.030  16.623 -0.1865 -0.0611 -0.1416
19273TIP3    H179234   4.087  -0.040  16.639 -0.2639  0.2568  1.7891
19273TIP3    H279235   4.077   0.109  16.611 -0.1439 -0.2361 -1.1999
19274TIP3   OH279236   3.662   4.422   2.854 -0.1315 -0.2893  0.5481
19274TIP3    H179237   3.732   4.405   2.791  1.3156 -0.2370  2.0751
19274TIP3    H279238   3.627   4.507   2.828  0.3553 -0.3244 -0.2582
19275TIP3   OH279239   5.037   5.867  11.585  0.0419  0.1136 -0.4693
19275TIP3    H179240   5.065   5.958  11.582  2.3510 -0.5247  0.0771
19275TIP3    H279241   5.034   5.840  11.493  0.7282  0.3663 -0.5743
19276TIP3   OH279242   0.820   5.660  12.805 -0.1597  0.3780 -0.2518
19276TIP3    H179243   0.768   5.583  12.829 -0.1424 -0.8922 -3.6860
19276TIP3    H279244   0.836   5.706  12.888  1.5476 -4.3241  2.4182
19277TIP3   OH279245   2.375   2.996   4.781 -0.0428 -0.1950  0.0078
19277TIP3    H179246   2.453   3.000   4.837  1.3863  0.4324 -1.8966
19277TIP3    H279247   2.323   3.071   4.808  1.3823  1.0274 -0.4822
19278TIP3   OH279248   3.580   3.437   3.767  0.2449  0.2740  0.2724
19278TIP3    H179249   3.602   3.528   3.788 -0.2330  0.6113 -0.6539
19278TIP3    H279250   3.660   3.401   3.730  0.5114  0.2386  0.8731
19279TIP3   OH279251   6.402   3.437  12.807  0.1683  0.7159 -0.2277
19279TIP3    H179252   6.478   3.395  12.848  2.2339  2.1352 -2.3812
19279TIP3    H279253   6.411   3.529  12.829 -1.9082  0.7277  0.8241
19280TIP3   OH279254   0.377   4.403   5.161  0.0398  0.4314 -0.3339
19280TIP3    H179255   0.396   4.467   5.092 -0.9944  0.3479 -0.7174
19280TIP3    H279256   0.391   4.318   5.119  2.3788  0.3563  0.4536
19281TIP3   OH279257   0.713   5.949  13.978  0.7351  0.0785 -0.0982
19281TIP3    H179258   0.712   6.040  14.007  2.2189  0.5702 -1.4503
19281TIP3    H279259   0.683   5.899  14.054 -0.2378  1.6939  0.6191
19282TIP3   OH279260   5.872   0.362   4.604  0.5947 -0.1184 -0.2284
19282TIP3    H179261   5.883   0.344   4.510 -0.7718 -1.2485 -0.2066
19282TIP3    H279262   5.918   0.291   4.647 -0.9726 -1.1005 -0.0973
19283TIP3   OH279263   5.131   2.445  16.537  0.1500 -0.2005 -0.2981
19283TIP3    H179264   5.140   2.534  16.502  1.8198 -0.6882 -1.2342
19283TIP3    H279265   5.115   2.391  16.460  1.2589 -0.9644 -0.0187
19284TIP3   OH279266   2.982   6.178   6.061 -0.0942 -0.1749 -0.0696
19284TIP3    H179267   3.071   6.143   6.072  0.1680  0.3669 -0.4538
19284TIP3    H279268   2.949   6.135   5.982 -1.3086 -2.6751  1.6418
19285TIP3   OH279269   3.356   4.492   5.565  0.4870  0.3437  0.2646
19285TIP3    H179270   3.348   4.404   5.528 -0.5761 -0.0219  1.3202
19285TIP3    H279271   3.427   4.532   5.515  1.0198 -1.1238 -0.2050
19286TIP3   OH279272   2.019   5.772  12.129 -0.3258 -0.1705  0.4014
19286TIP3    H179273   2.102   5.817  12.112  0.2062 -0.9199  0.9382
19286TIP3    H279274   2.030   5.734  12.217 -0.6092 -1.6428 -0.1683
19287TIP3   OH279275   1.135   0.557  11.156 -0.3566  0.1304  0.7424
19287TIP3    H179276   1.049   0.522  11.135 -0.2935 -0.1860  0.9892
19287TIP3    H279277   1.172   0.583  11.072  0.1841 -1.7880  0.3217
19288TIP3   OH279278   0.221   3.954   0.014  0.1850 -0.6663  0.1878
19288TIP3    H179279   0.248   3.869  -0.022  0.7026 -0.0267 -0.9548
19288TIP3    H279280   0.132   3.938   0.048  0.5880 -1.8651  0.7540
19289TIP3   OH279281   5.165   5.570   1.252  0.0096 -0.0277 -0.0373
19289TIP3    H179282   5.182   5.580   1.346  1.2061  0.4839 -0.2862
19289TIP3    H279283   5.073   5.593   1.241 -0.0659  0.1853  0.9627
19290TIP3   OH279284   3.177   5.223  11.341 -0.1148 -0.6885 -0.1165
19290TIP3    H179285   3.086   5.202  11.320 -1.1835  2.3182  1.0557
19290TIP3    H279286   3.196   5.171  11.419 -1.0878 -0.7574  0.0869
19291TIP3   OH279287   0.963   2.299   5.659 -0.4807 -0.0403 -0.1504
19291TIP3    H179288   0.921   2.256   5.733  0.4844 -1.7537 -0.5382
19291TIP3    H279289   1.045   2.333   5.695  0.7514 -2.2499 -0.6789
19292TIP3   OH279290   3.843   0.146   4.794  0.4118 -0.1176  0.0828
19292TIP3    H179291   3.929   0.159   4.755  0.0028 -0.6421 -1.0224
19292TIP3    H279292   3.782   0.188   4.733 -0.0996  0.6158  1.0566
19293TIP3   OH279293   2.729   3.496  10.480 -0.7654  0.3817 -0.5509
19293TIP3    H179294   2.650   3.545  10.505 -1.4220  0.1892 -2.1277
19293TIP3    H279295   2.779   3.556  10.426  0.3238  0.5878  0.6623
19294TIP3   OH279296   5.734   4.757   5.087 -0.4891 -0.3336  0.2334
19294TIP3    H179297   5.730   4.662   5.084 -1.8355 -0.3938  1.9808
19294TIP3    H279298   5.794   4.776   5.159  0.4451  0.1886 -0.6495
19295TIP3   OH279299   0.382   4.450  13.256 -0.1201  0.0118  0.6717
19295TIP3    H179300   0.370   4.437  13.162  1.2014  1.9529  0.1609
19295TIP3    H279301   0.355   4.367  13.295  0.5913 -1.3590 -1.5280
19296TIP3   OH279302   1.091   6.090   4.203  0.3425  0.1628  0.3565
19296TIP3    H179303   1.138   6.085   4.120  0.3793 -0.0431  0.3905
19296TIP3    H279304   0.999   6.101   4.178  0.5655  2.4000  0.2680
19297TIP3   OH279305   5.220   3.632  11.613  0.7983  0.3897  0.1264
19297TIP3    H179306   5.208   3.692  11.686  0.6116  1.4763 -0.7780
19297TIP3    H279307   5.315   3.629  11.600  0.7987  0.6092  0.0751
19298TIP3   OH279308   3.053   0.177   1.483 -0.0669  0.2891 -0.1312
19298TIP3    H179309   3.097   0.249   1.527 -0.4512  1.1843 -1.1623
19298TIP3    H279310   2.992   0.142   1.548  0.5717  0.4661  0.5799
19299TIP3   OH279311   1.851   5.015   3.578 -0.4564  0.0303 -0.2006
19299TIP3    H179312   1.929   4.962   3.595 -0.7479  0.5102  3.2409
19299TIP3    H279313   1.873   5.065   3.500  2.3391 -0.4824  0.1530
19300TIP3   OH279314   5.842   4.488   0.051  0.5529 -0.0228 -0.1578
19300TIP3    H179315   5.754   4.471   0.016  0.1064 -0.5948  1.1726
19300TIP3    H279316   5.865   4.574   0.017 -0.7575  0.3734 -0.0992
19301TIP3   OH279317   2.367   1.703  13.582  0.1456 -0.1215  0.1400
19301TIP3    H179318   2.357   1.700  13.487  0.7648  1.7776 -0.0151
19301TIP3    H279319   2.277   1.697  13.616 -0.0333 -1.4023 -0.5174
19302TIP3   OH279320   4.228   4.749  14.273 -0.1020  0.0426  0.1611
19302TIP3    H179321   4.261   4.796  14.350 -0.3130  0.0557  0.2421
19302TIP3    H279322   4.190   4.818  14.218 -1.0854 -0.1212  0.6205
19303TIP3   OH279323   5.573   3.410   2.017  0.6099 -0.3077  0.5500
19303TIP3    H179324   5.617   3.349   2.077  1.2501  1.2110  1.6935
19303TIP3    H279325   5.543   3.481   2.073  1.3418  1.2326 -0.9196
19304TIP3   OH279326   6.174   0.609   5.773  0.0245  0.0616  0.1336
19304TIP3    H179327   6.086   0.592   5.807  0.5040  0.1355  1.4638
19304TIP3    H279328   6.212   0.670   5.836  0.5890  1.0602 -1.1192
19305TIP3   OH279329   4.438   2.554  17.053 -0.1293 -0.0249  0.4574
19305TIP3    H179330   4.473   2.467  17.033 -0.2026  0.0360  0.0421
19305TIP3    H279331   4.365   2.564  16.991 -0.5932  0.0317  1.0053
19306TIP3   OH279332   5.015   4.941  14.364 -0.2239 -0.5136 -0.1927
19306TIP3    H179333   5.006   4.975  14.275 -0.9837 -1.5215 -0.5247
19306TIP3    H279334   4.925   4.937  14.397 -0.2936 -3.0630 -0.5317
19307TIP3   OH279335   2.005   6.765   2.027  0.2041  0.3455 -0.1949
19307TIP3    H179336   1.963   6.679   2.040  2.2196 -0.7769 -0.6026
19307TIP3    H279337   1.968   6.798   1.945 -0.2847 -0.3452 -0.2609
19308TIP3   OH279338   2.778   5.025  15.830 -0.3046  0.0790 -0.1997
19308TIP3    H179339   2.696   4.993  15.793  0.6873 -1.9461 -0.7761
19308TIP3    H279340   2.844   4.959  15.805  1.2739  1.0039  1.2588
19309TIP3   OH279341   6.013   5.726   1.221  0.0867 -0.1148  0.1336
19309TIP3    H179342   5.942   5.769   1.270 -0.8060 -0.7765 -0.5387
19309TIP3    H279343   5.999   5.753   1.130  0.6796 -0.2912 -0.0146
19310TIP3   OH279344   2.653   0.191  14.585 -0.3512  0.0915 -0.5712
19310TIP3    H179345   2.743   0.182  14.616  0.1068  1.0347 -1.5596
19310TIP3    H279346   2.642   0.120  14.522 -0.2131  0.1297 -0.6388
19311TIP3   OH279347   2.596   3.179   3.899 -0.1301 -0.5977 -0.1919
19311TIP3    H179348   2.557   3.095   3.873 -1.2586  0.2190 -1.1964
19311TIP3    H279349   2.581   3.237   3.825  0.6369  0.5147  0.4912
19312TIP3   OH279350   2.766   2.282   5.659  0.7363 -0.3536  0.0276
19312TIP3    H179351   2.680   2.260   5.623 -0.0326  0.6646  1.1414
19312TIP3    H279352   2.752   2.364   5.705  2.6735  0.6023 -0.9848
19313TIP3   OH279353   3.475   3.681   3.816  0.1591 -0.3264 -0.4571
19313TIP3    H179354   3.388   3.707   3.848  0.8058  0.8202  0.4369
19313TIP3    H279355   3.516   3.763   3.788  2.6150 -0.0665  3.2496
19314TIP3   OH279356   1.471   5.436   1.292  0.0300  0.3356  0.2278
19314TIP3    H179357   1.437   5.526   1.297 -1.6249 -0.1966 -0.5393
19314TIP3    H279358   1.398   5.382   1.323  0.8039 -0.7872  0.1344
19315TIP3   OH279359   5.682   6.136   0.509 -0.2575  0.1016 -0.1457
19315TIP3    H179360   5.764   6.140   0.460  0.3890 -1.3968  0.7598
19315TIP3    H279361   5.706   6.100   0.594 -1.9102 -0.7026  0.0190
19316TIP3   OH279362   2.209   1.812   2.561 -0.0346  0.0166  0.2581
19316TIP3    H179363   2.232   1.726   2.525 -1.6565  0.0681 -1.0296
19316TIP3    H279364   2.255   1.816   2.645  2.0433 -1.0733 -0.7602
19317TIP3   OH279365   5.065   4.610   4.618 -0.5041  0.8134 -0.7104
19317TIP3    H179366   5.070   4.526   4.664 -2.0183  1.3428  0.5280
19317TIP3    H279367   5.078   4.588   4.526 -1.4586 -0.8678 -0.4805
19318TIP3   OH279368   4.675   1.681  12.463  0.6359  0.0360 -0.5552
19318TIP3    H179369   4.696   1.700  12.555  2.1499  1.5429 -1.1644
19318TIP3    H279370   4.590   1.721  12.449  1.1339  1.2466 -0.2203
19319TIP3   OH279371   2.434   3.339  11.829  0.3391 -0.0956 -0.0811
19319TIP3    H179372   2.413   3.290  11.908 -1.0922  2.3721  1.1946
19319TIP3    H279373   2.464   3.424  11.861  0.6278  0.6608 -2.1917
19320TIP3   OH279374   5.772   1.465   3.348  0.1710  0.7074 -0.2078
19320TIP3    H179375   5.746   1.552   3.381  0.0835  1.1887 -1.5065
19320TIP3    H279376   5.820   1.484   3.268 -0.2327 -0.4821 -0.7410
19321TIP3   OH279377   5.773   4.977  11.826  0.6880  0.1662  0.7944
19321TIP3    H179378   5.849   4.955  11.772  0.6129  0.1016  0.7163
19321TIP3    H279379   5.809   5.031  11.897  0.8463 -0.0668  0.8939
19322TIP3   OH279380   4.767   2.985  11.675 -0.4147  0.0377  0.3966
19322TIP3    H179381   4.743   3.001  11.584  0.6060 -0.3203  0.0464
19322TIP3    H279382   4.730   3.058  11.723 -0.2555  0.6715 -0.4220
19323TIP3   OH279383   3.655   0.269  16.682 -0.4305 -0.5794  0.1227
19323TIP3    H179384   3.630   0.181  16.656  1.1504 -1.3937  1.1666
19323TIP3    H279385   3.576   0.308  16.719 -0.7946 -2.1498  1.0876
19324TIP3   OH279386   3.521   3.746   5.311  0.1384 -0.2235  0.3703
19324TIP3    H179387   3.427   3.761   5.299 -0.2751  0.5403  3.7696
19324TIP3    H279388   3.563   3.819   5.266 -0.8654 -0.3565 -0.8427
19325TIP3   OH279389   2.500   4.769  11.506  0.0866 -0.0165  0.6343
19325TIP3    H179390   2.592   4.766  11.482 -0.2397 -1.3719 -0.6323
19325TIP3    H279391   2.470   4.678  11.497 -1.7183  0.6251 -0.5101
19326TIP3   OH279392   4.483   0.530  11.881 -0.6447 -0.9246  0.5018
19326TIP3    H179393   4.516   0.590  11.948 -0.4297 -0.8813  0.3591
19326TIP3    H279394   4.522   0.561  11.799 -3.1168  0.7846 -0.1427
19327TIP3   OH279395   5.445   0.173   4.265  0.0592 -0.1543 -0.1350
19327TIP3    H179396   5.422   0.146   4.176 -0.6749 -0.5636  0.1710
19327TIP3    H279397   5.455   0.090   4.313 -1.0788  0.0828  0.5392
19328TIP3   OH279398   5.962   4.964  14.953 -0.2130  0.4312 -0.1723
19328TIP3    H179399   5.938   5.042  15.002 -0.5950  0.4674 -0.4076
19328TIP3    H279400   6.057   4.958  14.960 -0.1496  1.1071 -0.4446
19329TIP3   OH279401   3.845   4.993   5.730  0.1698 -0.4619 -0.7931
19329TIP3    H179402   3.878   4.914   5.774  1.1684  0.1815 -0.3375
19329TIP3    H279403   3.894   4.996   5.648 -0.6907 -0.9099 -1.3399
19330TIP3   OH279404   4.859   3.255   4.312 -0.0188 -0.2293  0.2715
19330TIP3    H179405   4.891   3.171   4.281 -0.9286 -0.1504 -0.9994
19330TIP3    H279406   4.766   3.255   4.288 -0.7293  0.0035  2.7880
19331TIP3   OH279407   2.030   0.200  16.562 -1.0006  0.2346  0.3671
19331TIP3    H179408   2.051   0.118  16.516 -1.8309  0.5419 -0.5904
19331TIP3    H279409   2.115   0.243  16.573 -0.5555 -0.7412  0.8597
19332TIP3   OH279410   2.282   2.348   2.645  0.0389  0.1781  0.1129
19332TIP3    H179411   2.280   2.271   2.588 -0.8826 -0.6245  1.1844
19332TIP3    H279412   2.356   2.333   2.704 -0.3687 -0.0845  0.5659
19333TIP3   OH279413   2.984   6.115  12.180 -0.0910 -0.6109  0.1770
19333TIP3    H179414   2.946   6.165  12.108 -0.7796  0.4457  1.2203
19333TIP3    H279415   2.973   6.023  12.155 -2.2255 -0.3111 -0.1425
19334TIP3   OH279416   5.660   4.064   4.976  0.1249 -0.1849  0.1786
19334TIP3    H179417   5.581   4.073   4.924  0.0624  0.1874  0.3375
19334TIP3    H279418   5.635   4.008   5.049  0.0644 -0.2378  0.1177
19335TIP3   OH279419   5.781   4.822  11.284 -0.1460  0.4951 -0.1275
19335TIP3    H179420   5.711   4.761  11.306 -0.1257  0.3866 -0.3631
19335TIP3    H279421   5.846   4.769  11.238 -0.0176  0.6445 -0.1207
19336TIP3   OH279422   5.974   1.998  11.606 -0.2791  0.6220 -0.4058
19336TIP3    H179423   6.010   2.072  11.558  2.5762 -1.0166 -1.0407
19336TIP3    H279424   5.978   2.025  11.698 -2.1291  2.3065 -0.7519
19337TIP3   OH279425   2.597   4.702  16.279 -0.3226 -0.7751  0.1132
19337TIP3    H179426   2.634   4.671  16.362 -0.7390 -1.1702  0.1580
19337TIP3    H279427   2.671   4.742  16.233 -0.4805  1.3295  1.5378
19338TIP3   OH279428   5.015   5.547  17.098 -0.2059 -0.1487 -0.1158
19338TIP3    H179429   4.929   5.588  17.112  0.3482  0.9623  0.1595
19338TIP3    H279430   5.026   5.547  17.003 -0.5597 -0.4233 -0.1618
19339TIP3   OH279431   1.250   4.110  16.103 -0.5472  0.2717 -0.3388
19339TIP3    H179432   1.263   4.136  16.195 -0.5964  1.0074 -0.5331
19339TIP3    H279433   1.335   4.121  16.062 -0.7451  0.8598 -0.5982
19340TIP3   OH279434   1.274   5.809  12.347 -0.5200  0.5408 -0.1634
19340TIP3    H179435   1.206   5.856  12.299 -0.3683  1.9760  0.9458
19340TIP3    H279436   1.336   5.780  12.280 -1.7623 -0.0554 -1.1014
19341TIP3   OH279437   3.102   2.117  16.617 -0.4281 -0.4027 -0.2762
19341TIP3    H179438   3.108   2.212  16.618 -0.7172 -0.3375 -1.9320
19341TIP3    H279439   3.009   2.099  16.624 -0.3293 -0.6008  0.6590
19342TIP3   OH279440   0.721   2.179   5.081  0.3948  0.4333  0.2811
19342TIP3    H179441   0.626   2.175   5.072  0.4059  1.2621 -0.4467
19342TIP3    H279442   0.753   2.105   5.030  0.2219  2.0993 -2.5003
19343TIP3   OH279443   4.808   0.976   6.670  0.2293 -0.9810  0.5102
19343TIP3    H179444   4.861   0.896   6.669  1.0480 -0.4748 -1.3587
19343TIP3    H279445   4.869   1.046   6.646 -0.6812  0.0806  1.1491
19344TIP3   OH279446   2.773   3.181  13.386  0.0787 -0.6006 -0.2972
19344TIP3    H179447   2.851   3.150  13.433 -0.6224  0.0279  1.3691
19344TIP3    H279448   2.718   3.103  13.378  1.2457 -1.2892 -2.3974
19345TIP3   OH279449   5.042   6.761   1.351  0.0181  0.1865  0.0242
19345TIP3    H179450   5.065   6.846   1.388 -0.4897 -0.2211  1.3286
19345TIP3    H279451   5.122   6.709   1.358 -0.8098 -0.8847  3.5583
19346TIP3   OH279452   5.941   2.953  16.399  0.2180  0.2656  0.7891
19346TIP3    H179453   6.002   2.893  16.355 -3.0535 -2.9163  0.0959
19346TIP3    H279454   5.939   3.031  16.343  1.1370 -0.9361 -1.0197
19347TIP3   OH279455   6.147   6.739  13.248 -0.0647 -0.5029 -0.2243
19347TIP3    H179456   6.055   6.724  13.270 -0.0463  1.1947  1.1658
19347TIP3    H279457   6.151   6.831  13.223  0.8674 -1.1231 -2.6674
19348TIP3   OH279458   6.476   4.419   1.808 -0.1060 -0.3206  0.3630
19348TIP3    H179459   6.509   4.455   1.891  0.4854  2.3877 -0.9191
19348TIP3    H279460   6.396   4.373   1.832  1.2570 -1.6393  2.7197
19349TIP3   OH279461   1.417   4.213  14.517 -0.3702  0.0923  0.5909
19349TIP3    H179462   1.425   4.237  14.609  1.2959  0.7038  0.3133
19349TIP3    H279463   1.419   4.117  14.517 -2.3557 -0.0010  1.3112
19350TIP3   OH279464   1.097   2.346   4.656 -0.2565 -0.0914  0.1442
19350TIP3    H179465   1.051   2.298   4.725  0.0299 -0.3547  0.1574
19350TIP3    H279466   1.151   2.410   4.703 -1.3518  0.9082  0.0908
19351TIP3   OH279467   5.905   5.540   4.756 -0.0592  0.1412 -0.3806
19351TIP3    H179468   5.934   5.524   4.846 -0.7158 -1.4386 -0.4341
19351TIP3    H279469   5.937   5.465   4.706 -0.8760  0.3242 -1.2000
19352TIP3   OH279470   0.501   0.933  10.835  0.1088 -0.2446 -0.2819
19352TIP3    H179471   0.448   0.901  10.762 -0.9847  1.0098 -0.0823
19352TIP3    H279472   0.452   1.008  10.869  0.4328 -0.9653  1.9353
19353TIP3   OH279473   6.625   3.303  14.672  0.8073  0.7122 -0.3814
19353TIP3    H179474   6.544   3.281  14.627  0.5806  1.6067 -0.4287
19353TIP3    H279475   6.685   3.330  14.602  0.1462  3.0671 -0.1306
19354TIP3   OH279476   4.094   4.319  13.966  0.4908  0.0375  0.1259
19354TIP3    H179477   4.143   4.238  13.979  2.5675  1.3492  0.7908
19354TIP3    H279478   4.018   4.310  14.023  0.7459 -1.3787  0.2754
19355TIP3   OH279479   3.073   5.064  16.858 -0.2400  0.2611  0.0297
19355TIP3    H179480   3.088   5.154  16.885 -0.5453  0.0681  0.9025
19355TIP3    H279481   3.086   5.012  16.938 -0.2626 -0.4441 -0.4099
19356TIP3   OH279482   3.672   3.705  15.392  0.3497 -0.0611 -0.5928
19356TIP3    H179483   3.666   3.787  15.344 -0.1420  1.2828  1.6386
19356TIP3    H279484   3.583   3.688  15.423  1.2342  1.4700  3.3821
19357TIP3   OH279485   5.721   6.271   1.098 -0.2398  1.0179  0.1518
19357TIP3    H179486   5.783   6.319   1.043  0.7519 -1.0415 -0.6014
19357TIP3    H279487   5.771   6.198   1.134 -2.4861 -1.6151 -1.6526
19358TIP3   OH279488   6.615   3.881   2.183  0.2633  0.2270  0.2800
19358TIP3    H179489   6.568   3.877   2.266  1.1146 -1.2719  0.7359
19358TIP3    H279490   6.677   3.953   2.193  2.1249 -1.4863  1.9843
19359TIP3   OH279491   4.536   0.032  14.990 -0.0601  0.5912 -0.6665
19359TIP3    H179492   4.553   0.043  15.083  0.0484 -0.5515 -0.5293
19359TIP3    H279493   4.445   0.003  14.985  0.3438 -0.7328 -0.7839
19360TIP3   OH279494   3.505   0.226   5.668 -0.0835  0.0029  0.6254
19360TIP3    H179495   3.541   0.155   5.721  1.1060 -0.9270 -1.2984
19360TIP3    H279496   3.581   0.262   5.622 -1.2921 -0.8039 -2.1979
19361TIP3   OH279497   3.136   6.016   4.096  0.5634 -0.1058 -0.3764
19361TIP3    H179498   3.149   5.996   4.189  0.9281  1.2852 -0.0969
19361TIP3    H279499   3.223   6.010   4.058  0.7513  1.1613 -0.2114
19362TIP3   OH279500   1.299   2.351  12.602 -0.4750  0.3655  0.3841
19362TIP3    H179501   1.232   2.418  12.586  0.0216  0.6473 -0.5741
19362TIP3    H279502   1.372   2.375  12.546  0.9650  0.7712  2.3171
19363TIP3   OH279503   1.983   3.541  17.233  0.6508 -0.1460  0.4121
19363TIP3    H179504   1.936   3.523  17.315  1.5767 -1.8433  0.6298
19363TIP3    H279505   2.056   3.597  17.259  0.1501  0.4864  0.4855
19364TIP3   OH279506   1.328   0.388  15.974 -0.2086  0.4673  0.0342
19364TIP3    H179507   1.235   0.399  15.952 -0.3048 -0.6700 -0.1615
19364TIP3    H279508   1.374   0.404  15.891 -0.1852  1.4093  0.2141
19365TIP3   OH279509   5.586   4.257  13.718  0.1935  0.6243 -0.5256
19365TIP3    H179510   5.636   4.220  13.645  0.0961  0.4256 -0.4944
19365TIP3    H279511   5.519   4.191  13.736  0.1762  0.7032 -0.2995
19366TIP3   OH279512   3.130   0.175   4.903 -0.1131 -0.2020 -0.4269
19366TIP3    H179513   3.123   0.245   4.967  0.3328  0.5497 -1.1768
19366TIP3    H279514   3.145   0.096   4.955  1.6716  0.5914  0.3511
19367TIP3   OH279515   4.265   0.812  17.024  0.0486 -0.1259  0.2053
19367TIP3    H179516   4.342   0.764  17.054 -0.1489 -0.5193  0.0992
19367TIP3    H279517   4.299   0.876  16.961  0.2280 -0.6789 -0.2707
19368TIP3   OH279518   2.457   3.399  14.112 -0.0164 -0.5385  0.2427
19368TIP3    H179519   2.373   3.368  14.077 -0.0022  1.4835 -1.8693
19368TIP3    H279520   2.436   3.430  14.200 -0.9760 -2.0563  0.5951
19369TIP3   OH279521   0.091   1.603  15.622  0.2483  0.5234 -0.2769
19369TIP3    H179522   0.164   1.541  15.622 -0.5345 -0.4387 -0.2794
19369TIP3    H279523   0.114   1.667  15.689  0.7314 -0.2237  0.3002
19370TIP3   OH279524   3.219   6.082  13.150 -0.6276  0.2258 -0.1952
19370TIP3    H179525   3.276   6.159  13.158  0.0552 -0.1817 -1.0377
19370TIP3    H279526   3.262   6.015  13.202 -0.6656  0.0935 -0.3344
19371TIP3   OH279527   6.249   6.583  14.332 -0.4299 -0.3975 -0.3643
19371TIP3    H179528   6.217   6.568  14.243  0.1348  0.4365 -0.7205
19371TIP3    H279529   6.170   6.585  14.387 -0.7047 -2.0985 -0.6496
19372TIP3   OH279530   4.404   3.315  12.911  0.2009 -0.6352  0.0076
19372TIP3    H179531   4.442   3.349  12.830  0.9186  0.8262  0.9337
19372TIP3    H279532   4.461   3.243  12.937  1.3239  0.3911  0.4330
19373TIP3   OH279533   6.645   2.226   3.095  0.1870 -0.1541  0.1341
19373TIP3    H179534   6.651   2.258   3.005 -0.3377 -0.9993 -0.2126
19373TIP3    H279535   6.695   2.145   3.096  0.8218  0.2267  0.8073
19374TIP3   OH279536   3.622   6.443  13.240 -0.0841  0.7119  0.3880
19374TIP3    H179537   3.542   6.405  13.276 -1.1906  0.2666 -2.3206
19374TIP3    H279538   3.592   6.515  13.185  1.3007  0.2450 -1.0555
19375TIP3   OH279539   5.524   2.931   2.418  0.2556  0.0551 -0.4398
19375TIP3    H179540   5.517   2.894   2.330  0.4420 -0.9859 -0.0339
19375TIP3    H279541   5.434   2.938   2.448  0.1067  1.5616 -1.1521
19376TIP3   OH279542   5.362   0.592  14.033  0.0107 -0.2204  0.2789
19376TIP3    H179543   5.386   0.573  13.942  0.6827 -1.0988  0.6226
19376TIP3    H279544   5.268   0.576  14.037 -0.1146  0.3003 -0.3717
19377TIP3   OH279545   4.363   3.920  16.665 -0.2596 -0.7168 -0.1426
19377TIP3    H179546   4.339   3.975  16.740  0.4138 -0.4082 -0.1438
19377TIP3    H279547   4.372   3.982  16.593  1.1286 -0.7187 -0.0059
19378TIP3   OH279548   1.126   1.210   4.875 -0.2252 -0.2345  0.0014
19378TIP3    H179549   1.041   1.185   4.838 -0.5257 -0.6789  0.9555
19378TIP3    H279550   1.170   1.127   4.891 -0.0805 -0.0462  0.5796
19379TIP3   OH279551   3.647   5.305   1.736  0.2042 -0.1459 -0.1052
19379TIP3    H179552   3.565   5.269   1.701 -0.2086 -1.5374  2.1051
19379TIP3    H279553   3.711   5.288   1.667 -0.7970 -1.7199 -0.7190
19380TIP3   OH279554   2.808   2.119  11.275  0.3875  0.1238 -0.2813
19380TIP3    H179555   2.844   2.031  11.279  0.0369 -0.0121 -0.1029
19380TIP3    H279556   2.744   2.123  11.346  0.6717  0.6456 -0.0458
19381TIP3   OH279557   6.455   2.953  16.388 -0.6247  0.6723  0.2336
19381TIP3    H179558   6.412   3.024  16.340 -0.9567 -1.0228 -2.1598
19381TIP3    H279559   6.391   2.882  16.387  0.1742 -0.0913  1.4398
19382TIP3   OH279560   2.311   1.419   4.153  0.0467  0.8726  0.6345
19382TIP3    H179561   2.372   1.408   4.226  0.3823 -0.3750  0.1919
19382TIP3    H279562   2.247   1.483   4.185  0.6629  0.9900  1.6980
19383TIP3   OH279563   1.676   4.335  11.429 -0.4771 -0.1171 -0.9144
19383TIP3    H179564   1.616   4.261  11.419  1.8435 -2.4697  1.2683
19383TIP3    H279565   1.753   4.311  11.377 -0.0562  1.2791 -0.9918
19384TIP3   OH279566   3.954   0.064  11.342 -0.0064 -0.3824 -0.5133
19384TIP3    H179567   3.870   0.087  11.301  0.2568  0.5984 -0.5152
19384TIP3    H279568   4.020   0.107  11.288  0.4785 -0.7889 -0.2559
19385TIP3   OH279569   5.994   0.224  15.988  0.2788 -0.1122  0.0410
19385TIP3    H179570   6.088   0.238  15.978  0.0559  0.4768 -1.5841
19385TIP3    H279571   5.969   0.175  15.910 -0.6333 -1.0058  0.8688
19386TIP3   OH279572   3.855   3.102   2.530 -0.4615  0.5229 -0.2039
19386TIP3    H179573   3.795   3.146   2.470  0.5912  0.5309 -1.2939
19386TIP3    H279574   3.866   3.014   2.494  0.5178  0.6645 -0.2854
19387TIP3   OH279575   0.632   5.479   5.783  0.0837  0.0516  0.0405
19387TIP3    H179576   0.548   5.507   5.819 -1.0938 -1.8129 -1.0879
19387TIP3    H279577   0.630   5.506   5.691  0.3418 -0.7177 -0.2070
19388TIP3   OH279578   3.036   4.181   1.514 -0.0682  0.1030 -0.2456
19388TIP3    H179579   3.025   4.275   1.529 -0.3574  0.0593 -0.1738
19388TIP3    H279580   3.078   4.175   1.428  0.1813  0.3053 -0.1380
19389TIP3   OH279581   0.715   3.449   4.274 -0.4660 -0.2850  0.5196
19389TIP3    H179582   0.646   3.508   4.307 -0.6954 -0.2413 -0.0208
19389TIP3    H279583   0.788   3.507   4.253 -0.9090 -0.0955 -0.5915
19390TIP3   OH279584   1.907   0.089  13.718 -0.4179  0.1067  0.1036
19390TIP3    H179585   1.861   0.114  13.798 -1.3846  1.5828 -0.8466
19390TIP3    H279586   1.841   0.046  13.664 -0.2627  0.7157 -0.5933
19391TIP3   OH279587   0.438   1.859   1.958  0.0962  0.0028 -0.6737
19391TIP3    H179588   0.347   1.842   1.985  0.3112  0.9743  0.8309
19391TIP3    H279589   0.476   1.772   1.946 -0.3975 -0.4882  1.0220
19392TIP3   OH279590   5.409   6.032   5.826  0.3123 -0.4344  0.8056
19392TIP3    H179591   5.351   5.972   5.871 -0.5977  0.6562  1.1376
19392TIP3    H279592   5.405   6.113   5.877  0.2666  0.4144 -0.4758
19393TIP3   OH279593   2.773   0.995  16.169  0.4342 -0.2755  0.6721
19393TIP3    H179594   2.751   0.947  16.089 -2.9038  0.6169  0.8743
19393TIP3    H279595   2.868   1.005  16.166  0.4447  0.3755 -3.5920
19394TIP3   OH279596   1.630   3.198  16.679  0.0216  0.2840  0.2232
19394TIP3    H179597   1.685   3.204  16.757 -0.0596  0.0101  0.3034
19394TIP3    H279598   1.646   3.280  16.631  1.4292 -0.3106 -0.3767
19395TIP3   OH279599   0.875   2.596   2.702  0.0952  0.0571 -0.2699
19395TIP3    H179600   0.940   2.659   2.673  0.5080  0.6000  1.6695
19395TIP3    H279601   0.824   2.576   2.624  1.3908  1.0528 -1.4218
19396TIP3   OH279602   1.922   1.700  14.430  0.3596  0.5882 -0.2687
19396TIP3    H179603   2.004   1.675  14.471 -0.5314 -0.7979  0.7570
19396TIP3    H279604   1.941   1.702  14.336  1.3858 -0.4200 -0.0973
19397TIP3   OH279605   3.965   4.816   3.914  0.0845 -0.0136  0.0039
19397TIP3    H179606   3.951   4.904   3.877 -1.1037  0.6160  1.8361
19397TIP3    H279607   3.960   4.758   3.838 -1.6366  1.2695 -0.9525
19398TIP3   OH279608   4.173   2.465   3.285 -0.4459 -0.4136 -0.0662
19398TIP3    H179609   4.114   2.433   3.217 -1.0847  1.1279 -0.2775
19398TIP3    H279610   4.114   2.496   3.355  0.1091  0.6260 -0.0353
19399TIP3   OH279611   0.431   0.809  14.624 -0.3082 -0.6957 -0.1620
19399TIP3    H179612   0.474   0.876  14.571 -0.5055 -1.2204 -1.0049
19399TIP3    H279613   0.494   0.789  14.694 -0.0769  0.0580 -0.1461
19400TIP3   OH279614   2.091   5.791  15.507 -0.4125 -0.2296  0.2958
19400TIP3    H179615   2.169   5.830  15.468 -0.4951 -0.6749 -0.3290
19400TIP3    H279616   2.018   5.833  15.462 -0.5128 -0.5325  0.1715
19401TIP3   OH279617   6.131   6.660   2.961 -0.3385  0.5670 -0.6739
19401TIP3    H179618   6.129   6.597   3.033  0.5060  2.7019  1.3532
19401TIP3    H279619   6.060   6.721   2.980 -1.0041  0.4144 -2.4688
19402TIP3   OH279620   1.386   4.180   0.257 -0.2233 -0.1097  0.2909
19402TIP3    H179621   1.391   4.110   0.192  2.2369 -0.5897  0.8984
19402TIP3    H279622   1.367   4.259   0.206  0.9891 -0.5816 -0.9503
19403TIP3   OH279623   1.244   5.095  13.432  0.0552 -0.8691 -0.1604
19403TIP3    H179624   1.290   5.014  13.452 -0.9911 -1.8610 -1.5093
19403TIP3    H279625   1.187   5.072  13.358 -1.6582  0.5954  0.6170
19404TIP3   OH279626   6.601   1.348   0.877 -0.3309  0.3440 -0.6902
19404TIP3    H179627   6.610   1.373   0.969 -0.2080  0.8045 -0.8248
19404TIP3    H279628   6.581   1.254   0.879 -1.4069  0.5736 -0.1477
19405TIP3   OH279629   4.871   3.675  16.377 -0.0318 -0.1056 -0.3687
19405TIP3    H179630   4.829   3.761  16.386 -1.3740 -0.5255 -2.1059
19405TIP3    H279631   4.826   3.620  16.441  0.8504  0.4336  0.7721
19406TIP3   OH279632   2.944   3.638   2.009 -0.4604 -0.4977  0.5428
19406TIP3    H179633   2.947   3.710   2.072 -0.4679  0.2241 -0.2712
19406TIP3    H279634   2.880   3.577   2.047 -1.9220  0.8193  0.3272
19407TIP3   OH279635   5.694   0.504  14.663  0.7314  0.1117 -0.3031
19407TIP3    H179636   5.649   0.574  14.615  1.6846  1.2536  0.4167
19407TIP3    H279637   5.781   0.540  14.682  0.9116 -0.9086  0.9144
19408TIP3   OH279638   5.272   5.101   0.088  0.6674  0.3792 -0.1421
19408TIP3    H179639   5.181   5.078   0.071  0.9675 -0.0700 -1.2091
19408TIP3    H279640   5.267   5.179   0.144 -0.3631  0.2192  0.0037
19409TIP3   OH279641   1.013   6.771   5.758  0.1264  0.3772  0.2428
19409TIP3    H179642   1.063   6.782   5.839 -1.5331 -0.3278  1.4269
19409TIP3    H279643   0.932   6.729   5.786 -0.8630  0.9004 -1.6808
19410TIP3   OH279644   4.292   3.042  15.846 -0.5022 -0.6348 -0.1264
19410TIP3    H179645   4.365   3.034  15.785  0.5297 -0.5344  1.0570
19410TIP3    H279646   4.282   3.136  15.860  1.0158 -0.7050  1.8386
19411TIP3   OH279647   4.073   4.250   3.440 -0.1387 -0.4490  0.5555
19411TIP3    H179648   4.057   4.288   3.526  1.4092  0.2868  0.5676
19411TIP3    H279649   4.148   4.300   3.406 -0.5828 -0.8625 -1.1246
19412TIP3   OH279650   5.510   4.797   3.568 -0.5417  0.2246  0.0847
19412TIP3    H179651   5.543   4.882   3.595  0.7669  0.6183 -2.5337
19412TIP3    H279652   5.560   4.734   3.620 -0.4585  0.9853  0.9477
19413TIP3   OH279653   3.202   4.774   0.638 -0.1710  0.2366 -0.1981
19413TIP3    H179654   3.265   4.832   0.680  0.3848 -0.2902 -0.2888
19413TIP3    H279655   3.190   4.810   0.550 -0.4562  0.6773  0.0187
19414TIP3   OH279656   0.178   2.093   6.765 -0.1590  0.7147  0.2990
19414TIP3    H179657   0.091   2.057   6.749  0.0987 -0.7643  1.9928
19414TIP3    H279658   0.227   2.021   6.805  1.4874  1.8950  0.5049
19415TIP3   OH279659   5.678   6.560  17.173 -0.9117  0.7785  0.0216
19415TIP3    H179660   5.719   6.533  17.256 -0.4228 -0.4398 -0.5927
19415TIP3    H279661   5.727   6.513  17.106 -0.8760  2.2616 -1.0325
19416TIP3   OH279662   1.746   5.771   3.862 -0.3921 -0.0589 -0.3014
19416TIP3    H179663   1.728   5.678   3.849  0.4267 -0.2739  0.0275
19416TIP3    H279664   1.832   5.773   3.903 -0.7878  0.8108  0.5218
19417TIP3   OH279665   2.364   5.492   2.598  0.6958  0.6226  0.5025
19417TIP3    H179666   2.437   5.431   2.585 -1.2783 -1.6219 -0.6657
19417TIP3    H279667   2.348   5.490   2.692 -0.9723 -2.8800  0.3055
19418TIP3   OH279668   6.076   5.552   5.766 -0.4711  0.2256 -0.6666
19418TIP3    H179669   6.168   5.540   5.791 -0.2562 -0.0563 -1.5686
19418TIP3    H279670   6.063   5.647   5.767 -0.3580  0.2407  0.0956
19419TIP3   OH279671   5.176   1.061  11.943 -0.1184 -0.4140 -0.2729
19419TIP3    H179672   5.140   1.139  11.899  0.6221 -0.2035 -0.5215
19419TIP3    H279673   5.197   1.091  12.031  0.3101 -0.2825 -0.4157
19420TIP3   OH279674   6.497   1.239  16.468 -0.5272 -0.2032 -0.3089
19420TIP3    H179675   6.473   1.148  16.452 -0.0619 -0.4122  0.1527
19420TIP3    H279676   6.548   1.236  16.549  0.3488  0.3309 -0.8213
19421TIP3   OH279677   6.202   5.450  16.777 -0.2394  0.5600  0.0477
19421TIP3    H179678   6.267   5.453  16.706 -1.5323  0.6263 -1.1727
19421TIP3    H279679   6.255   5.453  16.857  1.2977 -0.0295 -0.8878
19422TIP3   OH279680   6.364   1.507  16.380  0.3665 -0.8405  0.2977
19422TIP3    H179681   6.359   1.578  16.444 -2.4850 -1.8762  1.3784
19422TIP3    H279682   6.398   1.432  16.430 -0.8084 -1.3557  0.3560
19423TIP3   OH279683   5.787   3.675  12.301  0.2671 -0.3506  0.5010
19423TIP3    H179684   5.703   3.715  12.278  0.3526 -1.0164 -1.0551
19423TIP3    H279685   5.785   3.589  12.259  0.5487 -1.5926  2.8563
19424TIP3   OH279686   3.286   0.725  15.254 -0.3187 -0.1076 -0.0137
19424TIP3    H179687   3.281   0.815  15.223  0.5182  0.1293  0.5018
19424TIP3    H279688   3.303   0.732  15.348 -1.7025 -0.8084  0.3121
19425TIP3   OH279689   6.208   4.172  12.093 -0.0706 -0.0165 -0.1845
19425TIP3    H179690   6.233   4.240  12.156 -0.3980 -0.2801  0.2305
19425TIP3    H279691   6.182   4.098  12.147  0.0841 -0.4025 -0.6389
19426TIP3   OH279692   0.414   6.071   1.664  0.4415 -0.0330  0.1690
19426TIP3    H179693   0.493   6.102   1.709  1.4385 -2.1924  0.0192
19426TIP3    H279694   0.381   6.000   1.719  1.3676 -2.3648 -2.0750
19427TIP3   OH279695   4.076   5.755  16.940  0.6738  0.4058  0.1224
19427TIP3    H179696   4.036   5.818  17.000 -0.5943 -0.7076  0.4860
19427TIP3    H279697   4.047   5.783  16.853 -1.1233 -0.4805  0.3868
19428TIP3   OH279698   0.856   5.659  17.115 -0.1435  0.2406 -0.4006
19428TIP3    H179699   0.900   5.601  17.053 -0.8919  1.1879 -1.8738
19428TIP3    H279700   0.922   5.678  17.182  1.2531  0.5036 -1.7979
19429TIP3   OH279701   0.125   6.069   6.020  0.3019 -0.2043 -0.1574
19429TIP3    H179702   0.077   6.067   6.102 -0.4199  1.2018 -0.5196
19429TIP3    H279703   0.142   5.977   6.000 -2.0336 -0.7544  0.1208
19430TIP3   OH279704   3.307   4.166   3.681 -0.6330 -0.1854  0.0988
19430TIP3    H179705   3.259   4.121   3.612 -1.8643 -0.4504  1.0940
19430TIP3    H279706   3.242   4.224   3.721  0.0512 -0.0757  1.0693
19431TIP3   OH279707   2.444   3.069   2.231 -0.0528  0.7584  0.2499
19431TIP3    H179708   2.392   3.124   2.173 -1.6473  1.1031  1.8964
19431TIP3    H279709   2.458   2.988   2.183 -1.9544  0.7479 -0.3610
19432TIP3   OH279710   4.327   2.185   0.108  0.6610 -0.7161  0.0990
19432TIP3    H179711   4.343   2.218   0.197  1.7187  0.3492 -0.4483
19432TIP3    H279712   4.292   2.260   0.061 -0.8956 -1.5659 -0.1374
19433TIP3   OH279713   1.797   2.737   1.925  0.4868 -0.5984  0.0731
19433TIP3    H179714   1.821   2.752   1.833 -0.6525 -0.9270 -0.3031
19433TIP3    H279715   1.856   2.792   1.975 -0.8312  1.9900 -1.0099
19434TIP3   OH279716   6.669   0.345  11.778 -0.6362 -0.6969  0.0362
19434TIP3    H179717   6.726   0.396  11.720  0.5739  0.6717  2.2774
19434TIP3    H279718   6.709   0.258  11.781  0.2684 -0.2917  0.1058
19435TIP3   OH279719   5.722   5.760  13.742 -0.1602 -0.1156 -0.1118
19435TIP3    H179720   5.773   5.828  13.698  0.3302 -0.4994 -0.1519
19435TIP3    H279721   5.757   5.758  13.831 -0.1153 -0.3719 -0.1338
19436TIP3   OH279722   4.588   1.707  15.056  0.2480  0.0167 -0.2694
19436TIP3    H179723   4.653   1.771  15.084 -0.0185  1.0756 -1.9128
19436TIP3    H279724   4.563   1.661  15.136  2.6473 -0.1040  0.4832
19437TIP3   OH279725   1.326   1.143  11.722 -0.1311 -0.2940 -0.1829
19437TIP3    H179726   1.341   1.177  11.634  0.7165  0.4125  0.2233
19437TIP3    H279727   1.413   1.116  11.753 -0.2046  0.6610  0.9215
19438TIP3   OH279728   4.502   6.106   4.828 -0.8826 -0.4115 -0.4718
19438TIP3    H179729   4.570   6.044   4.854  1.7417  2.4803  0.1505
19438TIP3    H279730   4.463   6.067   4.749  0.8208 -2.6570 -0.2964
19439TIP3   OH279731   3.141   5.039   6.163  0.1918  0.3769  0.1259
19439TIP3    H179732   3.181   4.953   6.155 -1.3609 -0.3971  0.3199
19439TIP3    H279733   3.210   5.095   6.198  1.5962 -0.4779 -1.2025
19440TIP3   OH279734   5.996   1.880   3.676 -0.4516  0.4035  0.2228
19440TIP3    H179735   6.070   1.887   3.616  0.1074  1.8788  1.0420
19440TIP3    H279736   5.919   1.877   3.619  0.2159 -2.8132 -0.7378
19441TIP3   OH279737   1.142   6.147  10.712  0.1417 -0.1766  0.1125
19441TIP3    H179738   1.158   6.213  10.780 -0.9216  0.4208 -0.1906
19441TIP3    H279739   1.153   6.194  10.630 -1.3745 -0.1417 -0.1069
19442TIP3   OH279740   3.886   6.168  11.788  0.0844  0.5403  0.2452
19442TIP3    H179741   3.973   6.130  11.774  0.0644  1.1564 -1.8285
19442TIP3    H279742   3.892   6.256  11.753 -1.6465  0.2493 -0.9214
19443TIP3   OH279743   4.048   5.926  14.777 -0.8793 -0.1395  0.0575
19443TIP3    H179744   4.025   6.012  14.814  2.0479  1.2356 -0.9887
19443TIP3    H279745   3.989   5.916  14.702 -0.5543  1.5221 -0.4660
19444TIP3   OH279746   5.995   1.337  13.503  0.2265  0.3925 -0.0421
19444TIP3    H179747   5.923   1.391  13.470 -0.6359  0.0771  1.2405
19444TIP3    H279748   6.073   1.389  13.489 -0.5428  1.8237  0.7715
19445TIP3   OH279749   2.127   3.423  11.516  0.5129 -0.1331  0.1688
19445TIP3    H179750   2.157   3.374  11.592 -0.5653 -0.0371  0.6723
19445TIP3    H279751   2.036   3.397  11.505  0.3567  0.6412 -0.4694
19446TIP3   OH279752   5.213   5.995  12.175  0.2724  0.2088 -0.4609
19446TIP3    H179753   5.192   6.083  12.143  0.4950  0.1425 -0.7956
19446TIP3    H279754   5.248   5.949  12.099 -0.2530 -0.3121 -0.4010
19447TIP3   OH279755   0.423   4.582  15.890 -0.1323  0.2844  0.2841
19447TIP3    H179756   0.411   4.544  15.977 -1.3408 -0.3622 -0.1390
19447TIP3    H279757   0.399   4.674  15.900 -0.8738  0.0749  0.5195
19448TIP3   OH279758   3.819   4.080  13.939 -0.4579  0.1955  0.0762
19448TIP3    H179759   3.902   4.047  13.972 -1.1907 -0.8234  0.9795
19448TIP3    H279760   3.830   4.082  13.844  0.8385  0.8019  0.2087
19449TIP3   OH279761   3.226   0.539   0.005  0.4229 -0.5950  0.2687
19449TIP3    H179762   3.280   0.480   0.057  0.1933  0.0838  1.3082
19449TIP3    H279763   3.224   0.500  -0.082  0.8633 -1.7280  0.7536
19450TIP3   OH279764   3.549   6.210   4.648  0.0041  0.8274  0.2154
19450TIP3    H179765   3.612   6.151   4.690  1.1206  1.1355 -0.9461
19450TIP3    H279766   3.559   6.193   4.554 -0.4638  2.0545 -0.0782
19451TIP3   OH279767   5.364   6.052  15.457 -0.4799  0.8028 -0.8451
19451TIP3    H179768   5.283   6.084  15.498  0.7454  0.4061  2.0792
19451TIP3    H279769   5.350   5.958  15.447  0.2080  0.4095  1.3590
19452TIP3   OH279770   2.161   5.615  17.128 -0.3643 -0.4064 -0.3237
19452TIP3    H179771   2.198   5.589  17.044 -0.1447  0.3171 -0.4525
19452TIP3    H279772   2.234   5.656  17.174 -0.3170 -1.3242  0.4644
19453TIP3   OH279773   6.759   3.554  13.384  0.0909  0.2778  0.0412
19453TIP3    H179774   6.675   3.596  13.404 -0.3570 -0.4262 -0.3082
19453TIP3    H279775   6.780   3.503  13.462 -0.2286 -0.2079 -0.1873
19454TIP3   OH279776   3.424   1.914   1.524 -0.0515 -0.2135 -0.3043
19454TIP3    H179777   3.377   1.953   1.450  0.0778  0.6028  0.0350
19454TIP3    H279778   3.512   1.950   1.518 -0.5433  1.3774  1.3396
19455TIP3   OH279779   4.355   5.152  14.120  0.0311  0.4238 -0.2109
19455TIP3    H179780   4.269   5.115  14.099  1.0626 -0.4982 -3.3980
19455TIP3    H279781   4.392   5.177  14.035  2.7018  1.3215  1.0906
19456TIP3   OH279782   1.606   5.036   1.387 -1.0376  0.1907  0.2327
19456TIP3    H179783   1.579   5.113   1.337  1.0644  1.2202  0.6062
19456TIP3    H279784   1.666   4.989   1.329  0.4926  0.7675  1.2974
19457TIP3   OH279785   1.755   0.920  11.730 -0.4245  0.0273 -0.2100
19457TIP3    H179786   1.713   0.917  11.645 -0.2507  0.5342 -0.3158
19457TIP3    H279787   1.765   1.013  11.749  0.6890 -0.0718 -0.2085
19458TIP3   OH279788   4.131   0.242   1.975  0.1147 -0.1065  0.6982
19458TIP3    H179789   4.162   0.187   2.048 -0.3429 -0.4811  0.6225
19458TIP3    H279790   4.054   0.195   1.942  0.2148  0.1523  0.0839
19459TIP3   OH279791   4.172   2.222  16.894  0.4366  0.6687  0.1847
19459TIP3    H179792   4.250   2.201  16.843 -0.8777 -0.9031 -1.2947
19459TIP3    H279793   4.107   2.250  16.829 -0.9656 -0.3905  1.0780
19460TIP3   OH279794   3.146   1.463   2.552  0.3329  0.0774 -0.1308
19460TIP3    H179795   3.237   1.466   2.581  0.6303 -0.4848 -0.9346
19460TIP3    H279796   3.100   1.528   2.605  1.5424  1.5723 -0.8713
19461TIP3   OH279797   1.851   5.606   1.771 -0.2458 -0.3866 -0.2129
19461TIP3    H179798   1.869   5.700   1.766  0.1592 -0.4363  0.1618
19461TIP3    H279799   1.854   5.576   1.681  1.1763 -0.3050 -0.2205
19462TIP3   OH279800   5.884   4.137   3.045  0.2657 -0.0193  0.2670
19462TIP3    H179801   5.895   4.070   3.112  0.2902 -0.5528 -0.2667
19462TIP3    H279802   5.850   4.090   2.969  2.4569  0.1318 -0.8821
19463TIP3   OH279803   1.952   1.851  13.093 -0.1134  0.0847 -0.4598
19463TIP3    H179804   2.040   1.873  13.123 -0.1545 -0.4184  0.0372
19463TIP3    H279805   1.900   1.930  13.111 -0.0671 -0.0977  0.5175
19464TIP3   OH279806   4.398   1.656  12.615  0.1725  0.0040  0.2906
19464TIP3    H179807   4.339   1.682  12.544 -0.5082  1.9387  1.4794
19464TIP3    H279808   4.442   1.737  12.640  0.2644 -0.5829  2.1711
19465TIP3   OH279809   0.502   5.469  12.169  0.9927 -0.3516  0.7679
19465TIP3    H179810   0.479   5.554  12.205 -0.7160 -0.4910  0.1367
19465TIP3    H279811   0.455   5.406  12.225  1.2818 -0.7912  0.5197
19466TIP3   OH279812   5.708   3.387  15.818 -0.5842 -0.0162  0.1488
19466TIP3    H179813   5.747   3.474  15.811 -0.1738 -0.3321 -2.8489
19466TIP3    H279814   5.766   3.340  15.878  0.8137  0.9948 -0.3581
19467TIP3   OH279815   2.629   3.951   6.498 -0.2880  0.0781  0.1153
19467TIP3    H179816   2.699   3.948   6.433  1.6933 -1.0407  2.1741
19467TIP3    H279817   2.650   4.027   6.553 -2.4218  1.5482 -0.9198
19468TIP3   OH279818   2.208   6.533  12.075 -0.4874  0.1091 -0.0710
19468TIP3    H179819   2.182   6.591  12.004  1.7386  1.2876  0.0118
19468TIP3    H279820   2.139   6.543  12.141  0.3702  3.6355  0.4626
19469TIP3   OH279821   0.615   3.161   2.712  0.6373  0.1330  0.4032
19469TIP3    H179822   0.550   3.223   2.747  0.2412  0.4703 -0.8700
19469TIP3    H279823   0.600   3.162   2.617  1.1396 -1.3452  0.2850
19470TIP3   OH279824   3.429   4.034   3.350  0.3006  0.2588  0.0950
19470TIP3    H179825   3.407   4.123   3.321 -0.2352  0.6903  1.7157
19470TIP3    H279826   3.358   4.010   3.410  1.3565 -0.5548  1.0719
19471TIP3   OH279827   0.634   2.428  15.042 -0.4308 -0.4562  0.0932
19471TIP3    H179828   0.577   2.464  15.110 -0.2183 -0.0645  0.0694
19471TIP3    H279829   0.697   2.374  15.090  0.8120  1.2078  0.4248
19472TIP3   OH279830   0.970   0.718  13.225  0.0733  0.0987  1.0269
19472TIP3    H179831   1.053   0.713  13.272  1.7777 -0.8016 -1.8218
19472TIP3    H279832   0.984   0.785  13.159 -0.8935 -1.1021 -0.4594
19473TIP3   OH279833   4.707   5.039   0.208  0.0445  0.4096  0.2940
19473TIP3    H179834   4.788   4.994   0.233  0.4647  1.0027  0.0147
19473TIP3    H279835   4.709   5.121   0.257  0.0370  0.8129 -0.3675
19474TIP3   OH279836   0.577   2.302   1.986  0.1343 -0.1373  0.3245
19474TIP3    H179837   0.599   2.213   2.016 -0.7015 -0.5314 -0.1828
19474TIP3    H279838   0.551   2.290   1.894 -1.7045  0.3300  0.7317
19475TIP3   OH279839   2.053   1.981   1.590 -0.8624 -0.0394  0.9128
19475TIP3    H179840   1.971   1.966   1.637 -1.0892  0.1237  0.5672
19475TIP3    H279841   2.036   1.952   1.501 -1.0427  1.4299  0.4336
19476TIP3   OH279842   4.295   0.525   0.024  0.7970  0.4665 -0.1494
19476TIP3    H179843   4.307   0.474   0.104 -2.8175  0.3672  0.5049
19476TIP3    H279844   4.274   0.613   0.055 -2.3716  0.0315 -0.7794
19477TIP3   OH279845   2.192   3.710  12.274  0.3868 -0.1861  0.2858
19477TIP3    H179846   2.145   3.782  12.315 -1.1979 -0.6746 -0.5717
19477TIP3    H279847   2.142   3.632  12.297  0.5139 -0.6829 -0.9959
19478TIP3   OH279848   1.116   4.347  13.725  0.2596 -0.2536 -0.2863
19478TIP3    H179849   1.189   4.398  13.760  0.3443  0.9825 -2.1305
19478TIP3    H279850   1.050   4.413  13.702 -0.5636 -1.1847 -0.6314
19479TIP3   OH279851   5.304   1.682   5.104  0.4259  0.6780  0.0758
19479TIP3    H179852   5.260   1.598   5.093  0.7249  0.1868  2.2190
19479TIP3    H279853   5.235   1.743   5.131  0.1911  1.1829 -1.5687
19480TIP3   OH279854   1.147   1.823   4.844 -1.0860  0.0118 -0.0878
19480TIP3    H179855   1.232   1.785   4.868 -1.0870  0.5295  0.7791
19480TIP3    H279856   1.104   1.755   4.793 -0.7450 -0.8319  0.7267
19481TIP3   OH279857   3.284   6.648  16.844  0.1603  0.7868  0.1668
19481TIP3    H179858   3.297   6.594  16.766 -3.4878  0.9197 -0.6997
19481TIP3    H279859   3.351   6.618  16.905  0.7440 -2.0122 -1.6611
19482TIP3   OH279860   0.432   0.484   6.429 -0.0089  0.0708 -0.7877
19482TIP3    H179861   0.445   0.493   6.335  0.1960 -0.4554 -0.8127
19482TIP3    H279862   0.512   0.442   6.461 -0.7856 -1.3748 -0.6454
19483TIP3   OH279863   6.420   3.380   4.534  0.6469 -0.1154  0.5148
19483TIP3    H179864   6.396   3.430   4.456 -0.7923 -0.0296  0.9939
19483TIP3    H279865   6.515   3.392   4.541  0.3995  2.4446  0.5131
19484TIP3   OH279866   1.032   6.230   5.012  0.7853  0.1749 -0.3235
19484TIP3    H179867   0.968   6.291   5.049  1.2488 -1.0779  2.8279
19484TIP3    H279868   1.002   6.144   5.041  1.7474 -0.8626 -2.2185
19485TIP3   OH279869   4.129   2.273   4.720  0.1927 -0.2602 -0.0764
19485TIP3    H179870   4.106   2.180   4.729 -0.0440 -0.2782 -0.8359
19485TIP3    H279871   4.178   2.293   4.800 -1.1609 -0.6020  0.8741
19486TIP3   OH279872   4.287   4.989  10.929  0.1036  0.0956 -0.5112
19486TIP3    H179873   4.268   4.902  10.894  0.4890  0.3080 -1.2761
19486TIP3    H279874   4.292   5.045  10.852 -0.4492  0.8607 -0.0007
19487TIP3   OH279875   1.672   6.266  12.978  0.2103  0.5753  0.3473
19487TIP3    H179876   1.760   6.294  12.954 -0.2904  0.3405 -1.9892
19487TIP3    H279877   1.682   6.173  12.999  0.2046 -0.0777 -2.2470
19488TIP3   OH279878   2.119   5.155   6.536 -0.1557  0.0366 -0.4196
19488TIP3    H179879   2.066   5.203   6.472 -1.8978 -0.7345  0.3806
19488TIP3    H279880   2.118   5.210   6.615  2.2695  1.1546 -1.0471
19489TIP3   OH279881   0.343   0.310   2.921 -0.2742  0.1143 -0.3806
19489TIP3    H179882   0.331   0.251   2.996 -1.3004 -0.1079 -0.7008
19489TIP3    H279883   0.437   0.307   2.904  0.0267  0.3837  1.0574
19490TIP3   OH279884   6.381   0.214  11.121  0.5346 -0.0093 -0.3647
19490TIP3    H179885   6.364   0.130  11.163  0.6695  0.2675  0.2666
19490TIP3    H279886   6.355   0.279  11.186 -0.2482  0.4527 -1.1157
19491TIP3   OH279887   1.690   3.959  17.035 -0.0553 -0.7300  0.4834
19491TIP3    H179888   1.725   3.962  16.947  2.0629 -0.7872  1.2663
19491TIP3    H279889   1.637   3.879  17.038 -1.1279 -0.1165 -1.0211
19492TIP3   OH279890   2.334   1.159  13.022 -0.6748 -0.1674  0.1675
19492TIP3    H179891   2.304   1.071  13.046  2.0822 -1.8691 -2.0702
19492TIP3    H279892   2.295   1.175  12.936  0.2306  0.0509 -0.2102
19493TIP3   OH279893   3.182   3.252  11.821 -0.3376 -0.4321  0.0735
19493TIP3    H179894   3.241   3.195  11.771 -1.3152  0.2300 -1.9326
19493TIP3    H279895   3.217   3.251  11.909  1.1355 -2.1427 -0.4736
19494TIP3   OH279896   0.718   2.247  16.791  0.1988 -0.4784 -0.5357
19494TIP3    H179897   0.732   2.162  16.748 -1.0066 -1.1241  0.2994
19494TIP3    H279898   0.755   2.235  16.879  0.6252  0.0896 -0.6364
19495TIP3   OH279899   6.455   3.403  14.413 -0.3358  0.6088 -0.0781
19495TIP3    H179900   6.451   3.314  14.377 -1.0729 -0.5285  2.5496
19495TIP3    H279901   6.548   3.424  14.415 -0.2630  0.9346 -2.8884
19496TIP3   OH279902   1.572   3.908   0.894 -0.0581  0.5392  0.1562
19496TIP3    H179903   1.484   3.889   0.861  0.0575  0.5836 -0.1849
19496TIP3    H279904   1.622   3.934   0.816  0.0410  1.3229  0.4784
19497TIP3   OH279905   1.671   6.075  12.692  0.2919 -0.3973  0.6871
19497TIP3    H179906   1.750   6.062  12.638 -0.2153 -1.5430  0.1798
19497TIP3    H279907   1.631   5.988  12.695 -0.6549  0.0586  1.4158
19498TIP3   OH279908   5.089   5.168   3.277 -0.3545  0.0793 -0.2173
19498TIP3    H179909   5.108   5.256   3.245 -1.9575  0.5250 -0.0443
19498TIP3    H279910   5.144   5.110   3.224 -0.4945  1.0571 -1.4606
19499TIP3   OH279911   5.935   0.726  16.648  0.0876  0.8393 -0.0070
19499TIP3    H179912   6.022   0.766  16.654 -0.4285  2.3037 -1.5982
19499TIP3    H279913   5.914   0.727  16.555 -1.4682  0.1023  0.3007
19500TIP3   OH279914   1.315   0.216  11.107  0.4233  0.5259  0.1526
19500TIP3    H179915   1.354   0.216  11.020  1.5876  2.0967  0.6214
19500TIP3    H279916   1.248   0.285  11.103 -2.2763 -1.9672 -0.5678
19501TIP3   OH279917   1.514   1.349  16.240 -0.1892  0.3902 -0.2751
19501TIP3    H179918   1.491   1.424  16.296 -0.9773 -0.3268  0.3843
19501TIP3    H279919   1.457   1.358  16.163  0.1668  0.8084 -0.4950
19502TIP3   OH279920   0.559   0.975  13.584  0.5260 -0.1107  0.0689
19502TIP3    H179921   0.639   1.027  13.570  0.5463  0.1442  1.0549
19502TIP3    H279922   0.590   0.889  13.611  0.4777  0.2579  1.3577
19503TIP3   OH279923   6.733   3.109  15.165 -0.0887  0.5852 -0.1613
19503TIP3    H179924   6.779   3.067  15.092 -1.8799 -1.6633 -0.0883
19503TIP3    H279925   6.803   3.147  15.218  1.4370  0.0281 -1.6725
19504TIP3   OH279926   5.228   3.345  14.583 -0.6464  0.1887  0.2660
19504TIP3    H179927   5.149   3.354  14.636 -1.3391  0.5553 -0.7934
19504TIP3    H279928   5.216   3.262  14.536 -0.1878  0.0175  0.4526
19505TIP3   OH279929   1.356   5.631  17.263 -0.6157 -0.7160 -0.0661
19505TIP3    H179930   1.334   5.695  17.331  0.3216  1.5146 -1.7456
19505TIP3    H279931   1.296   5.651  17.191  1.7079  0.4873 -1.8229
19506TIP3   OH279932   0.756   2.702   1.819 -0.3139  0.0189  0.0172
19506TIP3    H179933   0.811   2.702   1.741  2.9983 -2.8905  2.0253
19506TIP3    H279934   0.798   2.765   1.877 -3.6169  3.3123 -0.8132
19507TIP3   OH279935   2.705   1.703  14.772  0.9359  0.0169 -0.2003
19507TIP3    H179936   2.637   1.649  14.814  0.8753 -0.1837 -0.5554
19507TIP3    H279937   2.756   1.737  14.846  1.3590 -1.0314  0.0115
19508TIP3   OH279938   6.406   5.486  16.984 -0.0105  0.3247 -0.9259
19508TIP3    H179939   6.475   5.540  16.945 -0.1919  1.2296 -0.0311
19508TIP3    H279940   6.406   5.510  17.076 -1.0283 -0.2137 -0.7715
19509TIP3   OH279941   4.045   0.638   1.586 -0.6436  0.0769  0.9141
19509TIP3    H179942   4.093   0.696   1.645  1.8076 -0.0067 -0.8110
19509TIP3    H279943   4.069   0.549   1.615 -0.0822  0.0313  0.3493
19510TIP3   OH279944   1.369   0.415   0.308  0.5573 -0.2079 -0.1571
19510TIP3    H179945   1.364   0.458   0.393 -0.5534 -0.4222 -0.0996
19510TIP3    H279946   1.447   0.360   0.315  0.1180 -0.7354  0.9835
19511TIP3   OH279947   0.214   0.208   4.275  0.3600  0.1601 -0.0422
19511TIP3    H179948   0.263   0.279   4.317 -1.8946 -0.6328  4.5347
19511TIP3    H279949   0.241   0.130   4.323 -1.0629 -1.2407 -1.4372
19512TIP3   OH279950   5.460   6.727   4.067 -0.1065  0.6373  0.4638
19512TIP3    H179951   5.405   6.749   3.991 -0.5941  0.7781  0.8476
19512TIP3    H279952   5.431   6.639   4.093  1.1453 -0.0673 -0.4559
19513TIP3   OH279953   4.322   3.427  14.510 -0.5648 -0.7460  0.7497
19513TIP3    H179954   4.339   3.487  14.583 -2.0633 -1.4362  1.7346
19513TIP3    H279955   4.300   3.344  14.553  1.0965 -1.9271 -0.5730
19514TIP3   OH279956   3.208   3.607  13.093 -0.9390  0.0752  0.0355
19514TIP3    H179957   3.300   3.586  13.110 -0.7866  1.0813  0.5217
19514TIP3    H279958   3.195   3.693  13.134 -1.8234  0.4055 -0.8822
19515TIP3   OH279959   5.556   0.664   0.610 -0.9101  0.3573 -0.5227
19515TIP3    H179960   5.612   0.613   0.669 -0.2415 -0.3252 -1.7210
19515TIP3    H279961   5.573   0.628   0.523 -1.1642  1.9720 -1.2771
19516TIP3   OH279962   3.028   1.559   1.301  0.1215  0.0886 -0.3794
19516TIP3    H179963   3.091   1.615   1.347 -1.8487  1.1983  1.1696
19516TIP3    H279964   3.009   1.489   1.363 -0.2898 -0.1254 -0.7442
19517TIP3   OH279965   0.699   6.709  14.894  0.0642 -0.1601  0.2460
19517TIP3    H179966   0.746   6.786  14.861 -1.0624  0.7956  0.8335
19517TIP3    H279967   0.670   6.663  14.815 -0.6481  0.8835 -0.1079
19518TIP3   OH279968   2.782   0.132   1.180 -0.2794  0.3787 -0.3537
19518TIP3    H179969   2.762   0.065   1.245 -3.2108 -0.7475 -2.1992
19518TIP3    H279970   2.804   0.083   1.101  0.0689  1.6366 -1.0620
19519TIP3   OH279971   3.393   4.663  16.961  0.0634 -0.4992  0.1418
19519TIP3    H179972   3.339   4.742  16.959  0.9468  0.1105 -0.0957
19519TIP3    H279973   3.482   4.694  16.946  0.5665 -1.4277  1.0682
19520TIP3   OH279974   5.454   1.076  12.150 -0.7997 -0.0474  0.0172
19520TIP3    H179975   5.407   1.159  12.160  0.9927  1.0977 -0.6198
19520TIP3    H279976   5.527   1.083  12.212 -0.7726 -1.2679  0.1372
19521TIP3   OH279977   3.507   5.756   2.542 -0.4166  0.8522  0.0161
19521TIP3    H179978   3.580   5.696   2.530 -1.8949 -0.8001 -1.2927
19521TIP3    H279979   3.536   5.838   2.504  0.4432 -0.0466 -1.3330
19522TIP3   OH279980   4.345   0.716  13.580  0.2550  0.3107  0.3962
19522TIP3    H179981   4.270   0.660  13.561 -0.0987  1.3438 -1.5528
19522TIP3    H279982   4.409   0.659  13.622 -0.8813 -1.0368  0.3408
19523TIP3   OH279983   5.964   4.380  15.615 -0.8711  0.1865  0.4554
19523TIP3    H179984   6.053   4.417  15.613  0.2100 -2.2004 -2.2090
19523TIP3    H279985   5.968   4.306  15.555 -4.3931 -0.7811  1.2242
19524TIP3   OH279986   1.490   0.957  14.121  0.1242 -0.0400  0.1433
19524TIP3    H179987   1.405   0.924  14.092  0.8729 -2.5551  0.6176
19524TIP3    H279988   1.472   1.048  14.146 -2.1322 -0.0995 -0.9646
19525TIP3   OH279989   2.558   3.574   0.283 -0.0385 -0.2022  0.8986
19525TIP3    H179990   2.654   3.581   0.280 -0.0608  1.5552  2.3298
19525TIP3    H279991   2.540   3.526   0.364 -0.3758  0.2024  1.0660
19526TIP3   OH279992   3.804   1.459  11.536 -0.1412  0.2140  0.1775
19526TIP3    H179993   3.767   1.502  11.459  0.2355  2.1313  1.0243
19526TIP3    H279994   3.896   1.447  11.515 -0.0435  0.7136  0.3189
19527TIP3   OH279995   2.477   5.482   2.261 -0.3895  0.3215  0.3784
19527TIP3    H179996   2.542   5.534   2.307 -0.0103  0.6144 -0.4812
19527TIP3    H279997   2.507   5.479   2.170 -1.4826  0.3239  0.0021
19528TIP3   OH279998   6.741   4.193   6.345 -0.5373  0.1297  0.6259
19528TIP3    H179999   6.653   4.219   6.373 -1.0752 -0.7295 -0.1815
19528TIP3    H280000   6.794   4.196   6.424 -1.2729  0.7507  1.1060
19529TIP3   OH280001   2.497   1.808  13.297 -0.9868  0.5965  0.3592
19529TIP3    H180002   2.484   1.902  13.310 -2.6719  0.2813  1.1484
19529TIP3    H280003   2.410   1.773  13.279 -0.3500 -0.7891 -0.1798
19530TIP3   OH280004   3.041   3.563  11.220  0.1415  0.3624 -0.2496
19530TIP3    H180005   3.134   3.576  11.237  0.6976 -0.5516 -2.2183
19530TIP3    H280006   3.035   3.561  11.125 -1.5707 -1.5842 -0.1624
19531TIP3   OH280007   6.565   6.017   5.197 -0.0527 -0.1628  0.2849
19531TIP3    H180008   6.634   5.960   5.232 -1.3020 -2.2212 -0.4480
19531TIP3    H280009   6.493   6.007   5.259 -0.4861  0.2064 -0.1538
19532TIP3   OH280010   6.531   5.858   6.555  0.1205  0.3041 -0.4559
19532TIP3    H180011   6.563   5.892   6.471 -0.1217  0.2976 -0.5518
19532TIP3    H280012   6.441   5.831   6.537 -0.3504  1.4365  0.1130
19533TIP3   OH280013   5.719   1.597   5.484  0.0057 -0.1499  0.4133
19533TIP3    H180014   5.635   1.589   5.440 -0.0375 -1.9500  0.7751
19533TIP3    H280015   5.780   1.549   5.429  0.9292  1.4434 -0.0384
19534TIP3   OH280016   2.550   2.033   6.101  0.4336 -0.1174  0.2532
19534TIP3    H180017   2.625   2.071   6.148  0.2924  0.5789 -0.0694
19534TIP3    H280018   2.583   2.015   6.014  0.0395  0.8668 -0.1116
19535TIP3   OH280019   5.182   6.774  11.698 -0.4862 -0.0017 -0.3188
19535TIP3    H180020   5.254   6.761  11.760 -1.6072 -0.7331  0.8998
19535TIP3    H280021   5.198   6.859  11.659  0.9945 -0.1197 -0.0314
19536TIP3   OH280022   1.220   0.720   1.837  0.1793 -0.0113 -0.2041
19536TIP3    H180023   1.279   0.760   1.773  1.9504 -0.8193  0.8375
19536TIP3    H280024   1.165   0.661   1.785 -0.2014  1.2623 -1.2980
19537TIP3   OH280025   4.430   3.627   5.158  0.2974  0.8155  0.0704
19537TIP3    H180026   4.376   3.630   5.079  1.8581  1.2395 -1.0222
19537TIP3    H280027   4.453   3.534   5.167  0.8805  0.8850 -0.5501
19538TIP3   OH280028   2.873   3.042  12.319 -0.1207 -0.1391  0.3363
19538TIP3    H180029   2.795   3.096  12.306 -0.2420 -0.5521 -0.6993
19538TIP3    H280030   2.902   3.063  12.408 -1.6623 -0.3004  0.9003
19539TIP3   OH280031   5.821   0.828   2.746 -0.2926  0.5681  0.4608
19539TIP3    H180032   5.843   0.798   2.658 -1.1724  0.0897  0.3973
19539TIP3    H280033   5.726   0.832   2.747 -0.5886 -2.9076  2.4678
19540TIP3   OH280034   4.479   0.136  12.579 -0.6603 -0.1047 -0.0921
19540TIP3    H180035   4.525   0.085  12.512  2.5725  0.3449  1.5936
19540TIP3    H280036   4.402   0.170  12.534 -0.0203 -1.9101 -2.8282
19541TIP3   OH280037   6.173   0.916   5.714 -0.2538 -0.3980 -0.4913
19541TIP3    H180038   6.250   0.900   5.660  1.1146  1.4061  0.7850
19541TIP3    H280039   6.203   0.899   5.803 -1.5444 -0.3135 -0.0251
19542TIP3   OH280040   1.697   4.598  15.325  0.2675 -0.4180  0.8693
19542TIP3    H180041   1.771   4.546  15.294 -0.3881 -1.0060  0.2550
19542TIP3    H280042   1.709   4.683  15.284  0.6602 -0.4793  0.8517
19543TIP3   OH280043   2.846   4.810  14.804  0.5043 -0.0488  0.3205
19543TIP3    H180044   2.929   4.853  14.823  0.5692 -0.7483  1.7219
19543TIP3    H280045   2.871   4.735  14.749  0.5714  0.7225 -0.7438
19544TIP3   OH280046   1.109   4.408   2.766  0.0248 -0.0002  0.0322
19544TIP3    H180047   1.033   4.356   2.740 -0.5599  0.9220 -0.1671
19544TIP3    H280048   1.184   4.350   2.754 -0.5930 -0.7373 -0.3285
19545TIP3   OH280049   5.651   1.877   1.981  0.3048 -0.4633  0.3613
19545TIP3    H180050   5.683   1.953   1.933 -1.4925  0.1430  0.0536
19545TIP3    H280051   5.660   1.804   1.920  0.7515 -0.2580  0.1719
19546TIP3   OH280052   1.205   6.413  16.731  0.1490  0.1054  0.2197
19546TIP3    H180053   1.158   6.331  16.741 -1.5470  1.0544  0.4937
19546TIP3    H280054   1.252   6.425  16.813 -3.4806  1.6773  2.2749
19547TIP3   OH280055   3.380   6.306   1.765  0.0705 -0.1906 -0.3154
19547TIP3    H180056   3.445   6.374   1.783  1.1287 -1.2460 -0.0832
19547TIP3    H280057   3.382   6.249   1.842 -2.7042  0.9176  0.7057
19548TIP3   OH280058   2.480   6.706   0.106 -0.0865 -0.5747  0.1335
19548TIP3    H180059   2.519   6.735   0.188  2.6007  1.5783 -1.6814
19548TIP3    H280060   2.497   6.612   0.103  1.4341 -0.3779  1.2768
19549TIP3   OH280061   6.321   1.846   4.423  0.2434 -0.1391 -0.3933
19549TIP3    H180062   6.406   1.811   4.397 -0.0563 -0.8481 -0.4549
19549TIP3    H280063   6.261   1.772   4.413 -0.2877  0.2091  0.1384
19550TIP3   OH280064   2.885   6.331  14.098  0.3594 -0.4106  0.6153
19550TIP3    H180065   2.966   6.364  14.058 -0.1262  0.7948  0.6092
19550TIP3    H280066   2.915   6.260  14.155  1.4298  0.0231  0.6209
19551TIP3   OH280067   0.473   4.061   6.255  0.0758 -0.3512  0.2184
19551TIP3    H180068   0.517   4.071   6.171 -1.2635 -1.0239 -0.6006
19551TIP3    H280069   0.441   4.149   6.276 -0.2528 -0.3271 -0.3718
19552TIP3   OH280070   0.810   6.259  16.751 -0.6045  0.5163  0.7317
19552TIP3    H180071   0.804   6.179  16.698 -0.1705  0.3556  0.9181
19552TIP3    H280072   0.863   6.234  16.826 -0.4950  0.9758  0.8104
19553TIP3   OH280073   0.836   2.473   5.477 -0.0914 -0.1683  0.0009
19553TIP3    H180074   0.745   2.499   5.489  0.2696  0.5151  1.5049
19553TIP3    H280075   0.849   2.404   5.542  0.6509  0.2466  0.2998
19554TIP3   OH280076   5.971   1.978   3.931 -0.5306  0.0955 -0.0438
19554TIP3    H180077   6.040   1.917   3.958 -0.5089  0.7040  1.3670
19554TIP3    H280078   5.969   1.971   3.836  1.0745 -0.3889 -0.0793
19555TIP3   OH280079   3.633   2.455  16.252 -0.1157 -0.3046 -0.4231
19555TIP3    H180080   3.706   2.410  16.208 -0.6187 -1.7236  0.1410
19555TIP3    H280081   3.564   2.389  16.257 -0.6356  0.3222  1.0851
19556TIP3   OH280082   6.388   5.067  10.659  0.7716 -0.1692  0.5487
19556TIP3    H180083   6.353   5.156  10.647  1.7453  0.1441 -0.0273
19556TIP3    H280084   6.481   5.075  10.642  1.3896 -0.7588  3.1747
19557TIP3   OH280085   1.060   6.200   3.122 -0.0988  0.6110  0.7931
19557TIP3    H180086   1.029   6.152   3.045 -1.7443  0.7155  1.3514
19557TIP3    H280087   1.121   6.140   3.165 -0.1791  0.0364  0.1108
19558TIP3   OH280088   2.536   1.012   0.184  0.4535 -0.4564 -0.6159
19558TIP3    H180089   2.512   0.921   0.203 -1.1074 -0.2435 -1.3688
19558TIP3    H280090   2.474   1.039   0.116 -0.5798  1.8326  1.0832
19559TIP3   OH280091   2.101   5.384   5.344  0.5987  0.1459 -0.3568
19559TIP3    H180092   2.183   5.335   5.340  0.5140 -0.2329  1.5803
19559TIP3    H280093   2.045   5.334   5.404 -0.1563  1.6259  0.2465
19560TIP3   OH280094   0.334   5.511   1.691 -0.3163  0.1467 -0.2551
19560TIP3    H180095   0.395   5.584   1.686  1.3050 -1.1233 -0.0084
19560TIP3    H280096   0.281   5.519   1.612  0.7220  0.8499 -0.9105
19561TIP3   OH280097   0.956   3.792  14.992 -0.4663 -0.2223 -0.0987
19561TIP3    H180098   0.948   3.707  14.949 -2.6308 -0.0779 -0.1151
19561TIP3    H280099   0.865   3.817  15.011  0.2261  1.3460  1.3605
19562TIP3   OH280100   1.946   0.196  13.085  0.3357  0.3215 -0.1538
19562TIP3    H180101   1.905   0.282  13.089 -0.3009 -0.0108  0.6409
19562TIP3    H280102   1.896   0.150  13.017 -1.8345 -0.6684  1.9707
19563TIP3   OH280103   3.632   6.531  10.527 -0.2596 -0.0530  0.0208
19563TIP3    H180104   3.584   6.607  10.562 -0.7235 -0.3382  0.0179
19563TIP3    H280105   3.564   6.465  10.513  0.2165 -0.6756  0.5711
19564TIP3   OH280106   1.968   1.123  10.787  0.0718 -0.5431 -0.5989
19564TIP3    H180107   1.930   1.133  10.700  0.5898  2.5746 -0.5661
19564TIP3    H280108   1.912   1.174  10.845  1.0481 -0.6391  0.4756
19565TIP3   OH280109   1.406   4.052   2.157 -0.6278  0.4854 -0.7091
19565TIP3    H180110   1.344   3.984   2.132 -1.7355  0.9554  0.6426
19565TIP3    H280111   1.384   4.127   2.101  0.5083 -0.1836 -2.1053
19566TIP3   OH280112   5.765   5.392  12.272 -0.2621  0.1014 -0.3263
19566TIP3    H180113   5.780   5.298  12.279 -0.7007 -0.0633 -1.3693
19566TIP3    H280114   5.768   5.410  12.178  2.0000  1.5139 -0.0800
19567TIP3   OH280115   6.742   1.390   2.279 -0.1901 -0.6610 -0.2724
19567TIP3    H180116   6.700   1.423   2.358 -0.8576  0.4638 -1.0615
19567TIP3    H280117   6.820   1.444   2.269 -1.1302  0.5825 -1.4040
19568TIP3   OH280118   4.013   0.348  17.013  0.7243 -1.3006  0.2205
19568TIP3    H180119   3.953   0.373  16.943  2.5100  0.4289 -0.7917
19568TIP3    H280120   4.058   0.270  16.979 -0.4220 -2.2011  0.7062
19569TIP3   OH280121   4.441   3.197   2.361 -0.4774 -0.2999 -0.6948
19569TIP3    H180122   4.414   3.220   2.272 -0.1725 -0.7793 -0.9126
19569TIP3    H280123   4.534   3.175   2.354  0.6463  3.3150  0.3883
19570TIP3   OH280124   4.075   3.370   1.988  0.2050  1.0268  0.2959
19570TIP3    H180125   4.130   3.423   1.930 -1.7302  0.4815 -2.2029
19570TIP3    H280126   4.026   3.433   2.040  1.3577  1.5387  0.8161
19571TIP3   OH280127   1.294   4.305  12.489  0.6578 -0.3298 -0.1769
19571TIP3    H180128   1.325   4.301  12.398 -1.9497  1.2989 -1.2665
19571TIP3    H280129   1.256   4.392  12.497  0.6476 -0.5123  2.4600
19572TIP3   OH280130   2.448   4.506   3.160 -0.1243  0.5765 -0.5514
19572TIP3    H180131   2.361   4.544   3.171 -0.7028 -1.0416  0.9952
19572TIP3    H280132   2.506   4.563   3.210 -1.1621 -1.0297  2.7932
19573TIP3   OH280133   4.277   3.698   4.920 -0.2301 -0.4603  0.1645
19573TIP3    H180134   4.220   3.686   4.844  1.8269 -0.5417 -1.4558
19573TIP3    H280135   4.321   3.782   4.904  1.6337 -1.3729  0.2436
19574TIP3   OH280136   1.529   0.430  13.886  0.0219 -0.0355  0.0191
19574TIP3    H180137   1.513   0.449  13.793  1.0192  1.6604  0.1642
19574TIP3    H280138   1.444   0.444  13.928 -0.2606 -0.1032 -0.5087
19575TIP3   OH280139   6.024   3.495   6.562 -0.4414  0.2483  0.2218
19575TIP3    H180140   5.934   3.526   6.564  0.1988  2.3139 -0.4171
19575TIP3    H280141   6.067   3.541   6.634  0.5948  1.0690 -0.8764
19576TIP3   OH280142   2.535   5.249  17.241 -0.3814 -0.7900 -0.2401
19576TIP3    H180143   2.595   5.320  17.217 -0.6832 -0.8339 -1.1528
19576TIP3    H280144   2.582   5.200  17.308  0.6879 -0.9361 -1.0753
19577TIP3   OH280145   0.751   2.790  14.010  0.3672  0.4833 -0.3366
19577TIP3    H180146   0.687   2.783  13.940 -1.5852 -0.8411  1.4570
19577TIP3    H280147   0.817   2.723  13.991 -0.0437  0.2591 -0.9749
19578TIP3   OH280148   5.843   5.268  14.799  0.0783 -0.0552  0.5245
19578TIP3    H180149   5.892   5.350  14.803  1.5412 -0.8165 -0.5572
19578TIP3    H280150   5.881   5.221  14.724 -1.4092 -1.2856  0.4891
19579TIP3   OH280151   5.212   4.684   4.924 -0.6513  0.3652 -0.3995
19579TIP3    H180152   5.294   4.704   4.971 -0.3022 -0.6877 -0.5331
19579TIP3    H280153   5.202   4.756   4.862 -0.5972  1.2656  0.6118
19580TIP3   OH280154   5.280   1.537   2.294 -0.0500  0.4158  0.0257
19580TIP3    H180155   5.194   1.501   2.316  0.2999 -1.0217 -0.7908
19580TIP3    H280156   5.261   1.612   2.238 -0.7955  0.5139  0.4048
19581TIP3   OH280157   6.582   0.007   6.275 -0.3808  0.2793 -0.0579
19581TIP3    H180158   6.658   0.011   6.218 -0.9077  1.8219 -0.6979
19581TIP3    H280159   6.606  -0.056   6.344  2.7194  2.9371  1.5501
19582TIP3   OH280160   2.176   4.184   4.138  0.3655 -0.2410 -0.3461
19582TIP3    H180161   2.165   4.236   4.059 -1.6333 -0.2834 -0.1462
19582TIP3    H280162   2.174   4.093   4.107 -1.2600 -0.2793 -0.1975
19583TIP3   OH280163   4.224   5.225   1.225  0.4291 -0.1547  0.3875
19583TIP3    H180164   4.193   5.271   1.303  1.4322  2.1030 -0.4545
19583TIP3    H280165   4.257   5.295   1.168  1.2911 -1.8885 -1.3370
19584TIP3   OH280166   4.406   0.967   2.089 -0.0674 -0.2705  0.2705
19584TIP3    H180167   4.378   0.986   1.999  1.7834 -0.4378 -0.3787
19584TIP3    H280168   4.379   0.876   2.104 -0.9267 -0.0478  0.1164
19585TIP3   OH280169   0.107   5.086  13.411 -0.8590 -0.0955  0.2884
19585TIP3    H180170   0.074   5.044  13.491 -4.2506  0.4488 -0.6634
19585TIP3    H280171   0.156   5.162  13.443 -1.0536 -0.5724  1.8542
19586TIP3   OH280172   6.335   4.690  10.877 -0.1513  0.0619  0.3882
19586TIP3    H180173   6.406   4.677  10.941  2.4794  0.7204 -2.1698
19586TIP3    H280174   6.303   4.601  10.859  1.2575 -0.4818  0.3766
19587TIP3   OH280175   3.861   5.584  14.499 -0.3495 -0.2605  0.0492
19587TIP3    H180176   3.776   5.581  14.455 -1.0957  0.5954  1.3771
19587TIP3    H280177   3.865   5.502  14.548 -0.8372  0.1172  0.7316
19588TIP3   OH280178   3.680   2.606  13.381 -0.0571  0.1735 -0.0711
19588TIP3    H180179   3.645   2.604  13.291  0.6773 -0.3268 -0.3555
19588TIP3    H280180   3.638   2.532  13.425  2.1888 -1.8172 -1.0379
19589TIP3   OH280181   5.714   3.113   5.462 -0.0328  0.4308 -0.5546
19589TIP3    H180182   5.648   3.056   5.500 -1.3507  1.8247 -0.6746
19589TIP3    H280183   5.772   3.134   5.536 -1.2517  1.2753  0.2032
19590TIP3   OH280184   1.578   3.508   4.910  0.0172 -0.4004  0.0172
19590TIP3    H180185   1.599   3.594   4.873 -0.0888  0.4355  1.7810
19590TIP3    H280186   1.647   3.450   4.878  1.7776  1.0122  1.0970
19591TIP3   OH280187   1.097   6.558   2.297 -0.6302  0.5649 -0.1494
19591TIP3    H180188   1.108   6.641   2.251 -0.8113  1.0363  0.6377
19591TIP3    H280189   1.169   6.557   2.360 -1.3165  0.6864  0.6560
19592TIP3   OH280190   1.414   1.604  15.780 -0.4775 -0.0658  0.0879
19592TIP3    H180191   1.437   1.668  15.712 -0.9369 -0.5966 -0.5809
19592TIP3    H280192   1.495   1.592  15.830 -0.3807  1.0284  0.2293
19593TIP3   OH280193   2.857   5.621  11.785  0.6595  0.1586  0.2614
19593TIP3    H180194   2.929   5.682  11.770  1.7421 -1.4473 -1.7592
19593TIP3    H280195   2.782   5.659  11.739  0.2396  1.6669  2.0762
19594TIP3   OH280196   0.488   4.220  14.991 -0.0212  0.4045  0.2511
19594TIP3    H180197   0.422   4.283  14.962  0.8201  1.4474  0.5222
19594TIP3    H280198   0.514   4.174  14.912  0.5577  1.5774 -0.2609
19595TIP3   OH280199   0.453   6.148  13.161  0.0051  0.6985 -0.0540
19595TIP3    H180200   0.516   6.075  13.156  0.1608  0.7144  1.3593
19595TIP3    H280201   0.409   6.136  13.245  0.7241  2.7783  0.6921
19596TIP3   OH280202   5.654   1.559   3.665 -0.3628 -0.0296 -0.7302
19596TIP3    H180203   5.740   1.559   3.625 -0.7646  0.8263 -1.6433
19596TIP3    H280204   5.661   1.619   3.740  0.1612 -0.9717 -0.0038
19597TIP3   OH280205   0.605   1.567   3.087  1.0713 -0.1626 -0.5931
19597TIP3    H180206   0.518   1.544   3.118  0.7390 -0.4628 -1.6800
19597TIP3    H280207   0.653   1.484   3.084  1.2755 -0.0536 -0.3430
19598TIP3   OH280208   3.897   5.462   1.151 -0.4251  0.4267 -1.0750
19598TIP3    H180209   3.898   5.462   1.055  0.4721  0.6936 -1.0772
19598TIP3    H280210   3.872   5.373   1.175  0.5555 -0.0051 -1.5754
19599TIP3   OH280211   2.811   6.298   0.241  0.5149  0.3316 -0.1025
19599TIP3    H180212   2.841   6.270   0.154  1.4083  0.1090  0.2665
19599TIP3    H280213   2.864   6.248   0.302 -0.3542  0.2210  0.5867
19600TIP3   OH280214   0.478   6.256   2.032 -0.1414 -0.4633 -0.0304
19600TIP3    H180215   0.572   6.266   2.016 -0.0345 -0.8980  0.3056
19600TIP3    H280216   0.464   6.161   2.035 -0.3708 -0.4110  1.1412
19601TIP3   OH280217   0.775   4.714   5.029  0.1027 -1.0564 -0.1419
19601TIP3    H180218   0.843   4.754   5.084  0.4518  0.8246 -1.8396
19601TIP3    H280219   0.762   4.776   4.957 -3.2015 -1.4698 -0.0788
19602TIP3   OH280220   2.422   3.868  16.166 -0.3576 -0.3929  0.0315
19602TIP3    H180221   2.359   3.851  16.236 -1.6540  2.5078 -0.3067
19602TIP3    H280222   2.427   3.785  16.119 -1.7344 -1.5412  1.7553
19603TIP3   OH280223   4.358   4.923   2.147  0.3709  0.4061 -0.2431
19603TIP3    H180224   4.352   4.833   2.115  0.5080 -0.1140  1.1262
19603TIP3    H280225   4.414   4.918   2.224 -1.4857  1.2389  1.2675
19604TIP3   OH280226   4.146   5.209   6.002  0.3187 -0.2420 -0.2967
19604TIP3    H180227   4.076   5.261   5.962 -0.3516  0.4337  1.6107
19604TIP3    H280228   4.113   5.190   6.090  2.1348 -0.7655  0.3046
19605TIP3   OH280229   1.652   3.941   5.166  0.0053  0.0534 -0.8106
19605TIP3    H180230   1.583   3.877   5.181 -0.7675  0.8747 -0.7433
19605TIP3    H280231   1.731   3.889   5.152  0.0036 -0.8870  2.0571
19606TIP3   OH280232   3.338   6.105  15.202  0.1041 -0.6672 -0.0024
19606TIP3    H180233   3.250   6.138  15.182  0.5022  0.4097 -0.0066
19606TIP3    H280234   3.332   6.074  15.292 -0.5008 -1.4117 -0.2796
19607TIP3   OH280235   2.144   5.140   1.421 -0.5700  0.0866 -0.3935
19607TIP3    H180236   2.194   5.197   1.363  0.0242  0.2311  0.2515
19607TIP3    H280237   2.053   5.165   1.407 -0.2617  2.2089  0.8969
19608TIP3   OH280238   5.964   4.093  17.264  0.3981  0.3287  0.1570
19608TIP3    H180239   5.947   4.008  17.304 -2.3825  0.8318  0.2670
19608TIP3    H280240   6.050   4.084  17.223 -0.2655 -2.8857 -0.7894
19609TIP3   OH280241   0.192   5.200   2.707  0.2080  0.6117  0.4076
19609TIP3    H180242   0.236   5.266   2.653  1.6688 -1.6436 -1.3511
19609TIP3    H280243   0.261   5.139   2.733 -1.5563 -2.5946 -1.6736
19610TIP3   OH280244   0.567   1.031  14.492 -0.4956 -0.3993 -0.5434
19610TIP3    H180245   0.607   0.996  14.572  0.5295 -1.5598 -1.5199
19610TIP3    H280246   0.640   1.040  14.431 -1.2087  0.8113 -1.2431
19611TIP3   OH280247   2.795   3.817  13.913 -0.0464  0.7416  0.4657
19611TIP3    H180248   2.772   3.871  13.838 -1.6669  1.0419  1.1231
19611TIP3    H280249   2.721   3.757  13.923  0.3939  0.3411  1.4712
19612TIP3   OH280250   0.373   0.461   4.369 -0.1576  0.3257  0.1484
19612TIP3    H180251   0.360   0.500   4.455  0.4647  0.3060  0.2494
19612TIP3    H280252   0.329   0.521   4.309  1.0620  1.3550  0.2694
19613TIP3   OH280253   6.140   2.027   1.429  0.2627 -0.5937 -0.4219
19613TIP3    H180254   6.163   2.007   1.519  0.2953 -0.1642 -0.3309
19613TIP3    H280255   6.220   2.063   1.391  0.4738 -1.4784 -0.8461
19614TIP3   OH280256   2.084   1.087  16.812  0.2255 -0.0091 -0.5358
19614TIP3    H180257   2.054   1.129  16.732 -0.2808  1.9065  0.5873
19614TIP3    H280258   2.158   1.141  16.841 -1.3035  1.0431  1.6827
19615TIP3   OH280259   5.295   4.520  16.402 -0.2490  0.1581  0.2239
19615TIP3    H180260   5.388   4.541  16.411  0.2278 -2.1271  1.4518
19615TIP3    H280261   5.251   4.574  16.467  0.5557 -0.4971  1.3362
19616TIP3   OH280262   4.820   1.348   2.157 -0.8185  0.1164 -0.9254
19616TIP3    H180263   4.735   1.325   2.195 -0.0351  0.7064  1.3697
19616TIP3    H280264   4.877   1.361   2.233  1.0621  0.7773 -2.3733
19617TIP3   OH280265   3.949   1.024   3.350 -0.7141 -0.1093  0.5077
19617TIP3    H180266   4.022   1.020   3.411 -0.2009  0.0670 -0.0801
19617TIP3    H280267   3.880   1.070   3.398  0.0577  0.9970  0.5947
19618TIP3   OH280268   3.689   6.261  10.786  0.4012 -0.3785  0.2080
19618TIP3    H180269   3.757   6.277  10.852  0.8893  0.4138 -0.4670
19618TIP3    H280270   3.676   6.347  10.745 -0.9639 -0.5338  0.2835
19619TIP3   OH280271   0.776   5.717  14.131  0.5476 -0.0538  0.1624
19619TIP3    H180272   0.823   5.637  14.151  3.0009  0.6197 -2.3741
19619TIP3    H280273   0.733   5.700  14.047 -0.5741  0.6448  0.5680
19620TIP3   OH280274   4.954   4.973   0.290 -0.4720  0.1042  0.0778
19620TIP3    H180275   4.959   4.880   0.269 -0.6595  0.1326 -0.0912
19620TIP3    H280276   4.960   4.977   0.386  2.8505  0.1121 -0.0240
19621TIP3   OH280277   6.144   1.686  16.099 -0.3210 -0.3955 -0.1680
19621TIP3    H180278   6.239   1.700  16.089 -0.3424 -0.4316 -0.4429
19621TIP3    H280279   6.127   1.604  16.053 -0.3530 -0.8376  0.6271
19622TIP3   OH280280   4.465   0.305   3.034 -0.0558 -0.1331 -0.2955
19622TIP3    H180281   4.549   0.314   3.080 -0.0058  0.5931 -0.5230
19622TIP3    H280282   4.402   0.347   3.091 -0.1574 -0.0910 -0.4403
19623TIP3   OH280283   6.223   3.061  15.712 -0.6652 -0.3424  0.1518
19623TIP3    H180284   6.273   3.132  15.670 -1.3431 -0.1683 -0.3657
19623TIP3    H280285   6.290   2.998  15.738 -0.1708 -0.1714 -0.6542
19624TIP3   OH280286   6.285   5.748  11.737  0.3485 -0.0141 -0.3066
19624TIP3    H180287   6.270   5.722  11.828 -1.1536 -0.2626 -0.6045
19624TIP3    H280288   6.325   5.671  11.696  0.7586 -0.0036  0.0725
19625TIP3   OH280289   2.335   0.006  14.402  0.0932  0.5582  0.4105
19625TIP3    H180290   2.318   0.100  14.409  0.0542  0.5774  0.0728
19625TIP3    H280291   2.307  -0.017  14.313  1.9058  0.5980 -0.2051
19626TIP3   OH280292   2.331   3.149   4.101 -0.0972  0.1242 -0.2475
19626TIP3    H180293   2.368   3.091   4.167 -0.2405  0.1075 -0.1812
19626TIP3    H280294   2.326   3.234   4.145 -0.3092  0.0850 -0.1956
19627TIP3   OH280295   4.379   1.211   3.837 -0.5606  0.0545 -0.3319
19627TIP3    H180296   4.297   1.224   3.790 -0.9187 -2.1302 -0.4243
19627TIP3    H280297   4.367   1.257   3.920 -0.7188  2.1845 -1.4641
19628TIP3   OH280298   5.927   6.411  14.233  0.2149 -0.3492  0.1137
19628TIP3    H180299   5.943   6.463  14.311  0.3167 -0.6351  0.2851
19628TIP3    H280300   5.875   6.468  14.176  1.1500  0.3015 -0.1201
19629TIP3   OH280301   0.558   4.841  17.216  0.5376  0.0870 -0.8952
19629TIP3    H180302   0.632   4.799  17.261 -1.6493 -2.5493  0.5636
19629TIP3    H280303   0.486   4.836  17.279 -1.6577 -0.1778 -3.2799
19630TIP3   OH280304   0.546   1.990   3.685 -0.4833  0.0191  0.2203
19630TIP3    H180305   0.640   1.976   3.695 -0.2509 -0.4653 -2.1390
19630TIP3    H280306   0.507   1.902   3.693 -0.3526 -0.2884 -1.8961
19631TIP3   OH280307   4.215   5.143   3.201 -0.2906  0.5814  0.2616
19631TIP3    H180308   4.243   5.072   3.143 -0.5899  0.6152  0.0763
19631TIP3    H280309   4.295   5.193   3.217 -0.3522  1.0311 -0.7536
19632TIP3   OH280310   1.210   4.567  12.494  0.2427 -0.4978  0.4089
19632TIP3    H180311   1.115   4.570  12.479  0.0961 -2.5963  0.5925
19632TIP3    H280312   1.228   4.644  12.548 -0.8292  1.6227 -2.0237
19633TIP3   OH280313   4.460   5.798  15.835  0.2361  0.2178  0.4091
19633TIP3    H180314   4.482   5.804  15.742  0.4978  1.4945  0.5350
19633TIP3    H280315   4.389   5.861  15.847 -2.2393 -2.3644  0.4174
19634TIP3   OH280316   3.287   3.194   5.555 -0.5994  0.2567 -0.0966
19634TIP3    H180317   3.269   3.244   5.475 -0.3783 -0.1025 -0.3708
19634TIP3    H280318   3.221   3.225   5.617 -1.0524  0.2205 -0.5517
19635TIP3   OH280319   3.858   4.417   2.658  0.1087 -0.5170 -0.2981
19635TIP3    H180320   3.951   4.395   2.664  0.0658 -0.4763  0.6623
19635TIP3    H280321   3.825   4.361   2.588  1.1892  0.6563 -1.8202
19636TIP3   OH280322   1.341   6.718   3.826 -0.0910  0.4201  0.2451
19636TIP3    H180323   1.279   6.786   3.801 -0.3823 -0.0222 -0.2502
19636TIP3    H280324   1.419   6.765   3.853 -0.1101  0.9365 -0.5751
19637TIP3   OH280325   2.445   1.872  16.059 -0.7150  0.0518  0.7863
19637TIP3    H180326   2.474   1.841  15.973 -0.8599  2.1872 -0.0807
19637TIP3    H280327   2.526   1.895  16.105 -0.5763 -1.8798  1.5955
19638TIP3   OH280328   6.310   5.222  16.049  0.1839  0.3126  0.3106
19638TIP3    H180329   6.350   5.251  15.967  2.2848 -2.4852  0.1581
19638TIP3    H280330   6.366   5.258  16.118 -0.0473  0.5642  0.3656
19639TIP3   OH280331   3.650   2.947  17.140 -0.1734 -0.0346  0.2505
19639TIP3    H180332   3.635   2.958  17.047 -0.6235 -1.5249  0.1232
19639TIP3    H280333   3.651   2.852  17.154  1.7481  0.1005  1.4602
19640TIP3   OH280334   2.527   5.824   3.944 -0.3423 -0.1539  0.1581
19640TIP3    H180335   2.582   5.845   3.869 -1.3328 -0.6884 -0.7518
19640TIP3    H280336   2.542   5.896   4.006  2.6741 -1.1509  0.7435
19641TIP3   OH280337   2.390   4.416  14.387 -0.0674  0.4284 -0.0273
19641TIP3    H180338   2.314   4.455  14.344 -1.4121  1.4443  2.9856
19641TIP3    H280339   2.359   4.392  14.475  2.1077 -2.7567  0.0660
19642TIP3   OH280340   2.697   4.877  11.773  0.0250 -0.4962  1.3113
19642TIP3    H180341   2.656   4.803  11.817 -0.3059  0.1710  2.1441
19642TIP3    H280342   2.632   4.946  11.775  0.5283 -0.0036  1.0180
19643TIP3   OH280343   6.015   4.228  12.739 -0.5013 -0.7942 -0.2077
19643TIP3    H180344   6.084   4.231  12.805 -1.3439 -3.2429  0.8854
19643TIP3    H280345   5.983   4.318  12.733  1.2899 -0.0413  0.8430
19644TIP3   OH280346   5.790   4.016   1.017 -0.1103 -0.0272  0.8509
19644TIP3    H180347   5.702   3.978   1.017 -1.2052  2.2992  0.3751
19644TIP3    H280348   5.828   3.986   1.099 -1.6649 -0.4427  1.4730
19645TIP3   OH280349   6.757   4.166   0.994 -0.2788  0.2480  0.1891
19645TIP3    H180350   6.758   4.071   1.007 -2.9508  0.4217  2.7203
19645TIP3    H280351   6.693   4.198   1.058 -0.2487  3.6754 -1.2997
19646TIP3   OH280352   0.994   0.901  11.451 -0.0169  0.1490 -0.4517
19646TIP3    H180353   0.949   0.874  11.531 -0.6050  1.3364 -0.3555
19646TIP3    H280354   0.929   0.889  11.382  0.9765 -2.3442 -1.0384
19647TIP3   OH280355   4.346   2.971  11.522 -0.4309  0.4308 -0.0660
19647TIP3    H180356   4.326   3.041  11.461  1.2464  1.1676  0.1937
19647TIP3    H280357   4.360   2.894  11.466 -0.5356  0.7080 -0.4795
19648TIP3   OH280358   6.607   2.550  15.934 -0.4021  0.4427  0.3545
19648TIP3    H180359   6.525   2.506  15.912  0.5913 -1.7097  0.7298
19648TIP3    H280360   6.581   2.617  15.998 -1.8427 -0.3434  0.6414
19649TIP3   OH280361   6.395   1.062  11.927 -0.4633 -0.0731  0.2774
19649TIP3    H180362   6.411   1.139  11.872 -0.6303  0.1240  0.5060
19649TIP3    H280363   6.417   1.091  12.016  2.5979 -1.1886  0.0019
19650TIP3   OH280364   4.717   2.326   3.351  0.7975 -0.2266  0.2208
19650TIP3    H180365   4.680   2.415   3.356  0.7749 -0.2018 -0.3047
19650TIP3    H280366   4.743   2.306   3.441 -2.7433 -1.2047  1.1713
19651TIP3   OH280367   6.759   5.157   5.873 -0.3493 -0.2114 -1.0769
19651TIP3    H180368   6.671   5.162   5.909 -0.1910 -0.6152 -0.6228
19651TIP3    H280369   6.757   5.081   5.814 -0.3882 -0.0324 -1.3086
19652TIP3   OH280370   3.943   2.414  10.854  0.1842  0.0498  0.0114
19652TIP3    H180371   4.024   2.457  10.828 -0.6820  1.4560 -0.5138
19652TIP3    H280372   3.880   2.437  10.785 -1.0395  0.2513  1.1530
19653TIP3   OH280373   4.149   5.463   1.367 -0.4385  0.7971  0.2072
19653TIP3    H180374   4.195   5.546   1.383 -0.9724  1.0839  0.2798
19653TIP3    H280375   4.063   5.489   1.335 -0.8117  0.2800  0.7610
19654TIP3   OH280376   5.459   2.226   0.457  0.0883  0.5024  0.3147
19654TIP3    H180377   5.552   2.231   0.434  0.0905  0.4222  0.3067
19654TIP3    H280378   5.425   2.154   0.403  0.1511  0.1309  0.7616
19655TIP3   OH280379   3.211   2.934  12.439 -0.1865 -0.0348 -0.1253
19655TIP3    H180380   3.145   2.865  12.446 -0.2239 -0.0654 -0.7668
19655TIP3    H280381   3.165   3.015  12.460 -0.0790 -0.2312  0.9123
19656TIP3   OH280382   2.948   3.438   1.525  0.7535 -0.0829 -0.4049
19656TIP3    H180383   3.022   3.430   1.585  0.6678  2.1326  0.0899
19656TIP3    H280384   2.964   3.372   1.458  1.2421 -2.1417  1.6047
19657TIP3   OH280385   3.419   3.151  16.433 -0.2303  0.2035 -0.0243
19657TIP3    H180386   3.325   3.154  16.417 -0.5697  2.2375  1.8101
19657TIP3    H280387   3.456   3.114  16.353 -2.6506 -2.0525 -0.2504
19658TIP3   OH280388   0.007   4.504  12.312 -0.0092  0.0755 -0.3781
19658TIP3    H180389  -0.050   4.448  12.260 -2.0310  0.8594  0.8894
19658TIP3    H280390   0.008   4.588  12.265 -0.7147  0.3667  0.1296
19659TIP3   OH280391   2.739   3.895  13.187  0.3608 -0.7649 -0.5266
19659TIP3    H180392   2.758   3.973  13.134  0.5211 -0.6239 -0.2607
19659TIP3    H280393   2.650   3.909  13.219  0.9737  0.1092  0.8978
19660TIP3   OH280394   6.369   4.976  13.785  0.1375 -0.2796  0.4409
19660TIP3    H180395   6.421   4.897  13.774  1.4822  0.5404  0.7455
19660TIP3    H280396   6.406   5.039  13.724 -1.1276  0.0481 -0.0335
19661TIP3   OH280397   3.592   3.950   4.029 -0.1883  0.1707  0.4983
19661TIP3    H180398   3.556   3.944   3.941 -0.3204  0.0295  0.5606
19661TIP3    H280399   3.659   4.017   4.023 -1.3402  1.3917  0.6769
19662TIP3   OH280400   3.056   0.658  14.051 -0.3206 -0.3477 -0.3920
19662TIP3    H180401   2.971   0.688  14.083  0.1639  0.6947 -0.0044
19662TIP3    H280402   3.118   0.723  14.086  0.4762 -0.3750 -1.6920
19663TIP3   OH280403   0.418   1.203   6.144 -0.5426  0.2926 -0.4940
19663TIP3    H180404   0.346   1.144   6.123  0.2563 -0.5431 -0.9837
19663TIP3    H280405   0.492   1.145   6.163 -0.0313  1.1230  0.1554
19664TIP3   OH280406   2.703   3.076   1.556  0.4263  0.3907 -0.6536
19664TIP3    H180407   2.718   3.123   1.637  2.5656 -0.3174 -0.5640
19664TIP3    H280408   2.762   3.118   1.493  2.3323 -1.9633 -0.5902
19665TIP3   OH280409   1.434   2.012  14.179 -0.1542 -0.2578 -0.1828
19665TIP3    H180410   1.396   2.038  14.096 -0.1185  1.7510  0.3755
19665TIP3    H280411   1.361   1.978  14.230 -0.1719 -1.5096 -1.0113
19666TIP3   OH280412   0.630   5.732   0.203 -0.3494  0.0292  0.5356
19666TIP3    H180413   0.679   5.698   0.278  0.1947  0.4043  0.3625
19666TIP3    H280414   0.689   5.719   0.129 -0.6650  0.1563  0.2615
19667TIP3   OH280415   0.113   2.605  16.269  0.0253  0.2297  0.7875
19667TIP3    H180416   0.068   2.672  16.320  0.5202 -0.5661  2.3423
19667TIP3    H280417   0.052   2.532  16.266 -0.7536  0.9169 -1.4159
19668TIP3   OH280418   1.340   2.562  12.311 -0.7744 -0.3939 -0.3141
19668TIP3    H180419   1.281   2.560  12.236  0.6364  1.1769 -1.5379
19668TIP3    H280420   1.412   2.504  12.287 -0.2030  0.2941 -0.2796
19669TIP3   OH280421   1.061   0.707   0.508  0.3324  0.0895  0.5652
19669TIP3    H180422   1.137   0.649   0.510  0.9588  0.8495 -0.5301
19669TIP3    H280423   1.088   0.784   0.558  0.9271  1.0854 -1.2135
19670TIP3   OH280424   5.346   5.333  15.955 -0.2285  0.5797  0.0734
19670TIP3    H180425   5.257   5.366  15.967 -1.3797 -1.8955 -0.7778
19670TIP3    H280426   5.383   5.328  16.043 -1.8904 -0.6306  0.7643
19671TIP3   OH280427   5.709   6.573  16.251  0.3332 -0.4241  0.0504
19671TIP3    H180428   5.717   6.513  16.325  2.0943 -1.3903 -0.8541
19671TIP3    H280429   5.800   6.590  16.224 -0.1321  2.3831  0.0387
19672TIP3   OH280430   2.639   0.489   3.793  0.0090 -0.2342 -0.0216
19672TIP3    H180431   2.607   0.557   3.853  1.6302 -0.2143  0.8903
19672TIP3    H280432   2.723   0.523   3.761 -0.9361 -0.0913 -2.6274
19673TIP3   OH280433   3.847   5.792   3.946  0.0107  0.4264  0.2602
19673TIP3    H180434   3.796   5.834   3.877 -0.3005 -1.2155 -0.5590
19673TIP3    H280435   3.907   5.860   3.977 -0.6983  1.5498 -0.7612
19674TIP3   OH280436   4.452   6.528   5.197 -0.0583  0.0246 -0.0040
19674TIP3    H180437   4.533   6.568   5.166 -0.3349 -2.2396 -4.4801
19674TIP3    H280438   4.382   6.576   5.151 -0.8546 -1.1921 -0.1056
19675TIP3   OH280439   3.110   4.582   5.665 -0.4643 -0.0331  0.0078
19675TIP3    H180440   3.200   4.576   5.635 -0.2258  0.2614  0.6420
19675TIP3    H280441   3.089   4.494   5.695 -0.3574 -0.0783 -0.0502
19676TIP3   OH280442   4.265   4.446   3.398 -0.3378  0.6507  0.5235
19676TIP3    H180443   4.349   4.493   3.397 -0.3425  0.6561  0.3705
19676TIP3    H280444   4.204   4.506   3.440  0.2349 -0.1994  2.7525
19677TIP3   OH280445   2.436   1.898   2.348 -0.0249  0.2959 -0.1603
19677TIP3    H180446   2.498   1.935   2.411 -1.0863  3.6860 -0.8886
19677TIP3    H280447   2.350   1.910   2.389 -0.5939  0.9471 -1.4871
19678TIP3   OH280448   4.096   6.584  11.359  0.1000 -0.4608 -0.3334
19678TIP3    H180449   4.107   6.675  11.385  0.7436 -0.7265  0.3532
19678TIP3    H280450   4.172   6.565  11.305 -0.3954 -0.3908 -1.0676
19679TIP3   OH280451   6.085   0.890  12.812 -0.1776  0.5775  0.5992
19679TIP3    H180452   6.120   0.843  12.887  0.2276 -1.4303 -0.7922
19679TIP3    H280453   6.025   0.955  12.851  0.1513 -0.2683  2.6398
19680TIP3   OH280454   3.990   3.640   1.444  0.5578  0.0263  0.1290
19680TIP3    H180455   4.045   3.609   1.372  0.6658 -0.1962  0.3063
19680TIP3    H280456   3.901   3.637   1.408  0.4253 -1.6801  0.5346
19681TIP3   OH280457   6.637   2.626   0.614  0.2978 -0.0684  0.0467
19681TIP3    H180458   6.665   2.667   0.532 -0.4290  0.7071  0.1722
19681TIP3    H280459   6.696   2.663   0.680  1.4571 -1.3462 -0.2181
19682TIP3   OH280460   5.382   2.031   4.361 -0.0168 -0.2305  0.3687
19682TIP3    H180461   5.444   2.013   4.432  0.9815  0.4989 -0.2819
19682TIP3    H280462   5.303   2.063   4.405 -0.4090 -2.3282  1.2924
19683TIP3   OH280463   2.338   3.164  15.466  0.1949 -0.0113  0.9340
19683TIP3    H180464   2.370   3.240  15.418  2.4830  0.2516  2.7159
19683TIP3    H280465   2.367   3.089  15.414 -1.1973  0.2622 -0.3054
19684TIP3   OH280466   6.323   2.247   6.151 -0.3075 -0.4471 -0.1963
19684TIP3    H180467   6.406   2.245   6.200 -0.8012  1.1138  0.7851
19684TIP3    H280468   6.342   2.199   6.070  1.5562 -0.1178 -0.0096
19685TIP3   OH280469   3.277   5.724   2.311 -0.4053 -0.2245  0.0453
19685TIP3    H180470   3.367   5.744   2.337  0.0628 -0.5127 -1.2527
19685TIP3    H280471   3.223   5.778   2.368  0.5808 -0.1224  0.9269
19686TIP3   OH280472   1.584   0.611  14.870  0.1820  0.1256 -0.0604
19686TIP3    H180473   1.616   0.522  14.852 -0.1449  0.1269 -0.6757
19686TIP3    H280474   1.592   0.657  14.786  0.3333  0.6780  0.2500
19687TIP3   OH280475   3.685   5.556  12.872 -0.0749 -0.0440 -0.2181
19687TIP3    H180476   3.689   5.505  12.790  0.8580  0.6284 -0.6111
19687TIP3    H280477   3.671   5.646  12.844  1.2450  0.3487  0.2727
19688TIP3   OH280478   3.330   3.509  17.157  0.2915  0.3440  0.5498
19688TIP3    H180479   3.241   3.545  17.158  0.0537 -0.2065 -0.0713
19688TIP3    H280480   3.360   3.517  17.247  0.0220  1.5380  0.5418
19689TIP3   OH280481   4.381   0.122  17.082 -0.3963  0.1486  0.8604
19689TIP3    H180482   4.383   0.051  17.146 -1.2471  0.7626  1.5956
19689TIP3    H280483   4.307   0.101  17.025  1.0997 -1.0553 -0.7594
19690TIP3   OH280484   5.237   1.320  14.387  0.6968  0.3611 -0.0204
19690TIP3    H180485   5.322   1.366  14.384  0.6609  0.3761 -1.7276
19690TIP3    H280486   5.190   1.362  14.459  2.1819  0.2602  1.0548
19691TIP3   OH280487   0.127   2.846   5.873 -0.3942 -0.5386 -0.0354
19691TIP3    H180488   0.100   2.780   5.936  0.4824 -0.7845  0.0944
19691TIP3    H280489   0.189   2.801   5.815 -1.8127 -0.5504 -1.6222
19692TIP3   OH280490   1.985   1.305  14.755 -0.0457  0.5578 -0.2078
19692TIP3    H180491   2.025   1.327  14.840 -0.6002 -0.2250  0.2712
19692TIP3    H280492   1.899   1.271  14.778 -0.2810  0.5386 -1.1119
19693TIP3   OH280493   2.469   3.556   3.460  0.1743  0.0710  0.0475
19693TIP3    H180494   2.451   3.463   3.442  0.0671  0.1782 -0.4378
19693TIP3    H280495   2.460   3.598   3.374 -0.1239  0.5844  0.3261
19694TIP3   OH280496   3.774   5.485   0.600  0.0731 -0.0888  0.2164
19694TIP3    H180497   3.729   5.403   0.582  0.8288 -0.2454 -1.1300
19694TIP3    H280498   3.866   5.461   0.605  0.1278  0.3855  1.8880
19695TIP3   OH280499   0.805   4.654   0.547 -0.0181  0.1399  0.3744
19695TIP3    H180500   0.896   4.638   0.520 -0.3025  0.6669 -0.9739
19695TIP3    H280501   0.799   4.749   0.555 -0.2644  0.0626  1.2010
19696TIP3   OH280502   5.908   5.874  15.508  0.2391  0.8614  0.4701
19696TIP3    H180503   5.830   5.818  15.512 -1.0108  2.6252  1.8786
19696TIP3    H280504   5.974   5.827  15.560 -0.5732  0.4027  1.0970
19697TIP3   OH280505   6.401   1.231  15.327 -0.1198  0.2462  0.7400
19697TIP3    H180506   6.380   1.162  15.389 -0.2689 -0.5054 -0.1280
19697TIP3    H280507   6.365   1.200  15.244 -0.4250  1.4889  0.3924
19698TIP3   OH280508   0.435   4.721   4.286  0.6112  0.5498  0.6156
19698TIP3    H180509   0.443   4.773   4.366 -2.9969 -0.2691  1.6879
19698TIP3    H280510   0.383   4.645   4.312  3.8180 -2.6009 -1.3985
19699TIP3   OH280511   0.888   1.977   3.285  0.2909  0.2355 -0.1288
19699TIP3    H180512   0.800   1.971   3.322  0.7930 -0.6638  0.9831
19699TIP3    H280513   0.889   1.911   3.216  0.4170 -0.5569  0.6063
19700TIP3   OH280514   1.232   4.404  11.313 -0.3630 -0.6018  0.0032
19700TIP3    H180515   1.173   4.455  11.257 -0.3274 -1.4999 -0.8878
19700TIP3    H280516   1.205   4.313  11.300  1.7736 -1.1419 -1.1685
19701TIP3   OH280517   2.252   6.351  16.775 -0.1546 -0.1572  0.2954
19701TIP3    H180518   2.260   6.258  16.793  2.3147  0.4456  3.1580
19701TIP3    H280519   2.190   6.383  16.840 -0.4180  0.3581 -0.1931
19702TIP3   OH280520   3.423   4.243  16.910  0.5507  0.0621 -0.5948
19702TIP3    H180521   3.331   4.261  16.889 -0.5819 -0.9119  2.9632
19702TIP3    H280522   3.442   4.160  16.865 -0.4110  0.0527 -0.9987
19703TIP3   OH280523   6.535   4.835   2.252  0.1590 -0.2868 -0.0256
19703TIP3    H180524   6.511   4.818   2.343 -0.2231 -2.1952 -0.4234
19703TIP3    H280525   6.488   4.767   2.203  2.5861 -1.1150 -1.3412
19704TIP3   OH280526   5.319   1.914   5.754 -0.4658 -0.3189  0.0751
19704TIP3    H180527   5.415   1.910   5.762  0.0543  0.8888 -3.5684
19704TIP3    H280528   5.292   1.822   5.750  0.3491 -0.7027  2.0103
19705TIP3   OH280529   4.179   5.888   0.825 -0.3442  0.1929 -0.2216
19705TIP3    H180530   4.165   5.905   0.918 -0.1979  0.2663 -0.2138
19705TIP3    H280531   4.259   5.936   0.803 -0.4162  0.2314 -0.4009
19706TIP3   OH280532   4.620   0.425  13.246 -0.1874  0.4569 -0.2073
19706TIP3    H180533   4.550   0.438  13.182 -0.1362  0.5648 -0.2407
19706TIP3    H280534   4.656   0.339  13.226 -0.4356  0.3204 -0.0730
19707TIP3   OH280535   4.215   4.761  12.593 -0.3221 -0.1705 -0.1847
19707TIP3    H180536   4.193   4.682  12.543 -0.2362 -0.3326  0.0313
19707TIP3    H280537   4.307   4.751  12.614 -0.2789  0.0518 -0.2688
19708TIP3   OH280538   3.440   4.457   1.827  0.0219  0.3182  0.1315
19708TIP3    H180539   3.495   4.423   1.756  0.1620  0.0795  0.3547
19708TIP3    H280540   3.495   4.523   1.870 -0.4694  1.3106 -0.6937
19709TIP3   OH280541   5.738   1.247  12.906  0.1387 -0.8269  0.2108
19709TIP3    H180542   5.789   1.178  12.865  1.1321 -1.9839  3.1539
19709TIP3    H280543   5.656   1.249  12.857  0.9101 -2.6560 -1.2414
19710TIP3   OH280544   3.995   6.061   0.242 -0.2161  0.1605 -0.4207
19710TIP3    H180545   4.031   5.985   0.196  1.1005  0.2443  0.4387
19710TIP3    H280546   3.910   6.076   0.199  0.1813 -0.8384 -1.6240
19711TIP3   OH280547   4.339   0.887  14.388  0.0034 -0.2396  0.0354
19711TIP3    H180548   4.261   0.942  14.386  0.2832  0.1467 -0.3703
19711TIP3    H280549   4.381   0.907  14.471 -0.4083 -0.5576  0.3199
19712TIP3   OH280550   0.996   6.360  12.640  0.1116  0.3591  0.1731
19712TIP3    H180551   0.966   6.293  12.702  0.0739  1.4726  1.4134
19712TIP3    H280552   1.084   6.332  12.614  1.1707  1.0824  2.6893
19713TIP3   OH280553   0.132   2.895  15.512 -0.3762 -0.2917 -0.2034
19713TIP3    H180554   0.154   2.837  15.585  0.2168 -0.9812 -0.9084
19713TIP3    H280555   0.145   2.983  15.546  1.7480 -0.6231 -0.0127
19714TIP3   OH280556   0.257   2.495  15.039  0.2857 -0.0682  0.1356
19714TIP3    H180557   0.290   2.581  15.012  1.1309 -0.0533  1.1353
19714TIP3    H280558   0.267   2.440  14.962 -2.8635  1.3370 -1.4791
19715TIP3   OH280559   5.545   0.269   3.567 -0.3691  0.8346 -0.3455
19715TIP3    H180560   5.510   0.288   3.480 -1.2166  1.1416  0.0477
19715TIP3    H280561   5.556   0.174   3.569  2.2889  1.0140 -1.7349
19716TIP3   OH280562   0.854   0.034   0.784  0.2420  0.1138 -0.2420
19716TIP3    H180563   0.768   0.049   0.744  0.1050  1.2277  0.4437
19716TIP3    H280564   0.915   0.029   0.709  0.0412  2.4567 -0.6235
19717TIP3   OH280565   0.375   0.611   4.155 -0.3857 -0.4229 -0.4873
19717TIP3    H180566   0.375   0.676   4.226 -1.5570  0.1519 -0.9898
19717TIP3    H280567   0.460   0.623   4.112 -0.9661  1.4948 -1.1828
19718TIP3   OH280568   0.346   4.819   5.405 -0.5801  0.1240 -0.6151
19718TIP3    H180569   0.409   4.831   5.334  1.4929 -3.8909  0.2398
19718TIP3    H280570   0.264   4.798   5.361  0.2988 -0.8300 -1.8862
19719TIP3   OH280571   3.094   5.026  15.106  0.0743 -0.2926 -0.1176
19719TIP3    H180572   3.022   5.087  15.086  1.5570  2.2031  1.6068
19719TIP3    H280573   3.077   4.999  15.197  0.4174 -1.0225 -0.2689
19720TIP3   OH280574   1.603   2.572  12.987  0.3333  0.1339  0.0867
19720TIP3    H180575   1.565   2.484  12.985  0.0691  0.2336  0.7606
19720TIP3    H280576   1.528   2.631  12.990  0.4925  0.4154 -0.8512
19721TIP3   OH280577   3.538   2.194  15.211  0.1376 -0.4549  0.4603
19721TIP3    H180578   3.565   2.276  15.170 -0.6212 -0.5869 -0.3524
19721TIP3    H280579   3.596   2.128  15.173  0.1040 -0.4307  0.3668
19722TIP3   OH280580   4.698   6.701   0.777 -0.1678  0.6918  0.0794
19722TIP3    H180581   4.713   6.622   0.724  0.3414  0.8728 -0.0508
19722TIP3    H280582   4.751   6.769   0.735 -0.0576  0.9318  0.5953
19723TIP3   OH280583   6.519   3.958  17.094  0.1018  0.0622 -0.2408
19723TIP3    H180584   6.482   4.047  17.093 -1.3530 -0.5090  0.5550
19723TIP3    H280585   6.545   3.943  17.003  0.0442  1.1644 -0.4635
19724TIP3   OH280586   3.916   3.917   4.093 -0.2205  0.2493 -0.3823
19724TIP3    H180587   3.963   3.984   4.142 -0.1070  0.3214 -0.5869
19724TIP3    H280588   3.955   3.920   4.005  0.7998 -1.0834 -0.0007
19725TIP3   OH280589   3.016   3.246  11.613 -0.0698 -0.1869 -0.3333
19725TIP3    H180590   3.069   3.243  11.693  0.0052  2.7980 -0.1528
19725TIP3    H280591   3.081   3.250  11.542  0.0150  1.8107 -0.2047
19726TIP3   OH280592   2.773   4.263   2.108  0.7157 -0.3532  0.4339
19726TIP3    H180593   2.730   4.317   2.042  1.2987 -0.8068 -0.3373
19726TIP3    H280594   2.703   4.206   2.141  0.3592  0.0599  0.4084
19727TIP3   OH280595   1.169   0.325  13.823 -0.2631  0.0191  0.1642
19727TIP3    H180596   1.159   0.420  13.822  2.5627  0.3957  0.1107
19727TIP3    H280597   1.190   0.304  13.914 -0.9753 -0.5993  0.1993
19728TIP3   OH280598   5.293   0.188   0.810  0.1825  0.3828  0.0035
19728TIP3    H180599   5.292   0.179   0.715 -1.7104  1.5326 -0.1446
19728TIP3    H280600   5.269   0.101   0.843 -4.1888  1.0397 -0.8446
19729TIP3   OH280601   6.451   3.271  14.977  0.2210  0.1463 -0.4263
19729TIP3    H180602   6.409   3.327  15.043  0.3345  2.2517 -2.0434
19729TIP3    H280603   6.403   3.288  14.897  0.5952 -1.7679 -1.0967
19730TIP3   OH280604   6.446   0.819   2.905 -0.2825 -0.4820  0.3603
19730TIP3    H180605   6.477   0.831   2.815  1.1217 -0.4583  0.8194
19730TIP3    H280606   6.395   0.898   2.924 -0.2388 -0.2937 -0.2774
19731TIP3   OH280607   4.281   2.988   1.065  0.0429 -0.1420  0.0755
19731TIP3    H180608   4.319   2.916   1.116 -0.2607 -0.4231 -0.0880
19731TIP3    H280609   4.234   3.040   1.130  0.7500  0.2448  0.2902
19732TIP3   OH280610   1.111   2.721  14.259 -0.4554  0.4453  1.2479
19732TIP3    H180611   1.135   2.771  14.181  0.1356 -0.5522  0.7641
19732TIP3    H280612   1.178   2.744  14.324 -0.4883  0.6739  1.2011
19733TIP3   OH280613   2.479   1.249  14.961  0.2212 -0.3080 -0.4036
19733TIP3    H180614   2.547   1.186  14.939  1.7600  0.8795  0.7455
19733TIP3    H280615   2.466   1.239  15.055  0.2812  0.8406 -0.2505
19734TIP3   OH280616   4.920   3.199  15.035  0.1870 -0.8015  0.1536
19734TIP3    H180617   4.905   3.161  14.948  1.5356  0.4449 -0.6687
19734TIP3    H280618   4.861   3.275  15.039  0.4061 -0.6319  0.1747
19735TIP3   OH280619   5.509   0.803  15.374  0.0968 -0.1851  0.7089
19735TIP3    H180620   5.568   0.825  15.446  0.0860  0.7427  0.4411
19735TIP3    H280621   5.471   0.886  15.346  1.0810 -0.3270 -1.2345
19736TIP3   OH280622   2.373   2.938  13.939 -0.3297  0.2758  0.0778
19736TIP3    H180623   2.415   2.888  14.009 -1.4504 -0.0860  0.5154
19736TIP3    H280624   2.350   2.873  13.873 -0.3981  0.4358 -0.0571
19737TIP3   OH280625   1.203   3.072   3.175  0.2446  0.3987 -0.1299
19737TIP3    H180626   1.168   3.060   3.263 -3.3547 -1.1899 -1.5849
19737TIP3    H280627   1.159   3.151   3.141 -2.5830 -1.8383 -2.1367
19738TIP3   OH280628   4.873   0.693  11.663 -0.1628 -0.0323 -0.0995
19738TIP3    H180629   4.896   0.621  11.604 -0.1174  1.0926 -1.5088
19738TIP3    H280630   4.778   0.694  11.664 -0.1698 -0.4531  0.3871
19739TIP3   OH280631   3.211   0.083  16.334  0.2215  0.0728  0.5964
19739TIP3    H180632   3.173   0.150  16.277  3.3693  1.8145  0.3042
19739TIP3    H280633   3.259   0.026  16.274  1.4473  0.4087  1.2213
19740TIP3   OH280634   0.652   2.968   3.922 -0.1124  0.0867  0.0836
19740TIP3    H180635   0.577   3.014   3.884 -0.1541  0.1128  0.1995
19740TIP3    H280636   0.614   2.892   3.966  0.0727 -0.8569 -1.3228
19741TIP3   OH280637   5.049   1.443   3.462  0.2746  0.1951  0.7271
19741TIP3    H180638   5.070   1.351   3.448 -2.7109 -0.6376  1.0814
19741TIP3    H280639   5.057   1.482   3.375 -2.0606 -1.2952 -0.2461
19742TIP3   OH280640   1.095   0.958   2.550  0.4046 -0.6378  0.1232
19742TIP3    H180641   1.073   0.907   2.471 -0.7878  0.1472 -0.0634
19742TIP3    H280642   1.108   1.047   2.518 -2.7054  0.2933  1.0816
19743TIP3   OH280643   2.176   6.403  12.970  0.0795 -0.3069  0.0963
19743TIP3    H180644   2.252   6.359  12.931  1.2004 -0.4297  2.3064
19743TIP3    H280645   2.166   6.483  12.918  0.3939 -1.2733 -1.5372
19744TIP3   OH280646   6.288   2.709  12.721 -0.1534 -0.6025 -0.2402
19744TIP3    H180647   6.364   2.653  12.708 -0.1679 -0.4876 -0.8682
19744TIP3    H280648   6.255   2.686  12.807  0.2979 -1.0088 -0.1742
19745TIP3   OH280649   3.767   4.379   1.575  0.0259 -0.0897  0.1053
19745TIP3    H180650   3.672   4.374   1.564 -0.0022  0.6002 -0.0247
19745TIP3    H280651   3.796   4.436   1.504  0.9439 -2.8613 -1.9603
19746TIP3   OH280652   1.295   2.678   4.065  0.0549 -0.6471 -0.5755
19746TIP3    H180653   1.253   2.749   4.018 -1.0187  0.5274  1.9676
19746TIP3    H280654   1.388   2.687   4.044 -0.3746 -0.2781 -2.4796
19747TIP3   OH280655   2.821   3.554  16.561  0.7308  0.0220  0.1873
19747TIP3    H180656   2.745   3.540  16.616  0.9109  0.0632  0.4462
19747TIP3    H280657   2.838   3.648  16.566  0.8764 -0.0069  0.2317
19748TIP3   OH280658   2.924   6.173   4.059  0.2375  0.2480  0.5933
19748TIP3    H180659   3.000   6.115   4.066  1.7964  2.2508  1.2434
19748TIP3    H280660   2.920   6.197   3.967  0.6274  0.4110  0.6160
19749TIP3   OH280661   3.253   3.397  10.378  0.7026 -0.1771  0.1344
19749TIP3    H180662   3.236   3.452  10.454 -1.2732 -0.0763 -0.3231
19749TIP3    H280663   3.265   3.309  10.414 -1.5123 -0.3779  0.5565
19750TIP3   OH280664   3.591   6.039  10.657  0.5197 -0.0040 -0.1759
19750TIP3    H180665   3.636   6.108  10.706 -0.1666  0.5784 -0.3488
19750TIP3    H280666   3.508   6.028  10.702  0.9685 -1.3593  0.3867
19751TIP3   OH280667   3.304   3.144  13.393 -0.1020 -0.2024 -0.5580
19751TIP3    H180668   3.360   3.068  13.375 -1.6650 -1.6901  0.5527
19751TIP3    H280669   3.241   3.112  13.457 -1.8094  1.5926 -1.2533
19752TIP3   OH280670   2.670   2.033  12.165 -0.0036 -0.8676 -0.2595
19752TIP3    H180671   2.669   2.117  12.119  1.2124  0.1896  1.5064
19752TIP3    H280672   2.609   2.046  12.238  1.5285 -0.8278  1.0717
19753TIP3   OH280673   4.742   4.267   3.787  0.9198 -0.0947  0.0121
19753TIP3    H180674   4.694   4.220   3.855 -0.0803  1.4644  0.4513
19753TIP3    H280675   4.810   4.206   3.758  0.7964 -1.1297  1.7663
19754TIP3   OH280676   4.335   3.477   5.843 -0.1827  0.4949  0.2049
19754TIP3    H180677   4.259   3.507   5.893  0.3013  1.3247  0.4693
19754TIP3    H280678   4.316   3.503   5.753  0.7881  2.8909  0.6010
19755TIP3   OH280679   3.578   4.584   5.440  0.1500  0.0066 -0.4425
19755TIP3    H180680   3.628   4.544   5.511  1.3303  1.3819 -0.4644
19755TIP3    H280681   3.631   4.658   5.411 -0.4449 -0.3104 -2.5446
19756TIP3   OH280682   1.326   2.457   1.438  0.4005 -0.9165 -0.0276
19756TIP3    H180683   1.304   2.364   1.446  0.6278 -1.0833 -1.1747
19756TIP3    H280684   1.377   2.463   1.358  0.1078  0.2516 -0.1468
19757TIP3   OH280685   3.856   2.320   0.760 -0.2083  0.0796  0.3566
19757TIP3    H180686   3.793   2.364   0.702  1.3851  1.8761 -0.1178
19757TIP3    H280687   3.882   2.242   0.712 -0.0512  0.7563 -0.7102
19758TIP3   OH280688   4.537   5.533  11.379 -0.2428  0.0660  0.0515
19758TIP3    H180689   4.550   5.623  11.408  0.6114 -0.1726  0.4226
19758TIP3    H280690   4.617   5.487  11.404 -0.2550 -0.5796 -1.0243
19759TIP3   OH280691   1.187   1.457   3.991 -0.4533 -0.1331 -0.0207
19759TIP3    H180692   1.205   1.536   3.940 -0.1559 -0.1512  0.0547
19759TIP3    H280693   1.243   1.390   3.952  0.3564  0.0378  0.8129
19760TIP3   OH280694   2.223   4.029   2.625  0.4176 -0.1844 -0.2113
19760TIP3    H180695   2.196   4.119   2.641  0.1032 -0.4910  1.0686
19760TIP3    H280696   2.175   4.004   2.546 -0.2066  0.4713 -0.0530
19761TIP3   OH280697   5.263   3.711   6.044 -0.5756  0.2915 -0.3552
19761TIP3    H180698   5.204   3.726   5.971 -0.4642  1.3968 -0.2386
19761TIP3    H280699   5.212   3.659   6.106 -0.7270 -0.5027 -1.1384
19762TIP3   OH280700   5.434   0.927   3.981  0.3394  0.5469 -0.6655
19762TIP3    H180701   5.412   1.002   3.926 -1.7530 -0.0979 -0.8066
19762TIP3    H280702   5.424   0.851   3.924 -1.0172 -0.0609  0.3200
19763TIP3   OH280703   5.476   3.434  15.691  0.3241  0.2953  0.0835
19763TIP3    H180704   5.568   3.439  15.718  0.5925  0.9239 -0.8976
19763TIP3    H280705   5.470   3.351  15.644  0.8231  1.0317 -1.3320
19764TIP3   OH280706   3.286   4.798   3.708 -0.1367  0.1592  0.0415
19764TIP3    H180707   3.222   4.845   3.655 -0.5991 -0.0132  0.4394
19764TIP3    H280708   3.328   4.738   3.647  0.1959  0.8109 -0.3887
19765TIP3   OH280709   1.661   4.507  13.148  0.1192  0.2899  0.3057
19765TIP3    H180710   1.726   4.562  13.192  1.3255 -1.0323  0.2233
19765TIP3    H280711   1.711   4.438  13.107 -1.3587 -0.8959  0.3951
19766TIP3   OH280712   4.998   6.590  13.548 -0.3982  0.0223 -0.1545
19766TIP3    H180713   4.987   6.495  13.541 -1.2540  0.2365 -3.3100
19766TIP3    H280714   5.088   6.606  13.520 -0.5339  0.2074 -0.4861
19767TIP3   OH280715   2.518   5.826   1.116 -0.1347 -0.2444  0.3376
19767TIP3    H180716   2.563   5.911   1.116  1.5872 -1.0580 -1.4715
19767TIP3    H280717   2.549   5.782   1.195 -0.8713  0.7011  1.1737
19768TIP3   OH280718   3.802   2.984   2.200  0.3369  0.2387 -0.1338
19768TIP3    H180719   3.814   3.078   2.205  1.6291  0.1696 -1.2211
19768TIP3    H280720   3.729   2.972   2.138  0.0544  0.5212  0.1449
19769TIP3   OH280721   4.241   4.589  16.646 -0.0992  0.1881 -0.6412
19769TIP3    H180722   4.221   4.683  16.644 -1.9430 -0.1715 -2.4764
19769TIP3    H280723   4.166   4.550  16.692 -0.3830 -0.5636 -1.7120
19770TIP3   OH280724   4.793   5.799   4.654 -0.3632 -0.3756  0.0102
19770TIP3    H180725   4.720   5.779   4.596  0.0491 -0.9780 -0.3220
19770TIP3    H280726   4.861   5.835   4.596 -0.3731  0.1313  0.3051
19771TIP3   OH280727   3.568   6.496   1.807  0.4954  0.3317  0.7685
19771TIP3    H180728   3.570   6.592   1.812 -0.9433  0.5106 -0.9624
19771TIP3    H280729   3.626   6.475   1.734 -2.1640  0.2811 -1.5249
19772TIP3   OH280730   0.106   1.289   0.831 -0.1456  0.0425  0.2907
19772TIP3    H180731   0.032   1.312   0.887 -0.0731 -0.4322  0.5884
19772TIP3    H280732   0.160   1.367   0.827  0.3159 -0.1948  1.6078
19773TIP3   OH280733   2.231   3.002  14.775  0.5888  0.6770  0.2993
19773TIP3    H180734   2.171   3.044  14.713  0.7230 -0.0140 -0.3079
19773TIP3    H280735   2.268   3.075  14.826 -1.5207  1.0552  1.4034
19774TIP3   OH280736   0.547   2.364  14.232 -0.1284 -0.0664 -0.6428
19774TIP3    H180737   0.488   2.413  14.289 -0.1320 -0.0890 -0.6272
19774TIP3    H280738   0.553   2.418  14.153 -1.4313 -0.8134 -1.2911
19775TIP3   OH280739   1.704   2.595   2.621  0.3877 -0.0147  0.5894
19775TIP3    H180740   1.743   2.512   2.595 -3.1605 -1.3866 -1.0494
19775TIP3    H280741   1.661   2.577   2.705 -1.3573 -0.3038 -0.3038
19776TIP3   OH280742   2.773   2.963  14.883  0.7390  0.3438  0.7059
19776TIP3    H180743   2.810   3.039  14.927 -0.5321  0.6955  1.2052
19776TIP3    H280744   2.710   2.999  14.821 -0.0512 -0.2866  1.1126
19777TIP3   OH280745   1.264   0.787   4.122  0.2004 -0.4019 -0.2190
19777TIP3    H180746   1.350   0.745   4.116  0.8510  0.7998  0.2744
19777TIP3    H280747   1.237   0.801   4.031 -0.2318 -2.2034 -0.4161
19778TIP3   OH280748   2.787   5.063  14.271 -0.2343 -0.3453 -0.6101
19778TIP3    H180749   2.826   5.036  14.187 -1.1775  1.2050 -1.6047
19778TIP3    H280750   2.816   5.153  14.282  0.3088 -0.6902  1.0403
19779TIP3   OH280751   1.936   5.541  15.350  0.1706 -0.3997  0.1550
19779TIP3    H180752   1.940   5.498  15.435 -1.1146  1.6266  1.3285
19779TIP3    H280753   2.025   5.572  15.335  0.3578 -0.5593  0.8834
19780TIP3   OH280754   3.256   1.489  13.669  0.1696  0.7636  0.1492
19780TIP3    H180755   3.343   1.449  13.673 -0.0400  0.4463  3.0495
19780TIP3    H280756   3.249   1.541  13.749 -2.2691  0.8931 -0.0657
19781TIP3   OH280757   4.860   2.365  11.225  0.3993  0.2497  0.2235
19781TIP3    H180758   4.950   2.374  11.194  0.5370 -0.7840  0.2880
19781TIP3    H280759   4.859   2.282  11.272 -0.6509  0.1259  0.0093
19782TIP3   OH280760   4.253   4.325  15.722 -0.1487  0.3224 -0.4839
19782TIP3    H180761   4.341   4.288  15.730  0.0005  0.8905  0.7440
19782TIP3    H280762   4.204   4.286  15.794 -1.2121 -0.7505 -1.7385
19783TIP3   OH280763   6.668   6.351  15.523 -0.2211 -0.1876  0.2825
19783TIP3    H180764   6.660   6.444  15.501  1.2397  0.1761  1.1434
19783TIP3    H280765   6.578   6.320  15.527 -0.7672  1.3215  0.4917
19784TIP3   OH280766   2.156   2.572  16.605 -0.1648 -0.7054  0.4360
19784TIP3    H180767   2.070   2.598  16.572 -0.2446 -0.4665  0.8259
19784TIP3    H280768   2.136   2.506  16.671 -0.2705  1.4434  2.6874
19785TIP3   OH280769   3.717   0.835   2.864 -0.4942 -0.0381  0.3494
19785TIP3    H180770   3.763   0.775   2.806 -0.5677 -1.3211  1.5510
19785TIP3    H280771   3.779   0.854   2.934 -0.9696  0.1189  0.7377
19786TIP3   OH280772   2.484   3.223  11.585  0.0718 -0.3140 -0.2008
19786TIP3    H180773   2.472   3.272  11.666 -1.3530 -0.6707 -0.1760
19786TIP3    H280774   2.396   3.206  11.553  0.5324  1.9120 -3.1207
19787TIP3   OH280775   4.759   0.474   2.003 -0.1190 -0.0267  0.5201
19787TIP3    H180776   4.753   0.392   2.051 -1.7827 -0.2113  0.0934
19787TIP3    H280777   4.832   0.462   1.943 -0.6819 -1.4456  0.0677
19788TIP3   OH280778   0.139   1.307  13.726  0.6259 -0.2323 -0.6160
19788TIP3    H180779   0.106   1.241  13.665  1.1246  0.9116 -2.2046
19788TIP3    H280780   0.061   1.353  13.758  0.3550 -0.8938 -0.3203
19789TIP3   OH280781   5.594   3.807   3.707 -0.1735 -0.1704  0.1626
19789TIP3    H180782   5.578   3.882   3.764 -0.1140 -1.2523  1.6431
19789TIP3    H280783   5.650   3.748   3.758 -0.0237 -1.1243 -1.0470
19790TIP3   OH280784   2.820   4.039  11.651  0.9018  0.1028  0.6669
19790TIP3    H180785   2.733   4.073  11.672  0.6884 -0.0407  0.0363
19790TIP3    H280786   2.811   3.944  11.656  0.7603  0.0517 -0.3650
19791TIP3   OH280787   1.348   3.620   5.471  0.0451  0.3844  0.1385
19791TIP3    H180788   1.426   3.615   5.526 -0.0769  2.7732  0.6182
19791TIP3    H280789   1.288   3.556   5.510  1.8115 -1.7881 -0.4711
19792TIP3   OH280790   2.587   3.677   2.696  0.3899  0.0841  0.2485
19792TIP3    H180791   2.527   3.750   2.679 -0.7628 -1.1237 -1.1451
19792TIP3    H280792   2.648   3.678   2.621  0.8164  0.0311  0.5895
19793TIP3   OH280793   2.762   3.219   3.099 -0.0623 -0.4282 -0.1035
19793TIP3    H180794   2.780   3.231   3.006  1.8673  1.5944  0.4552
19793TIP3    H280795   2.695   3.151   3.102  1.5399 -2.3267 -2.8586
19794TIP3   OH280796   2.839   6.478   4.750 -0.1778  0.3350 -0.3192
19794TIP3    H180797   2.808   6.565   4.775  1.1164  1.6279 -2.8208
19794TIP3    H280798   2.770   6.418   4.778 -2.9794  2.6071 -1.8978
19795TIP3   OH280799   2.501   6.614  10.324 -0.0172 -0.1528 -0.0596
19795TIP3    H180800   2.517   6.684  10.387 -1.3028 -0.2525  0.4222
19795TIP3    H280801   2.578   6.613  10.268  0.2391  1.3419  0.2222
19796TIP3   OH280802   4.664   5.406   2.137  0.2560 -0.0094 -0.1767
19796TIP3    H180803   4.584   5.450   2.110  0.5410  1.1430  0.7562
19796TIP3    H280804   4.701   5.371   2.056 -0.9363 -0.1341 -0.6749
19797TIP3   OH280805   3.833   4.578   1.384  0.2418 -0.3041 -0.2970
19797TIP3    H180806   3.841   4.652   1.323  0.3413  0.2115  0.3249
19797TIP3    H280807   3.924   4.550   1.399  0.0896 -1.9499 -2.1772
19798TIP3   OH280808   6.202   3.673   5.822 -0.0027 -0.0847  0.0357
19798TIP3    H180809   6.297   3.675   5.833  0.2048 -0.6428 -1.4651
19798TIP3    H280810   6.173   3.761   5.844  0.9736  0.3608 -0.4218
19799TIP3   OH280811   2.980   2.007   0.685 -0.1432  0.1641  0.0783
19799TIP3    H180812   2.993   2.030   0.593  1.4808  0.0706  0.2670
19799TIP3    H280813   2.885   1.998   0.694 -0.5256  2.3694 -1.0629
19800TIP3   OH280814   4.035   6.599   1.218  0.1057 -0.4192 -0.8565
19800TIP3    H180815   4.015   6.648   1.138  1.5500  0.6144 -0.6169
19800TIP3    H280816   3.986   6.517   1.209 -1.0986  0.3902 -2.0090
19801TIP3   OH280817   5.168   3.082  15.869  0.3478 -1.0416  0.5054
19801TIP3    H180818   5.229   3.155  15.864 -2.3166  1.3175 -0.4613
19801TIP3    H280819   5.122   3.094  15.952 -0.6599 -1.1105 -0.0264
19802TIP3   OH280820   3.373   6.433   2.347 -0.0949 -0.6966 -0.3221
19802TIP3    H180821   3.279   6.417   2.337 -0.1117  0.3069 -2.0784
19802TIP3    H280822   3.380   6.528   2.359  0.5647 -0.9866  2.1063
19803TIP3   OH280823   2.358   3.039   0.773 -0.2906 -0.3503 -0.2537
19803TIP3    H180824   2.436   3.086   0.743 -0.8036  1.5429  1.1941
19803TIP3    H280825   2.296   3.047   0.700  0.3296 -0.5927 -0.8248
19804TIP3   OH280826   5.065   3.243  10.657  0.0580 -0.2967  0.1958
19804TIP3    H180827   5.010   3.300  10.710 -2.1171 -0.9604 -1.1989
19804TIP3    H280828   5.084   3.294  10.578 -1.6074 -1.3132 -0.9026
19805TIP3   OH280829   3.362   2.129  11.703 -0.1708 -1.0915 -0.3094
19805TIP3    H180830   3.309   2.132  11.623 -0.7838 -0.5731  0.1042
19805TIP3    H280831   3.341   2.211  11.748  1.9350 -0.2778 -0.7207
19806TIP3   OH280832   2.007   5.012   0.086  0.1474 -0.2139  0.0961
19806TIP3    H180833   2.013   4.944   0.019 -1.1475  0.1005 -0.3775
19806TIP3    H280834   2.096   5.021   0.119  0.0406 -3.7409  1.8200
19807TIP3   OH280835   1.385   2.064   3.128 -0.1048  0.4327 -0.1833
19807TIP3    H180836   1.309   2.096   3.079  0.3601  1.1654 -0.4449
19807TIP3    H280837   1.359   1.977   3.159 -1.1517  0.7836 -0.0367
19808TIP3   OH280838   1.098   0.696  13.899  0.0251  0.0661 -0.2072
19808TIP3    H180839   1.163   0.641  13.942 -0.0317 -0.1381 -0.3757
19808TIP3    H280840   1.024   0.699  13.959  0.8066  1.6530  0.7401
19809TIP3   OH280841   1.364   5.835  16.495  0.1104  0.2100  0.0021
19809TIP3    H180842   1.422   5.882  16.555  0.2046 -0.7308  0.6624
19809TIP3    H280843   1.385   5.871  16.409  0.3788  1.1749  0.4474
19810TIP3   OH280844   1.652   4.247   3.409 -0.3822 -0.4419  0.2759
19810TIP3    H180845   1.588   4.222   3.475 -0.8856 -0.1486 -0.1005
19810TIP3    H280846   1.737   4.235   3.452 -0.7177  0.3851  1.2052
19811TIP3   OH280847   3.660   4.891   3.500  0.3599 -0.0708  0.1694
19811TIP3    H180848   3.632   4.842   3.423 -0.3096  1.4034 -0.5753
19811TIP3    H280849   3.629   4.839   3.574  1.5399 -1.8169 -0.5045
19812TIP3   OH280850   2.925   1.010   5.767  0.0103  0.6613  0.3008
19812TIP3    H180851   2.931   0.963   5.850  1.4294 -0.1615 -0.2384
19812TIP3    H280852   2.908   0.941   5.703  1.7259  0.9016 -0.4522
19813TIP3   OH280853   0.382   0.736  16.775  0.1459  0.1756 -0.2003
19813TIP3    H180854   0.383   0.715  16.869 -0.1444  2.3431  0.3554
19813TIP3    H280855   0.326   0.670  16.735 -0.8275  0.0105  1.3745
19814TIP3   OH280856   3.431   1.695  11.957 -0.5389  0.6697  0.5867
19814TIP3    H180857   3.466   1.609  11.975 -0.4808  0.6428  0.3526
19814TIP3    H280858   3.438   1.704  11.862  0.7709  1.4986  0.7342
19815TIP3   OH280859   3.902   6.420  11.299  0.6149 -0.5338 -0.3054
19815TIP3    H180860   3.962   6.374  11.242  0.9387  0.4065 -0.7418
19815TIP3    H280861   3.955   6.489  11.340  0.5549 -1.5393  1.6088
19816TIP3   OH280862   0.639   0.600   4.045 -0.3105 -0.2916 -0.4868
19816TIP3    H180863   0.665   0.643   3.964 -0.0355 -1.2274 -0.9064
19816TIP3    H280864   0.715   0.549   4.071  1.4101  3.3767  2.8262
19817TIP3   OH280865   3.472   1.687  13.969  0.0341  0.1518  0.8310
19817TIP3    H180866   3.497   1.723  14.054  0.2732 -0.0924  0.8667
19817TIP3    H280867   3.501   1.596  13.972 -0.0355  0.1175  0.5218
19818TIP3   OH280868   6.618   5.636   1.176 -0.2962 -0.2928 -0.1537
19818TIP3    H180869   6.655   5.664   1.259 -0.5098 -0.1321 -0.1118
19818TIP3    H280870   6.573   5.554   1.195  0.1798 -0.5794 -0.2399
19819TIP3   OH280871   4.522   0.736   4.663 -0.7005 -0.4513 -0.6143
19819TIP3    H180872   4.505   0.807   4.724  0.2632 -0.1638 -0.6719
19819TIP3    H280873   4.524   0.778   4.577 -2.3681 -0.9000 -0.9102
19820TIP3   OH280874   1.541   1.049   2.124 -0.4856  0.1843 -0.1963
19820TIP3    H180875   1.512   1.012   2.207  0.5523 -1.8228 -0.6576
19820TIP3    H280876   1.466   1.098   2.091 -1.7925 -1.1470  0.6964
19821TIP3   OH280877   3.044   2.987   1.106 -0.7467  0.4988  0.1405
19821TIP3    H180878   3.116   3.051   1.102 -0.5554  0.2978  0.3456
19821TIP3    H280879   2.996   3.010   1.185  0.3023 -0.6411  1.1489
19822TIP3   OH280880   4.851   0.472  14.828  0.2745  0.0078  0.1156
19822TIP3    H180881   4.770   0.523  14.833 -0.3112 -0.7305 -1.1182
19822TIP3    H280882   4.893   0.503  14.748  0.8537 -0.1377  0.3595
19823TIP3   OH280883   1.460   0.824  11.862 -0.3956 -0.4853 -0.8114
19823TIP3    H180884   1.454   0.859  11.950 -0.4720 -0.7628 -0.7043
19823TIP3    H280885   1.531   0.872  11.821  0.2282 -0.9653 -0.3147
19824TIP3   OH280886   0.659   4.075   6.056  0.5818 -0.1682 -0.1100
19824TIP3    H180887   0.653   4.156   6.005 -0.4764 -1.7372 -2.7140
19824TIP3    H280888   0.707   4.014   5.999  1.1238 -1.4787  1.6510
19825TIP3   OH280889   5.703   0.026  16.971  0.0633 -0.9333  0.3393
19825TIP3    H180890   5.650  -0.041  16.928  0.3644 -1.7193  1.1840
19825TIP3    H280891   5.758  -0.021  17.033  1.2622 -0.0468 -0.0149
19826TIP3   OH280892   1.080   0.181  10.905 -0.6806 -0.2661 -0.5351
19826TIP3    H180893   1.077   0.098  10.953 -0.8393  1.5153  2.8380
19826TIP3    H280894   1.169   0.184  10.868 -0.0856 -1.1861  0.7618
19827TIP3   OH280895   2.415   2.468  16.522 -0.1575 -0.3462 -0.3238
19827TIP3    H180896   2.465   2.544  16.492  1.6793 -1.0258  0.8324
19827TIP3    H280897   2.342   2.505  16.571  2.0448  0.8312  2.3908
19828TIP3   OH280898   1.851   3.525  15.004 -0.4391 -0.3698 -0.5709
19828TIP3    H180899   1.929   3.485  15.042 -1.3344 -1.1626  0.4938
19828TIP3    H280900   1.847   3.491  14.915 -0.4244 -1.5687 -0.1211
19829TIP3   OH280901   3.116   0.150   5.680  0.0975 -0.1972  0.5428
19829TIP3    H180902   3.105   0.245   5.684  2.6911  0.1581  0.8511
19829TIP3    H280903   3.206   0.137   5.648 -0.5899 -2.5833 -0.6663
19830TIP3   OH280904   1.348   1.462   4.368 -0.3975 -0.4919  0.0714
19830TIP3    H180905   1.338   1.421   4.282 -1.2452 -0.3506  0.0943
19830TIP3    H280906   1.320   1.394   4.430  0.8815 -0.8395  0.2908
19831TIP3   OH280907   3.744   1.071  12.308  0.1684 -0.4500  0.1252
19831TIP3    H180908   3.683   1.007  12.343 -0.1806  0.0757  0.5009
19831TIP3    H280909   3.812   1.080  12.375  1.6297 -2.2808 -0.9965
19832TIP3   OH280910   3.351   0.808   3.616 -0.0673  0.3927  0.7676
19832TIP3    H180911   3.408   0.765   3.552 -0.6934  0.5564  0.0872
19832TIP3    H280912   3.290   0.739   3.643 -0.1860  0.4839  0.7327
19833TIP3   OH280913   5.903   5.222   3.889  0.4105 -0.3780  0.7909
19833TIP3    H180914   5.856   5.139   3.890 -0.1309 -0.0694  1.2926
19833TIP3    H280915   5.887   5.261   3.975  0.0890  0.5634  0.3207
19834TIP3   OH280916   6.724   0.659   5.525 -0.7185  0.1320 -0.0695
19834TIP3    H180917   6.801   0.714   5.539  0.6070 -0.5823 -3.4080
19834TIP3    H280918   6.760   0.572   5.507 -2.2482 -0.2316 -1.6766
19835TIP3   OH280919   6.687   1.765  14.395  0.8666  0.1282 -0.1746
19835TIP3    H180920   6.628   1.728  14.328 -2.0353  0.7313  1.8266
19835TIP3    H280921   6.671   1.859  14.392  2.0741  0.3587  0.1766
19836TIP3   OH280922   4.236   1.876   3.565  0.3132  0.4653  0.3217
19836TIP3    H180923   4.244   1.798   3.511  0.2664  2.1258 -2.2687
19836TIP3    H280924   4.158   1.861   3.618 -0.1044 -0.9605 -0.6404
19837TIP3   OH280925   4.000   2.657   5.120  0.0342 -0.2712 -0.4097
19837TIP3    H180926   4.019   2.727   5.057  1.1700 -1.2869 -1.2507
19837TIP3    H280927   4.034   2.691   5.203  0.0007  0.4348 -0.6747
19838TIP3   OH280928   1.556   1.447   3.556  0.1697 -0.2781  0.4085
19838TIP3    H180929   1.640   1.433   3.514  0.4963  0.2327  0.8819
19838TIP3    H280930   1.568   1.524   3.611 -0.4116 -0.5883  0.9988
19839TIP3   OH280931   0.094   2.089  11.816  0.2259 -0.3221 -0.0697
19839TIP3    H180932   0.111   1.996  11.799  2.3127 -0.0415  0.2833
19839TIP3    H280933   0.050   2.089  11.902  0.0710 -0.9833 -0.1388
19840TIP3   OH280934   5.087   1.933  15.097 -0.0716  0.4613  0.2598
19840TIP3    H180935   5.165   1.977  15.129 -0.5477  0.8656  0.8985
19840TIP3    H280936   5.016   1.996  15.112 -0.3106  0.7403 -1.7595
19841TIP3   OH280937   5.495   0.994  16.740  0.3780 -0.0820  0.2524
19841TIP3    H180938   5.401   0.982  16.723  0.6150 -0.6209 -0.7119
19841TIP3    H280939   5.498   1.024  16.831 -0.6690 -0.9528  0.6005
19842TIP3   OH280940   3.209   3.515  13.462  0.5392 -0.2609 -0.1757
19842TIP3    H180941   3.234   3.454  13.532  1.9203 -0.4260 -0.7747
19842TIP3    H280942   3.292   3.556  13.436 -0.0287  0.1395 -1.4063
19843TIP3   OH280943   2.508   6.503  11.928  0.3929  0.7002 -0.0330
19843TIP3    H180944   2.457   6.487  11.849  2.5962 -0.2579 -1.3575
19843TIP3    H280945   2.494   6.595  11.947  0.2500  1.1088 -1.8983
19844TIP3   OH280946   4.489   6.275  17.118 -0.5125 -0.2843 -0.0847
19844TIP3    H180947   4.404   6.311  17.091 -0.1906  0.5275 -0.0455
19844TIP3    H280948   4.467   6.195  17.167 -1.1802 -0.8502 -1.2641
19845TIP3   OH280949   5.208   3.124  16.393  0.8611  0.4067 -0.6314
19845TIP3    H180950   5.296   3.090  16.411  1.0334  1.1736  0.0168
19845TIP3    H280951   5.181   3.079  16.313  1.5219 -0.4309 -0.4020
19846TIP3   OH280952   5.111   1.130   1.087 -0.4494  0.0898 -0.1765
19846TIP3    H180953   5.157   1.181   1.155 -0.8315  1.6742 -1.0585
19846TIP3    H280954   5.032   1.098   1.131  0.7116 -1.4128  0.9302
19847TIP3   OH280955   1.944   4.725  15.441  0.1989 -0.1193  0.5060
19847TIP3    H180956   1.932   4.756  15.351 -0.2459  0.6911  0.8294
19847TIP3    H280957   2.022   4.670  15.438 -1.1671 -2.1462 -0.8854
19848TIP3   OH280958   1.815   6.280   4.305 -0.1260  0.0463 -0.3130
19848TIP3    H180959   1.820   6.332   4.385  0.4553  1.7185 -1.3646
19848TIP3    H280960   1.896   6.229   4.304  0.3965  0.8435 -0.3342
19849TIP3   OH280961   4.660   1.182  14.989 -0.1733  0.2783  0.5985
19849TIP3    H180962   4.630   1.238  15.060 -0.5387 -1.8843  2.2637
19849TIP3    H280963   4.745   1.217  14.964 -0.3558  1.4991  1.6119
19850TIP3   OH280964   6.665   0.948   3.835 -0.7076 -0.5578 -0.2006
19850TIP3    H180965   6.741   0.891   3.821  0.8606  1.8125 -2.2524
19850TIP3    H280966   6.609   0.899   3.896  1.5491 -3.2325 -0.0694
19851TIP3   OH280967   5.396   3.769  11.104  0.3710  0.1070  0.2644
19851TIP3    H180968   5.302   3.774  11.121 -0.1517 -0.4550 -2.1337
19851TIP3    H280969   5.406   3.694  11.046  2.4021 -0.1716  0.8939
19852TIP3   OH280970   5.666   3.712  11.637  0.2619 -0.3111 -0.1378
19852TIP3    H180971   5.745   3.766  11.643  1.1843 -1.3379 -2.1292
19852TIP3    H280972   5.635   3.725  11.547 -0.2332 -2.0799 -0.2525
19853TIP3   OH280973   1.161   6.311  11.125 -0.1347 -0.8575 -0.3688
19853TIP3    H180974   1.148   6.369  11.200  1.1799 -0.5560 -0.3455
19853TIP3    H280975   1.086   6.252  11.127 -0.1111 -0.8838  1.2036
19854TIP3   OH280976   0.356   6.334   1.637 -0.0676 -0.8988  0.2910
19854TIP3    H180977   0.262   6.347   1.626 -0.1637 -0.7518  1.2279
19854TIP3    H280978   0.371   6.243   1.611  0.0257 -0.1246 -2.7839
19855TIP3   OH280979   5.420   5.142   0.733  0.0797 -0.2376  0.5826
19855TIP3    H180980   5.516   5.137   0.736  0.0398 -0.6956  1.6961
19855TIP3    H280981   5.391   5.053   0.751 -0.5641 -0.1274  0.1151
19856TIP3   OH280982   2.094   0.743  15.846 -0.4405  0.0277  0.5241
19856TIP3    H180983   2.131   0.737  15.933 -0.9748  0.4659  0.7874
19856TIP3    H280984   2.080   0.653  15.819 -2.0476 -0.0936  1.6685
19857TIP3   OH280985   4.877   0.681   0.903  0.1112  0.4789  0.3941
19857TIP3    H180986   4.825   0.602   0.920  1.3542  0.0856  2.9190
19857TIP3    H280987   4.828   0.751   0.946  0.1751  0.6634  0.1662
19858TIP3   OH280988   2.281   1.827   5.250  0.0235  0.0734 -0.3750
19858TIP3    H180989   2.310   1.916   5.231  0.4750  0.4403  1.7609
19858TIP3    H280990   2.360   1.774   5.243  0.6409  0.5362  2.2030
19859TIP3   OH280991   4.789   6.018  15.913  0.7589  0.1315  0.0494
19859TIP3    H180992   4.882   6.001  15.929  0.8474  1.5239  1.2599
19859TIP3    H280993   4.754   6.043  15.999 -0.2766  1.5802 -0.7345
19860TIP3   OH280994   4.693   0.089   3.451 -0.1951 -0.1081 -0.5400
19860TIP3    H180995   4.779   0.117   3.482 -0.5347 -0.1857  0.5052
19860TIP3    H280996   4.656   0.041   3.525 -1.6617  1.0131 -0.5165
19861TIP3   OH280997   5.492   6.400  15.847 -0.2029 -0.6886  0.5457
19861TIP3    H180998   5.451   6.360  15.770 -1.5204  1.2917  0.1278
19861TIP3    H280999   5.444   6.482  15.859  1.7358  0.3263  1.8817
19862TIP3   OH281000   2.066   1.211   2.802 -0.0736  0.5933 -0.2636
19862TIP3    H181001   2.131   1.169   2.746  0.0129  0.3250  0.0341
19862TIP3    H281002   2.114   1.231   2.883 -0.3060  0.5866 -0.1242
19863TIP3   OH281003   0.130   0.036  12.317  0.0552  0.7545 -0.1420
19863TIP3    H181004   0.107  -0.051  12.350 -1.8581  0.8806 -1.0130
19863TIP3    H281005   0.225   0.033  12.307  0.1937 -0.7468  1.1563
19864TIP3   OH281006   0.767   6.195  14.327 -0.2219  0.0178  0.0130
19864TIP3    H181007   0.754   6.104  14.356  0.1555  0.0614  0.3256
19864TIP3    H281008   0.861   6.200  14.306 -0.3441  0.1945 -0.4983
19865TIP3   OH281009   2.267   6.497   5.474 -1.0706  1.0144 -0.4288
19865TIP3    H181010   2.308   6.581   5.491 -0.5352  0.2976  2.3115
19865TIP3    H281011   2.173   6.516   5.471 -0.9469  1.7324  0.0636
19866TIP3   OH281012   6.296   3.862   5.022  0.3016  0.9152  0.2184
19866TIP3    H181013   6.207   3.825   5.027  0.9752 -1.3534 -2.2264
19866TIP3    H281014   6.282   3.956   5.018 -1.8372  0.7670  2.1173
19867TIP3   OH281015   2.195   1.395  13.938 -0.3184  0.4435  0.3150
19867TIP3    H181016   2.154   1.344  14.008 -0.2391 -0.8510 -0.5543
19867TIP3    H281017   2.162   1.357  13.857  0.4437  1.1975 -0.3763
19868TIP3   OH281018   4.119   1.963  16.947  0.1353  0.2299 -0.2594
19868TIP3    H181019   4.092   1.954  17.038 -2.4206  0.9415 -0.8682
19868TIP3    H281020   4.137   2.056  16.936  0.8623  0.0792 -0.3915
19869TIP3   OH281021   5.349   0.555  13.331 -0.1297  0.0016  1.0510
19869TIP3    H181022   5.361   0.638  13.285 -0.7371 -0.0733  0.7464
19869TIP3    H281023   5.426   0.548  13.388 -0.6404  1.3365  1.9533
19870TIP3   OH281024   0.721   4.166  14.624  0.2586  0.3308 -0.3252
19870TIP3    H181025   0.682   4.119  14.550 -1.1258  1.5445 -0.4354
19870TIP3    H281026   0.775   4.102  14.669  0.2028 -0.7407 -1.7242
19871TIP3   OH281027   3.929   2.204   4.530  0.2958 -0.9731  0.1537
19871TIP3    H181028   3.991   2.250   4.586 -0.4875 -0.9502  1.0133
19871TIP3    H281029   3.854   2.262   4.523 -0.0830 -1.4715  0.0075
19872TIP3   OH281030   3.844   6.419  14.478 -0.5056  0.2313  0.0463
19872TIP3    H181031   3.763   6.401  14.525  0.7752 -2.2780  1.5042
19872TIP3    H281032   3.913   6.414  14.545  1.0281  0.5061 -1.4366
19873TIP3   OH281033   3.669   5.481  15.146  0.4519 -0.5513  0.4381
19873TIP3    H181034   3.716   5.407  15.184  0.1451  0.0616  2.0675
19873TIP3    H281035   3.668   5.547  15.215 -0.4158  0.4870 -0.5311
19874TIP3   OH281036   4.207   1.412   4.223 -0.1682 -0.1987  0.2646
19874TIP3    H181037   4.152   1.356   4.168  0.9521 -0.2228 -0.9041
19874TIP3    H281038   4.195   1.500   4.187 -0.4460 -0.0011  0.8431
19875TIP3   OH281039   1.124   2.832   1.041 -0.1596 -0.1301 -0.3232
19875TIP3    H181040   1.209   2.801   1.011 -0.0934 -0.0623 -0.2048
19875TIP3    H281041   1.143   2.908   1.095 -0.2980 -0.0927 -0.3262
19876TIP3   OH281042   3.628   0.580  14.124  0.1593 -0.1132  0.3291
19876TIP3    H181043   3.633   0.607  14.033  1.1614 -0.1263  0.3730
19876TIP3    H281044   3.719   0.562  14.150 -0.1622 -0.6500  1.1624
19877TIP3   OH281045   2.399   5.409  17.010  0.3241  0.0745  0.0928
19877TIP3    H181046   2.487   5.371  17.009  1.1885  2.0043 -0.0147
19877TIP3    H281047   2.351   5.357  16.945  1.7895 -0.1292 -0.8892
19878TIP3   OH281048   0.124   3.511   3.472  0.1561  0.1184  0.1211
19878TIP3    H181049   0.083   3.514   3.558  0.6218  0.6450  0.3266
19878TIP3    H281050   0.209   3.553   3.484  0.2249  0.1921 -0.5937
19879TIP3   OH281051   6.665   5.788   3.605  0.4046  0.5014  0.0498
19879TIP3    H181052   6.594   5.731   3.575  0.4575 -0.4807  1.6609
19879TIP3    H281053   6.724   5.730   3.652  2.1726  1.3563 -1.0205
19880TIP3   OH281054   5.636   3.026   0.322  0.2344  0.0676 -0.6127
19880TIP3    H181055   5.665   3.016   0.412 -1.2920 -1.4786 -0.2429
19880TIP3    H281056   5.573   3.098   0.324  1.0232  0.7805 -0.6870
19881TIP3   OH281057   2.765   5.387   4.748 -0.2305 -0.0905  0.4468
19881TIP3    H181058   2.800   5.300   4.768 -1.6814 -0.8711 -0.1807
19881TIP3    H281059   2.768   5.435   4.831  1.2930 -0.4686  0.6266
19882TIP3   OH281060   3.681   2.081  12.917 -0.6081 -0.2728 -0.4753
19882TIP3    H181061   3.721   2.154  12.964  0.2558 -0.5374 -0.7698
19882TIP3    H281062   3.663   2.016  12.985  0.3809 -0.5440 -0.4531
19883TIP3   OH281063   0.022   5.136   6.461 -0.2520  0.4435 -0.5975
19883TIP3    H181064   0.044   5.065   6.401  2.4155  0.3815  0.3438
19883TIP3    H281065   0.079   5.208   6.435  0.5788  0.5914  1.4906
19884TIP3   OH281066   5.233   1.228  16.605 -0.3761 -0.4454 -0.3394
19884TIP3    H181067   5.180   1.159  16.643 -1.3225  0.1237 -0.6102
19884TIP3    H281068   5.234   1.297  16.672 -2.0050  0.5392 -1.2788
19885TIP3   OH281069   4.231   4.584   5.804 -0.4656  0.6365 -0.3138
19885TIP3    H181070   4.324   4.604   5.798 -0.1559 -0.8246 -0.7862
19885TIP3    H281071   4.187   4.660   5.766  0.5286  1.3203 -0.1242
19886TIP3   OH281072   0.889   2.668   5.083  0.3155  0.6854 -0.3762
19886TIP3    H181073   0.813   2.690   5.136  0.8862 -0.4768  0.9539
19886TIP3    H281074   0.852   2.631   5.002 -0.5460 -0.7688  0.6405
19887TIP3   OH281075   5.336   0.832  12.188 -0.0288  0.9104  0.4942
19887TIP3    H181076   5.389   0.911  12.179  1.4939 -0.1472 -0.3560
19887TIP3    H281077   5.365   0.792  12.270  0.8376  0.1332 -0.1584
19888TIP3   OH281078   5.803   3.852   0.794 -0.1957  0.1186  0.0269
19888TIP3    H181079   5.822   3.772   0.843 -0.5855 -0.2482 -0.4059
19888TIP3    H281080   5.797   3.920   0.860 -0.4241 -0.3186  0.4631
19889TIP3   OH281081   1.807   6.149  15.057 -0.3125  0.0929  0.9308
19889TIP3    H181082   1.729   6.094  15.061 -0.7168  0.6269  0.5355
19889TIP3    H281083   1.879   6.090  15.081 -0.6585 -0.7446 -0.0362
19890TIP3   OH281084   2.159   3.821   4.289 -0.2403  0.3506  0.4003
19890TIP3    H181085   2.215   3.744   4.281  0.9323  0.9655  2.1727
19890TIP3    H281086   2.219   3.894   4.302 -1.3659  1.4279 -0.2292
19891TIP3   OH281087   0.995   1.237   0.572  0.0709 -0.2592 -0.1816
19891TIP3    H181088   0.902   1.225   0.555  0.0795 -3.5085  1.3340
19891TIP3    H281089   1.038   1.170   0.518  1.3187 -0.3167  0.8237
19892TIP3   OH281090   6.690   4.853  13.873 -0.5701  0.0116  0.7481
19892TIP3    H181091   6.653   4.814  13.952 -0.0922 -1.8129  0.1212
19892TIP3    H281092   6.754   4.788  13.843 -0.8929  0.5803 -1.2460
19893TIP3   OH281093   4.809   2.118   0.757 -0.5302 -0.2410 -0.2600
19893TIP3    H181094   4.798   2.030   0.793 -1.4570  0.0381  0.1822
19893TIP3    H281095   4.774   2.176   0.825  0.4547  0.5010 -0.3692
19894TIP3   OH281096   0.652   6.477  15.689 -0.0565  0.4858  0.3324
19894TIP3    H181097   0.591   6.547  15.714 -1.3179 -0.2698 -0.4994
19894TIP3    H281098   0.615   6.399  15.730  0.7845  0.1288  0.4191
19895TIP3   OH281099   3.980   3.742  16.858 -0.2095  0.4907  0.4315
19895TIP3    H181100   4.058   3.707  16.901  0.1021 -0.1127 -0.5901
19895TIP3    H281101   3.907   3.694  16.898  0.0917 -0.1918  0.1694
19896TIP3   OH281102   3.020   5.120  10.938 -0.0793 -0.0417  0.1027
19896TIP3    H181103   3.090   5.108  10.873  0.7797  0.6230  0.8605
19896TIP3    H281104   3.035   5.208  10.973 -0.8398 -0.1813  0.8253
19897TIP3   OH281105   2.053   2.312   2.404 -0.0686  0.2191 -0.3655
19897TIP3    H181106   2.085   2.232   2.445 -3.0269 -1.3197 -0.7680
19897TIP3    H281107   2.086   2.308   2.314  1.5804  0.6163  0.1934
19898TIP3   OH281108   4.680   3.233  13.032  0.1315 -0.0758  0.4023
19898TIP3    H181109   4.734   3.159  13.058  1.8446  0.4133 -1.4695
19898TIP3    H281110   4.680   3.291  13.108  0.3416 -1.1333  1.2246
19899TIP3   OH281111   5.447   5.401   2.697  0.0950  0.1492  0.3462
19899TIP3    H181112   5.491   5.379   2.614 -0.5113  0.7918 -0.1555
19899TIP3    H281113   5.499   5.356   2.764 -0.4234 -1.8771 -0.5238
19900TIP3   OH281114   5.303   1.956  15.385  0.3185 -0.1884  0.0695
19900TIP3    H181115   5.259   1.944  15.469 -0.4920  0.2739 -0.2674
19900TIP3    H281116   5.390   1.987  15.407 -0.1396  0.6800  0.7412
19901TIP3   OH281117   0.094   2.318  17.248 -0.0449  0.3966  0.2514
19901TIP3    H181118   0.075   2.318  17.154 -0.0567  0.1932  0.2551
19901TIP3    H281119   0.039   2.388  17.283 -1.3191 -0.6282  0.3683
19902TIP3   OH281120   3.641   6.591  16.239 -0.6416  0.4851  0.4072
19902TIP3    H181121   3.644   6.580  16.334  2.0434 -0.9228  0.2467
19902TIP3    H281122   3.706   6.659  16.220  1.2007 -1.4317 -0.5849
19903TIP3   OH281123   5.784   2.865   6.915  0.0244  0.2801  0.6128
19903TIP3    H181124   5.851   2.810   6.876  0.9556  2.2138 -0.7138
19903TIP3    H281125   5.702   2.820   6.897  0.5143  0.4164 -2.6163
19904TIP3   OH281126   3.230   3.099  15.080 -0.1184 -0.4229  0.1983
19904TIP3    H181127   3.223   3.091  14.985 -1.0778 -1.1213  0.3228
19904TIP3    H281128   3.140   3.105  15.111  0.1928  0.0684  1.0532
19905TIP3   OH281129   0.762   1.549  16.086 -0.6435  1.0317  0.0330
19905TIP3    H181130   0.804   1.478  16.038 -0.9327  1.5729 -1.0443
19905TIP3    H281131   0.757   1.621  16.024  0.5169  2.3420  1.3831
19906TIP3   OH281132   1.327   3.653  14.717  0.3014 -0.1080  0.4057
19906TIP3    H181133   1.407   3.600  14.711 -0.4045 -1.1032 -0.6309
19906TIP3    H281134   1.263   3.595  14.759 -0.4408 -0.0627 -0.6239
19907TIP3   OH281135   3.189   1.842   6.044  0.2393 -0.5511  0.3595
19907TIP3    H181136   3.267   1.797   6.013  1.2637  0.7460  0.9240
19907TIP3    H281137   3.122   1.774   6.052  1.3853 -1.7312  0.1061
19908TIP3   OH281138   3.781   5.136  12.551  0.2074 -0.6769  0.0067
19908TIP3    H181139   3.827   5.054  12.531  0.3888 -0.4867 -0.3573
19908TIP3    H281140   3.689   5.111  12.552  0.2354 -0.8140 -0.4700
19909TIP3   OH281141   0.873   4.157  15.275  0.4992 -0.7325 -0.0408
19909TIP3    H181142   0.835   4.106  15.204  0.4872  1.5057 -1.7463
19909TIP3    H281143   0.822   4.238  15.277  2.1312  0.3384  0.8002
19910TIP3   OH281144   2.859   2.159   1.395  0.3768 -0.1489 -0.0953
19910TIP3    H181145   2.941   2.183   1.352  0.9854  0.2893  1.2615
19910TIP3    H281146   2.820   2.242   1.421 -0.7127 -0.3319 -1.0581
19911TIP3   OH281147   1.736   3.899   3.838  0.1465 -0.9333  0.1404
19911TIP3    H181148   1.772   3.987   3.830  0.4951 -1.2674 -3.1228
19911TIP3    H281149   1.774   3.866   3.920  2.4484  0.8812 -0.0827
19912TIP3   OH281150   3.174   4.046   1.325  0.1698 -0.3746 -0.2076
19912TIP3    H181151   3.268   4.061   1.318 -0.0803  2.0822  0.5999
19912TIP3    H281152   3.142   4.048   1.234  0.7186  0.3000 -0.3906
19913TIP3   OH281153   0.440   6.546   2.762 -0.2990 -0.4695 -0.2987
19913TIP3    H181154   0.481   6.602   2.828 -0.3231 -1.4977  0.6107
19913TIP3    H281155   0.512   6.491   2.729 -0.1929  0.3352 -1.4736
19914TIP3   OH281156   2.997   3.528   4.853  0.2927 -0.3515 -0.4129
19914TIP3    H181157   2.949   3.474   4.790 -1.8565  1.5063 -0.4553
19914TIP3    H281158   2.984   3.484   4.937 -0.5358 -0.4632 -0.5953
19915TIP3   OH281159   5.883   2.189   3.445 -1.2408 -0.4105  0.0315
19915TIP3    H181160   5.866   2.110   3.395  0.0749 -1.8211  1.6569
19915TIP3    H281161   5.945   2.239   3.392  0.5827 -2.1505  0.3981
19916TIP3   OH281162   3.515   3.277   2.167 -0.3476 -0.2526  0.4005
19916TIP3    H181163   3.419   3.272   2.166 -0.3942  0.0684  1.6870
19916TIP3    H281164   3.543   3.191   2.136 -1.0687 -0.7964  1.1952
19917TIP3   OH281165   6.217   5.269   0.011 -0.3577 -0.1924 -0.2353
19917TIP3    H181166   6.168   5.280  -0.071 -0.7347 -2.1639 -0.3237
19917TIP3    H281167   6.293   5.218  -0.015  0.0355  0.0210  0.4954
19918TIP3   OH281168   0.416   3.537   1.493 -0.3763 -0.4927 -0.4142
19918TIP3    H181169   0.346   3.579   1.544  0.3656  0.4283 -0.1338
19918TIP3    H281170   0.400   3.443   1.504 -0.5851 -0.3055  1.0260
19919TIP3   OH281171   6.282   0.455  13.872  0.2283 -0.1161 -0.1786
19919TIP3    H181172   6.246   0.537  13.905 -1.0740 -0.4717 -0.6751
19919TIP3    H281173   6.347   0.482  13.807 -0.2347  0.5240 -0.3774
19920TIP3   OH281174   3.559   4.596   0.850  0.6401 -0.0747  0.8212
19920TIP3    H181175   3.595   4.508   0.853 -0.5075 -0.5481  1.8877
19920TIP3    H281176   3.616   4.648   0.907  1.5429 -0.0127 -0.1116
19921TIP3   OH281177   6.729   2.095   1.449  0.4174  0.2341 -0.0340
19921TIP3    H181178   6.728   2.026   1.516  1.8642  0.2351  0.0068
19921TIP3    H281179   6.819   2.097   1.418  0.6851  2.8114  0.7041
19922TIP3   OH281180   2.488   0.386  11.168  0.1967 -0.6407  0.2818
19922TIP3    H181181   2.464   0.295  11.150  0.3240 -0.4929 -0.6537
19922TIP3    H281182   2.439   0.407  11.248  0.1286 -1.5095  0.4844
19923TIP3   OH281183   1.026   4.838  15.589  0.2512  0.4471  0.0051
19923TIP3    H181184   0.992   4.902  15.526 -0.8417 -0.2358 -0.1302
19923TIP3    H281185   1.120   4.858  15.594  0.1617  1.2606 -0.9599
19924TIP3   OH281186   5.863   6.433  16.969 -0.4921  0.2321 -0.0585
19924TIP3    H181187   5.909   6.416  16.887  0.0849  0.5315  0.2018
19924TIP3    H281188   5.890   6.362  17.027 -1.5479 -0.4641 -0.3731
19925TIP3   OH281189   6.617   3.120  15.848  0.0036 -0.4123 -0.3546
19925TIP3    H181190   6.658   3.104  15.933 -0.2341  0.4316 -0.0717
19925TIP3    H281191   6.562   3.043  15.834 -1.3500  0.2155  1.1120
19926TIP3   OH281192   5.869   3.195  12.869  0.0606  0.1116  0.5274
19926TIP3    H181193   5.847   3.287  12.859 -1.7916 -0.2902  0.5812
19926TIP3    H281194   5.798   3.148  12.826  1.0199 -1.3014  0.4020
19927TIP3   OH281195   5.583   5.492  15.881  0.2650 -0.6097 -0.0510
19927TIP3    H181196   5.507   5.439  15.903  1.5422 -2.0607  1.0956
19927TIP3    H281197   5.649   5.469  15.947  1.3435  1.4336 -0.3065
19928TIP3   OH281198   2.468   5.372  14.718  0.2949  0.0778  0.2777
19928TIP3    H181199   2.464   5.366  14.622 -2.8183  0.9893  0.2115
19928TIP3    H281200   2.446   5.463  14.736  1.5037  0.0745  1.8755
19929TIP3   OH281201   1.867   3.425  16.673 -0.0015  0.2054 -0.9351
19929TIP3    H181202   1.795   3.457  16.726 -0.3174 -1.1994 -0.4660
19929TIP3    H281203   1.942   3.421  16.733  0.2921  0.9629 -1.2379
19930TIP3   OH281204   2.792   0.374   4.180  0.4050  0.7538 -0.2601
19930TIP3    H181205   2.748   0.291   4.164  0.7463  0.1380  1.6912
19930TIP3    H281206   2.841   0.391   4.100 -1.5721  0.3405 -1.6244
19931TIP3   OH281207   1.860   1.901  16.928  0.2021 -0.0346 -0.1879
19931TIP3    H181208   1.782   1.943  16.892  0.1135  0.0237  0.0655
19931TIP3    H281209   1.861   1.814  16.887  0.2309  0.1145 -0.4993
19932TIP3   OH281210   4.800   2.552  12.894 -0.1437  0.0966  0.0087
19932TIP3    H181211   4.735   2.618  12.919 -0.3588  0.7512 -2.0767
19932TIP3    H281212   4.759   2.506  12.821  0.7220 -1.2232  0.3184
19933TIP3   OH281213   3.000   6.304   1.391  0.0976  0.1722  0.0455
19933TIP3    H181214   3.056   6.264   1.326  2.1689  0.5244  1.5160
19933TIP3    H281215   3.026   6.396   1.393 -1.6439  0.7149 -0.3158
19934TIP3   OH281216   6.322   2.472  13.347 -0.2196 -0.3234  0.1929
19934TIP3    H181217   6.366   2.556  13.353 -0.8537  0.0533 -0.3040
19934TIP3    H281218   6.391   2.407  13.363  0.1521  0.3005  1.1523
19935TIP3   OH281219   5.634   3.770  14.988  0.4439 -0.3352  0.0627
19935TIP3    H181220   5.589   3.828  14.926  1.1687 -0.6199 -0.7529
19935TIP3    H281221   5.609   3.682  14.960 -0.9994 -0.4473  1.5659
19936TIP3   OH281222   1.401   4.402   5.668  0.0866  0.2797  0.6159
19936TIP3    H181223   1.453   4.334   5.710  0.4021  1.0200  1.4541
19936TIP3    H281224   1.392   4.470   5.735  1.2159  1.8178 -0.7316
19937TIP3   OH281225   5.587   1.610  16.823  0.2011 -0.0877 -0.0344
19937TIP3    H181226   5.634   1.595  16.904  0.6309 -3.4992 -0.7944
19937TIP3    H281227   5.494   1.603  16.847  0.3196 -0.8229  0.2119
19938TIP3   OH281228   3.857   0.635  12.804  0.1600 -0.0384  0.0430
19938TIP3    H181229   3.870   0.709  12.746 -0.6034 -0.6386 -0.9278
19938TIP3    H281230   3.774   0.597  12.777  0.2232 -0.8678  0.9419
19939TIP3   OH281231   5.498   6.029  13.744  0.4732 -0.4932  0.6282
19939TIP3    H181232   5.465   6.081  13.817  1.2103  1.0587 -0.0977
19939TIP3    H281233   5.589   6.056  13.734  0.0848  0.2407 -1.5928
19940TIP3   OH281234   0.954   2.594  14.638  0.6555  0.1458 -0.4284
19940TIP3    H181235   0.927   2.596  14.546  1.5451  1.3406 -0.6867
19940TIP3    H281236   0.987   2.505  14.651 -0.7989 -0.4820 -0.8475
19941TIP3   OH281237   1.773   6.036   6.322 -0.1788  0.4684 -0.3007
19941TIP3    H181238   1.746   5.976   6.391 -1.1661  0.1590 -0.9343
19941TIP3    H281239   1.799   5.980   6.250 -1.6734  0.7578 -1.1110
19942TIP3   OH281240   2.375   0.941  15.916  0.2392  0.2052  0.5184
19942TIP3    H181241   2.389   1.036  15.907  0.7985 -0.0059 -1.1275
19942TIP3    H281242   2.456   0.902  15.883  1.0966 -0.8651  3.5233
19943TIP3   OH281243   5.623   3.621  13.629 -0.1702 -0.3231 -0.1110
19943TIP3    H181244   5.527   3.624  13.637 -0.1903  1.1445 -0.6218
19943TIP3    H281245   5.652   3.710  13.650  1.3129 -1.2678  2.3260
19944TIP3   OH281246   0.132   5.098  16.152 -0.0372  0.1338  0.2851
19944TIP3    H181247   0.156   5.009  16.175  0.3036 -0.6114 -2.5368
19944TIP3    H281248   0.106   5.139  16.235  0.1026 -2.4498  1.6943
19945TIP3   OH281249   5.794   2.379  13.469 -0.4650 -0.1345  0.4512
19945TIP3    H181250   5.720   2.370  13.409 -0.8891  1.0339  0.7747
19945TIP3    H281251   5.819   2.471  13.462  0.9332 -0.5074  0.3859
19946TIP3   OH281252   3.770   3.928   5.059 -0.2520  0.2814 -0.5581
19946TIP3    H181253   3.753   3.897   5.149 -0.7257 -0.6406 -0.9459
19946TIP3    H281254   3.859   3.897   5.040 -0.9976 -1.5912 -1.2134
19947TIP3   OH281255   3.965   5.361  11.891 -0.8152 -0.3225 -0.0816
19947TIP3    H181256   4.004   5.274  11.888 -0.5544 -0.2142  0.1321
19947TIP3    H281257   3.988   5.401  11.807  1.3770  0.5255  0.8653
19948TIP3   OH281258   4.227   5.019   4.218  0.5775  0.6730 -0.4898
19948TIP3    H181259   4.273   4.949   4.264  0.3921  0.4949 -0.5751
19948TIP3    H281260   4.235   5.095   4.277  2.6599  1.2048 -1.3524
19949TIP3   OH281261   0.020   6.293   5.852 -0.4994  0.2959  0.0854
19949TIP3    H181262  -0.026   6.310   5.934  1.3065  1.9440  0.8455
19949TIP3    H281263   0.091   6.234   5.876 -1.5943 -1.4887 -0.8930
19950TIP3   OH281264   2.430   5.868   0.601 -0.5677 -0.0312  0.2179
19950TIP3    H181265   2.502   5.812   0.628  1.9192  1.9927 -1.7069
19950TIP3    H281266   2.361   5.807   0.574  1.3813 -2.1270 -0.3170
19951TIP3   OH281267   0.208   6.307  13.766 -0.1198  0.6478 -0.4001
19951TIP3    H181268   0.259   6.240  13.812  0.0304  1.5941  0.8801
19951TIP3    H281269   0.118   6.277  13.772 -0.1039  0.7453  0.5422
19952TIP3   OH281270   5.556   6.564  13.457 -0.0913 -0.3051  0.4871
19952TIP3    H181271   5.585   6.652  13.437 -1.5971  0.2796  0.7341
19952TIP3    H281272   5.633   6.521  13.494  0.5382  1.0445  0.7914
19953TIP3   OH281273   6.659   6.496  12.600 -0.1187 -0.1789 -0.3352
19953TIP3    H181274   6.698   6.576  12.635 -0.4699 -0.3680  0.4985
19953TIP3    H281275   6.572   6.492  12.638 -0.3920 -0.5645 -0.9788
19954TIP3   OH281276   6.507   6.517  14.660  0.4201 -0.2709 -0.3335
19954TIP3    H181277   6.437   6.490  14.601 -0.5913  1.6526 -0.0897
19954TIP3    H281278   6.464   6.574  14.724  1.9678 -0.1781  0.6821
19955TIP3   OH281279   0.663   0.667  15.339 -0.2527  0.3115 -0.4231
19955TIP3    H181280   0.606   0.741  15.316 -0.3188 -0.1211 -1.7562
19955TIP3    H281281   0.728   0.665  15.269 -0.2963 -0.9411 -0.4450
19956TIP3   OH281282   3.627   2.848   2.621 -0.0929 -0.0006  0.4463
19956TIP3    H181283   3.683   2.801   2.559 -0.6391  1.0451 -0.8859
19956TIP3    H281284   3.632   2.796   2.702  0.1565 -1.7423 -0.6331
19957TIP3   OH281285   2.331   1.711   4.330 -0.3489  0.5063  0.0112
19957TIP3    H181286   2.364   1.800   4.316 -1.1615  0.7807 -0.1856
19957TIP3    H281287   2.284   1.716   4.413 -1.4195  0.5607 -0.5872
19958TIP3   OH281288   2.044   3.862   0.641  0.0361 -0.2693 -0.4734
19958TIP3    H181289   1.988   3.880   0.565 -0.7732 -1.5129 -0.1900
19958TIP3    H281290   2.013   3.924   0.708  0.4270  0.4909 -0.9746
19959TIP3   OH281291   1.269   3.171   3.830 -0.2049 -0.0430  0.2081
19959TIP3    H181292   1.320   3.247   3.802 -0.6759 -0.1118 -0.8562
19959TIP3    H281293   1.335   3.108   3.860  0.5095 -0.7205 -2.5594
19960TIP3   OH281294   2.756   3.998  13.678  0.6214 -0.5844 -0.0416
19960TIP3    H181295   2.767   4.007  13.584 -1.0784  0.9090 -0.1409
19960TIP3    H281296   2.794   4.078  13.714 -0.1508 -0.4160  0.4110
19961TIP3   OH281297   4.778   4.705  11.862  0.5215 -0.7284 -0.5867
19961TIP3    H181298   4.804   4.792  11.891  0.7280 -1.2744  0.9240
19961TIP3    H281299   4.860   4.658  11.851  0.3499 -1.2840  0.4217
19962TIP3   OH281300   4.369   2.087   4.345 -0.2701 -0.0242  0.0463
19962TIP3    H181301   4.360   2.143   4.423 -1.1712  0.0454 -0.0973
19962TIP3    H281302   4.403   2.004   4.379  0.6852  0.4592  0.3188
19963TIP3   OH281303   1.383   3.760  11.452  0.0891 -0.4075 -0.2099
19963TIP3    H181304   1.473   3.793  11.443  0.4047 -1.2796 -0.3204
19963TIP3    H281305   1.345   3.813  11.522  0.3576  0.6638 -0.8559
19964TIP3   OH281306   4.468   3.465  12.658  0.1124  0.0684 -0.1778
19964TIP3    H181307   4.517   3.402  12.605 -2.4990 -1.8489 -0.4951
19964TIP3    H281308   4.446   3.535  12.596 -0.2355 -0.5984 -0.8120
19965TIP3   OH281309   0.865   1.143  11.669  0.2319  0.5402 -0.3884
19965TIP3    H181310   0.807   1.170  11.598  1.5309 -0.0943 -1.7762
19965TIP3    H281311   0.891   1.224  11.712 -1.9259  0.8075  0.5348
19966TIP3   OH281312   2.033   1.359  14.299  0.2572 -0.3475  0.0272
19966TIP3    H181313   1.964   1.323  14.355 -0.5141 -0.8495 -1.2097
19966TIP3    H281314   1.986   1.406  14.230  1.2055  0.9004  0.1969
19967TIP3   OH281315   4.871   1.479  12.645 -0.0525  0.1617 -0.5201
19967TIP3    H181316   4.792   1.503  12.693 -0.1622  0.5723 -0.8962
19967TIP3    H281317   4.942   1.524  12.691  0.2135 -1.5206  0.8306
19968TIP3   OH281318   1.757   6.323  12.429  0.1997  0.9217  0.5556
19968TIP3    H181319   1.691   6.254  12.436 -0.0901  1.2424  1.0109
19968TIP3    H281320   1.781   6.343  12.520  0.0340  1.6562  0.4418
19969TIP3   OH281321   6.084   4.491  16.016 -0.0493 -0.1887 -0.2495
19969TIP3    H181322   6.066   4.397  16.012 -0.4832 -0.0686 -1.9884
19969TIP3    H281323   6.166   4.498  16.065  0.7049 -1.5823 -1.2571
19970TIP3   OH281324   3.457   1.656   0.532  0.5008  0.2356  0.0725
19970TIP3    H181325   3.461   1.702   0.616 -3.0253 -0.3450  0.6937
19970TIP3    H281326   3.461   1.726   0.467  2.4888  0.7496  0.6749
19971TIP3   OH281327   0.599   1.589  15.756  0.5145  0.4738  0.1907
19971TIP3    H181328   0.645   1.511  15.786  1.7060  1.0618 -0.0311
19971TIP3    H281329   0.632   1.604  15.667  1.6836  2.2281  0.8678
19972TIP3   OH281330   4.443   6.381   0.990  0.6776  0.4717  0.5202
19972TIP3    H181331   4.396   6.364   0.908  0.4361  0.6602  0.6156
19972TIP3    H281332   4.520   6.325   0.986  0.1719 -0.2436  0.5942
19973TIP3   OH281333   4.144   5.338   2.953 -0.4415  0.0426 -0.6001
19973TIP3    H181334   4.222   5.389   2.931  0.2237 -0.7722 -0.2233
19973TIP3    H281335   4.172   5.246   2.946 -1.3689 -0.2677 -0.4704
19974TIP3   OH281336   6.137   2.102   1.980 -0.0082 -0.0146  0.2581
19974TIP3    H181337   6.115   2.034   1.916  0.6931 -0.8650  0.8938
19974TIP3    H281338   6.053   2.141   2.004 -0.2230  0.8978 -1.7659
19975TIP3   OH281339   6.434   2.431  16.345  0.1141 -0.5756 -0.0183
19975TIP3    H181340   6.433   2.489  16.422 -0.2113 -0.1486 -0.3344
19975TIP3    H281341   6.465   2.347  16.379 -0.0563 -0.4045  0.5902
19976TIP3   OH281342   2.983   0.969   3.471 -0.5928  0.0051  0.2720
19976TIP3    H181343   2.953   0.981   3.561 -0.5040 -0.0353  0.3069
19976TIP3    H281344   3.062   1.023   3.464  1.7291 -3.0265  1.4005
19977TIP3   OH281345   1.960   5.414  17.246 -0.1715 -0.2846 -0.0152
19977TIP3    H181346   1.952   5.418  17.151 -1.5820 -0.7015  0.0570
19977TIP3    H281347   2.038   5.466  17.266  1.2778 -1.7283 -1.5348
19978TIP3   OH281348   1.171   4.322  13.321 -0.3469 -0.2852  0.3195
19978TIP3    H181349   1.246   4.353  13.272 -0.8322  0.4679  0.0378
19978TIP3    H281350   1.135   4.400  13.363  0.2409 -0.9325  2.1609
19979TIP3   OH281351   4.463   2.940  11.755 -0.4934 -0.9094  0.1868
19979TIP3    H181352   4.426   2.958  11.668 -1.0972 -1.4011  0.3306
19979TIP3    H281353   4.492   2.849  11.750 -2.7838 -1.7789  1.2283
19980TIP3   OH281354   4.660   3.704  15.120 -0.1451  0.3258  0.1615
19980TIP3    H181355   4.584   3.655  15.152  0.7328 -0.3090  1.4089
19980TIP3    H281356   4.699   3.741  15.200  0.8431  0.6404 -0.4524
19981TIP3   OH281357   4.412   5.004   1.183 -0.2069  0.5460 -0.6681
19981TIP3    H181358   4.359   5.082   1.198  0.7186  1.3857 -1.6213
19981TIP3    H281359   4.471   5.000   1.258  0.5734  1.4863 -1.2116
19982TIP3   OH281360   3.238   4.317   1.220  0.2510 -0.2886  0.3124
19982TIP3    H181361   3.254   4.395   1.271 -0.4851 -0.2384  0.4772
19982TIP3    H281362   3.145   4.300   1.230  0.4319 -1.2814  0.4132
19983LIG      O81363   2.025   5.014   8.654  0.1330 -0.2715 -0.3558
19983LIG     C181364   2.073   5.027   8.522 -0.1336 -0.5755 -0.9037
19983LIG     C281365   1.959   5.090   8.438  0.5627 -0.2885 -0.4147
19983LIG     C381366   2.201   5.124   8.533  0.7248  0.7601  0.1512
19983LIG     H181367   2.107   4.930   8.481 -0.1196 -0.5405 -0.9742
19983LIG     H281368   1.902   5.173   8.484 -0.1052 -1.5234  1.0879
19983LIG     H381369   1.899   4.996   8.433 -0.0658  0.0940 -0.1965
19983LIG     H481370   1.994   5.110   8.335 -1.2835 -2.0375 -1.4531
19983LIG     H581371   2.228   5.163   8.433 -0.9039  3.9623  0.8072
19983LIG     H681372   2.290   5.071   8.571  1.6245  1.5595 -0.7831
19983LIG     H781373   2.170   5.208   8.600  1.7988  1.1680  0.1620
19983LIG     H881374   1.997   5.103   8.678 -0.8342 -0.6335 -0.0776
   6.78221   6.78221  17.26683
